# vtk DataFile Version 2.0
sampleSurface
ASCII
DATASET POLYDATA
POINTS 652 double
0 0 0
0.02 0 0
0.02 0 0.1
0 0 0.1
0.04 0 0
0.04 0 0.1
0.06 0 0
0.06 0 0.1
0.08 0 0
0.08 0 0.1
0.1 0 0
0.1 0 0.1
0.12 0 0
0.12 0 0.1
0.14 0 0
0.14 0 0.1
0.16 0 0
0.16 0 0.1
0.18 0 0
0.18 0 0.1
0.2 0 0
0.2 0 0.1
0.22 0 0
0.22 0 0.1
0.24 0 0
0.24 0 0.1
0.26 0 0
0.26 0 0.1
0.28 0 0
0.28 0 0.1
0.3 0 0
0.3 0 0.1
0.32 0 0
0.32 0 0.1
0.34 0 0
0.34 0 0.1
0.36 0 0
0.36 0 0.1
0.38 0 0
0.38 0 0.1
0.4 0 0
0.4 0 0.1
0.42 0 0
0.42 0 0.1
0.44 0 0
0.44 0 0.1
0.46 0 0
0.46 0 0.1
0.48 0 0
0.48 0 0.1
0.5 0 0
0.5 0 0.1
0.52 0 0
0.52 0 0.1
0.54 0 0
0.54 0 0.1
0.56 0 0
0.56 0 0.1
0.58 0 0
0.58 0 0.1
0.6 0 0
0.6 0 0.1
0.62 0 0
0.62 0 0.1
0.64 0 0
0.64 0 0.1
0.66 0 0
0.66 0 0.1
0.68 0 0
0.68 0 0.1
0.7 0 0
0.7 0 0.1
0.72 0 0
0.72 0 0.1
0.74 0 0
0.74 0 0.1
0.76 0 0
0.76 0 0.1
0.78 0 0
0.78 0 0.1
0.8 0 0
0.8 0 0.1
0.82 0 0
0.82 0 0.1
0.84 0 0
0.84 0 0.1
0.86 0 0
0.86 0 0.1
0.88 0 0
0.88 0 0.1
0.9 0 0
0.9 0 0.1
0.92 0 0
0.92 0 0.1
0.94 0 0
0.94 0 0.1
0.96 0 0
0.96 0 0.1
0.98 0 0
0.98 0 0.1
1 0 0
1 0 0.1
1.02 0 0
1.02 0 0.1
1.04 0 0
1.04 0 0.1
1.06 0 0
1.06 0 0.1
1.08 0 0
1.08 0 0.1
1.1 0 0
1.1 0 0.1
1.12 0 0
1.12 0 0.1
1.14 0 0
1.14 0 0.1
1.16 0 0
1.16 0 0.1
1.18 0 0
1.18 0 0.1
1.2 0 0
1.2 0 0.1
1.22 0 0
1.22 0 0.1
1.24 0 0
1.24 0 0.1
1.26 0 0
1.26 0 0.1
1.28 0 0
1.28 0 0.1
1.3 0 0
1.3 0 0.1
1.32 0 0
1.32 0 0.1
1.34 0 0
1.34 0 0.1
1.36 0 0
1.36 0 0.1
1.38 0 0
1.38 0 0.1
1.4 0 0
1.4 0 0.1
1.42 0 0
1.42 0 0.1
1.44 0 0
1.44 0 0.1
1.46 0 0
1.46 0 0.1
1.48 0 0
1.48 0 0.1
1.5 0 0
1.5 0 0.1
1.52 0 0
1.52 0 0.1
1.54 0 0
1.54 0 0.1
1.56 0 0
1.56 0 0.1
1.58 0 0
1.58 0 0.1
1.6 0 0
1.6 0 0.1
1.62 0 0
1.62 0 0.1
1.64 0 0
1.64 0 0.1
1.66 0 0
1.66 0 0.1
1.68 0 0
1.68 0 0.1
1.7 0 0
1.7 0 0.1
1.72 0 0
1.72 0 0.1
1.74 0 0
1.74 0 0.1
1.76 0 0
1.76 0 0.1
1.78 0 0
1.78 0 0.1
1.8 0 0
1.8 0 0.1
1.82 0 0
1.82 0 0.1
1.84 0 0
1.84 0 0.1
1.86 0 0
1.86 0 0.1
1.88 0 0
1.88 0 0.1
1.9 0 0
1.9 0 0.1
1.92 0 0
1.92 0 0.1
1.94 0 0
1.94 0 0.1
1.96 0 0
1.96 0 0.1
1.98 0 0
1.98 0 0.1
2 0 0
2 0 0.1
2 0.02 0
2 0.02 0.1
2 0.04 0
2 0.04 0.1
2 0.06 0
2 0.06 0.1
2 0.08 0
2 0.08 0.1
2 0.1 0
2 0.1 0.1
2 0.12 0
2 0.12 0.1
2 0.14 0
2 0.14 0.1
2 0.16 0
2 0.16 0.1
2 0.18 0
2 0.18 0.1
2 0.2 0
2 0.2 0.1
2 0.22 0
2 0.22 0.1
2 0.24 0
2 0.24 0.1
2 0.26 0
2 0.26 0.1
2 0.28 0
2 0.28 0.1
2 0.3 0
2 0.3 0.1
2 0.32 0
2 0.32 0.1
2 0.34 0
2 0.34 0.1
2 0.36 0
2 0.36 0.1
2 0.38 0
2 0.38 0.1
2 0.4 0
2 0.4 0.1
2 0.42 0
2 0.42 0.1
2 0.44 0
2 0.44 0.1
2 0.46 0
2 0.46 0.1
2 0.48 0
2 0.48 0.1
2 0.5 0
2 0.5 0.1
2 0.52 0
2 0.52 0.1
2 0.54 0
2 0.54 0.1
2 0.56 0
2 0.56 0.1
2 0.58 0
2 0.58 0.1
2 0.6 0
2 0.6 0.1
2 0.62 0
2 0.62 0.1
2 0.64 0
2 0.64 0.1
2 0.66 0
2 0.66 0.1
2 0.68 0
2 0.68 0.1
2 0.7 0
2 0.7 0.1
2 0.72 0
2 0.72 0.1
2 0.74 0
2 0.74 0.1
2 0.76 0
2 0.76 0.1
2 0.78 0
2 0.78 0.1
2 0.8 0
2 0.8 0.1
2 0.82 0
2 0.82 0.1
2 0.84 0
2 0.84 0.1
2 0.86 0
2 0.86 0.1
2 0.88 0
2 0.88 0.1
2 0.9 0
2 0.9 0.1
2 0.92 0
2 0.92 0.1
2 0.94 0
2 0.94 0.1
2 0.96 0
2 0.96 0.1
2 0.98 0
2 0.98 0.1
2 1 0
2 1 0.1
2.02 1 0
2.02 1 0.1
2.04 1 0
2.04 1 0.1
2.06 1 0
2.06 1 0.1
2.08 1 0
2.08 1 0.1
2.1 1 0
2.1 1 0.1
2.12 1 0
2.12 1 0.1
2.14 1 0
2.14 1 0.1
2.16 1 0
2.16 1 0.1
2.18 1 0
2.18 1 0.1
2.2 1 0
2.2 1 0.1
2.22 1 0
2.22 1 0.1
2.24 1 0
2.24 1 0.1
2.26 1 0
2.26 1 0.1
2.28 1 0
2.28 1 0.1
2.3 1 0
2.3 1 0.1
2.32 1 0
2.32 1 0.1
2.34 1 0
2.34 1 0.1
2.36 1 0
2.36 1 0.1
2.38 1 0
2.38 1 0.1
2.4 1 0
2.4 1 0.1
2.42 1 0
2.42 1 0.1
2.44 1 0
2.44 1 0.1
2.46 1 0
2.46 1 0.1
2.48 1 0
2.48 1 0.1
2.5 1 0
2.5 1 0.1
2.5 0 0
2.5 0 0.1
2.5 0.02 0.1
2.5 0.02 0
2.5 0.04 0.1
2.5 0.04 0
2.5 0.06 0.1
2.5 0.06 0
2.5 0.08 0.1
2.5 0.08 0
2.5 0.1 0.1
2.5 0.1 0
2.5 0.12 0.1
2.5 0.12 0
2.5 0.14 0.1
2.5 0.14 0
2.5 0.16 0.1
2.5 0.16 0
2.5 0.18 0.1
2.5 0.18 0
2.5 0.2 0.1
2.5 0.2 0
2.5 0.22 0.1
2.5 0.22 0
2.5 0.24 0.1
2.5 0.24 0
2.5 0.26 0.1
2.5 0.26 0
2.5 0.28 0.1
2.5 0.28 0
2.5 0.3 0.1
2.5 0.3 0
2.5 0.32 0.1
2.5 0.32 0
2.5 0.34 0.1
2.5 0.34 0
2.5 0.36 0.1
2.5 0.36 0
2.5 0.38 0.1
2.5 0.38 0
2.5 0.4 0.1
2.5 0.4 0
2.5 0.42 0.1
2.5 0.42 0
2.5 0.44 0.1
2.5 0.44 0
2.5 0.46 0.1
2.5 0.46 0
2.5 0.48 0.1
2.5 0.48 0
2.5 0.5 0.1
2.5 0.5 0
2.5 0.52 0.1
2.5 0.52 0
2.5 0.54 0.1
2.5 0.54 0
2.5 0.56 0.1
2.5 0.56 0
2.5 0.58 0.1
2.5 0.58 0
2.5 0.6 0.1
2.5 0.6 0
2.5 0.62 0.1
2.5 0.62 0
2.5 0.64 0.1
2.5 0.64 0
2.5 0.66 0.1
2.5 0.66 0
2.5 0.68 0.1
2.5 0.68 0
2.5 0.7 0.1
2.5 0.7 0
2.5 0.72 0.1
2.5 0.72 0
2.5 0.74 0.1
2.5 0.74 0
2.5 0.76 0.1
2.5 0.76 0
2.5 0.78 0.1
2.5 0.78 0
2.5 0.8 0.1
2.5 0.8 0
2.5 0.82 0.1
2.5 0.82 0
2.5 0.84 0.1
2.5 0.84 0
2.5 0.86 0.1
2.5 0.86 0
2.5 0.88 0.1
2.5 0.88 0
2.5 0.9 0.1
2.5 0.9 0
2.5 0.92 0.1
2.5 0.92 0
2.5 0.94 0.1
2.5 0.94 0
2.5 0.96 0.1
2.5 0.96 0
2.5 0.98 0.1
2.5 0.98 0
2.52 0 0
2.52 0 0.1
2.54 0 0
2.54 0 0.1
2.56 0 0
2.56 0 0.1
2.58 0 0
2.58 0 0.1
2.6 0 0
2.6 0 0.1
2.62 0 0
2.62 0 0.1
2.64 0 0
2.64 0 0.1
2.66 0 0
2.66 0 0.1
2.68 0 0
2.68 0 0.1
2.7 0 0
2.7 0 0.1
2.72 0 0
2.72 0 0.1
2.74 0 0
2.74 0 0.1
2.76 0 0
2.76 0 0.1
2.78 0 0
2.78 0 0.1
2.8 0 0
2.8 0 0.1
2.82 0 0
2.82 0 0.1
2.84 0 0
2.84 0 0.1
2.86 0 0
2.86 0 0.1
2.88 0 0
2.88 0 0.1
2.9 0 0
2.9 0 0.1
2.92 0 0
2.92 0 0.1
2.94 0 0
2.94 0 0.1
2.96 0 0
2.96 0 0.1
2.98 0 0
2.98 0 0.1
3 0 0
3 0 0.1
3.02 0 0
3.02 0 0.1
3.04 0 0
3.04 0 0.1
3.06 0 0
3.06 0 0.1
3.08 0 0
3.08 0 0.1
3.1 0 0
3.1 0 0.1
3.12 0 0
3.12 0 0.1
3.14 0 0
3.14 0 0.1
3.16 0 0
3.16 0 0.1
3.18 0 0
3.18 0 0.1
3.2 0 0
3.2 0 0.1
3.22 0 0
3.22 0 0.1
3.24 0 0
3.24 0 0.1
3.26 0 0
3.26 0 0.1
3.28 0 0
3.28 0 0.1
3.3 0 0
3.3 0 0.1
3.32 0 0
3.32 0 0.1
3.34 0 0
3.34 0 0.1
3.36 0 0
3.36 0 0.1
3.38 0 0
3.38 0 0.1
3.4 0 0
3.4 0 0.1
3.42 0 0
3.42 0 0.1
3.44 0 0
3.44 0 0.1
3.46 0 0
3.46 0 0.1
3.48 0 0
3.48 0 0.1
3.5 0 0
3.5 0 0.1
3.52 0 0
3.52 0 0.1
3.54 0 0
3.54 0 0.1
3.56 0 0
3.56 0 0.1
3.58 0 0
3.58 0 0.1
3.6 0 0
3.6 0 0.1
3.62 0 0
3.62 0 0.1
3.64 0 0
3.64 0 0.1
3.66 0 0
3.66 0 0.1
3.68 0 0
3.68 0 0.1
3.7 0 0
3.7 0 0.1
3.72 0 0
3.72 0 0.1
3.74 0 0
3.74 0 0.1
3.76 0 0
3.76 0 0.1
3.78 0 0
3.78 0 0.1
3.8 0 0
3.8 0 0.1
3.82 0 0
3.82 0 0.1
3.84 0 0
3.84 0 0.1
3.86 0 0
3.86 0 0.1
3.88 0 0
3.88 0 0.1
3.9 0 0
3.9 0 0.1
3.92 0 0
3.92 0 0.1
3.94 0 0
3.94 0 0.1
3.96 0 0
3.96 0 0.1
3.98 0 0
3.98 0 0.1
4 0 0
4 0 0.1
4.02 0 0
4.02 0 0.1
4.04 0 0
4.04 0 0.1
4.06 0 0
4.06 0 0.1
4.08 0 0
4.08 0 0.1
4.1 0 0
4.1 0 0.1
4.12 0 0
4.12 0 0.1
4.14 0 0
4.14 0 0.1
4.16 0 0
4.16 0 0.1
4.18 0 0
4.18 0 0.1
4.2 0 0
4.2 0 0.1
4.22 0 0
4.22 0 0.1
4.24 0 0
4.24 0 0.1
4.26 0 0
4.26 0 0.1
4.28 0 0
4.28 0 0.1
4.3 0 0
4.3 0 0.1
4.32 0 0
4.32 0 0.1
4.34 0 0
4.34 0 0.1
4.36 0 0
4.36 0 0.1
4.38 0 0
4.38 0 0.1
4.4 0 0
4.4 0 0.1
4.42 0 0
4.42 0 0.1
4.44 0 0
4.44 0 0.1
4.46 0 0
4.46 0 0.1
4.48 0 0
4.48 0 0.1
4.5 0 0
4.5 0 0.1

POLYGONS 325 1625
4 0 1 2 3
4 1 4 5 2
4 4 6 7 5
4 6 8 9 7
4 8 10 11 9
4 10 12 13 11
4 12 14 15 13
4 14 16 17 15
4 16 18 19 17
4 18 20 21 19
4 20 22 23 21
4 22 24 25 23
4 24 26 27 25
4 26 28 29 27
4 28 30 31 29
4 30 32 33 31
4 32 34 35 33
4 34 36 37 35
4 36 38 39 37
4 38 40 41 39
4 40 42 43 41
4 42 44 45 43
4 44 46 47 45
4 46 48 49 47
4 48 50 51 49
4 50 52 53 51
4 52 54 55 53
4 54 56 57 55
4 56 58 59 57
4 58 60 61 59
4 60 62 63 61
4 62 64 65 63
4 64 66 67 65
4 66 68 69 67
4 68 70 71 69
4 70 72 73 71
4 72 74 75 73
4 74 76 77 75
4 76 78 79 77
4 78 80 81 79
4 80 82 83 81
4 82 84 85 83
4 84 86 87 85
4 86 88 89 87
4 88 90 91 89
4 90 92 93 91
4 92 94 95 93
4 94 96 97 95
4 96 98 99 97
4 98 100 101 99
4 100 102 103 101
4 102 104 105 103
4 104 106 107 105
4 106 108 109 107
4 108 110 111 109
4 110 112 113 111
4 112 114 115 113
4 114 116 117 115
4 116 118 119 117
4 118 120 121 119
4 120 122 123 121
4 122 124 125 123
4 124 126 127 125
4 126 128 129 127
4 128 130 131 129
4 130 132 133 131
4 132 134 135 133
4 134 136 137 135
4 136 138 139 137
4 138 140 141 139
4 140 142 143 141
4 142 144 145 143
4 144 146 147 145
4 146 148 149 147
4 148 150 151 149
4 150 152 153 151
4 152 154 155 153
4 154 156 157 155
4 156 158 159 157
4 158 160 161 159
4 160 162 163 161
4 162 164 165 163
4 164 166 167 165
4 166 168 169 167
4 168 170 171 169
4 170 172 173 171
4 172 174 175 173
4 174 176 177 175
4 176 178 179 177
4 178 180 181 179
4 180 182 183 181
4 182 184 185 183
4 184 186 187 185
4 186 188 189 187
4 188 190 191 189
4 190 192 193 191
4 192 194 195 193
4 194 196 197 195
4 196 198 199 197
4 198 200 201 199
4 200 202 203 201
4 202 204 205 203
4 204 206 207 205
4 206 208 209 207
4 208 210 211 209
4 210 212 213 211
4 212 214 215 213
4 214 216 217 215
4 216 218 219 217
4 218 220 221 219
4 220 222 223 221
4 222 224 225 223
4 224 226 227 225
4 226 228 229 227
4 228 230 231 229
4 230 232 233 231
4 232 234 235 233
4 234 236 237 235
4 236 238 239 237
4 238 240 241 239
4 240 242 243 241
4 242 244 245 243
4 244 246 247 245
4 246 248 249 247
4 248 250 251 249
4 250 252 253 251
4 252 254 255 253
4 254 256 257 255
4 256 258 259 257
4 258 260 261 259
4 260 262 263 261
4 262 264 265 263
4 264 266 267 265
4 266 268 269 267
4 268 270 271 269
4 270 272 273 271
4 272 274 275 273
4 274 276 277 275
4 276 278 279 277
4 278 280 281 279
4 280 282 283 281
4 282 284 285 283
4 284 286 287 285
4 286 288 289 287
4 288 290 291 289
4 290 292 293 291
4 292 294 295 293
4 294 296 297 295
4 296 298 299 297
4 298 300 301 299
4 300 302 303 301
4 302 304 305 303
4 304 306 307 305
4 306 308 309 307
4 308 310 311 309
4 310 312 313 311
4 312 314 315 313
4 314 316 317 315
4 316 318 319 317
4 318 320 321 319
4 320 322 323 321
4 322 324 325 323
4 324 326 327 325
4 326 328 329 327
4 328 330 331 329
4 330 332 333 331
4 332 334 335 333
4 334 336 337 335
4 336 338 339 337
4 338 340 341 339
4 340 342 343 341
4 342 344 345 343
4 344 346 347 345
4 346 348 349 347
4 348 350 351 349
4 352 353 354 355
4 355 354 356 357
4 357 356 358 359
4 359 358 360 361
4 361 360 362 363
4 363 362 364 365
4 365 364 366 367
4 367 366 368 369
4 369 368 370 371
4 371 370 372 373
4 373 372 374 375
4 375 374 376 377
4 377 376 378 379
4 379 378 380 381
4 381 380 382 383
4 383 382 384 385
4 385 384 386 387
4 387 386 388 389
4 389 388 390 391
4 391 390 392 393
4 393 392 394 395
4 395 394 396 397
4 397 396 398 399
4 399 398 400 401
4 401 400 402 403
4 403 402 404 405
4 405 404 406 407
4 407 406 408 409
4 409 408 410 411
4 411 410 412 413
4 413 412 414 415
4 415 414 416 417
4 417 416 418 419
4 419 418 420 421
4 421 420 422 423
4 423 422 424 425
4 425 424 426 427
4 427 426 428 429
4 429 428 430 431
4 431 430 432 433
4 433 432 434 435
4 435 434 436 437
4 437 436 438 439
4 439 438 440 441
4 441 440 442 443
4 443 442 444 445
4 445 444 446 447
4 447 446 448 449
4 449 448 450 451
4 451 450 351 350
4 352 452 453 353
4 452 454 455 453
4 454 456 457 455
4 456 458 459 457
4 458 460 461 459
4 460 462 463 461
4 462 464 465 463
4 464 466 467 465
4 466 468 469 467
4 468 470 471 469
4 470 472 473 471
4 472 474 475 473
4 474 476 477 475
4 476 478 479 477
4 478 480 481 479
4 480 482 483 481
4 482 484 485 483
4 484 486 487 485
4 486 488 489 487
4 488 490 491 489
4 490 492 493 491
4 492 494 495 493
4 494 496 497 495
4 496 498 499 497
4 498 500 501 499
4 500 502 503 501
4 502 504 505 503
4 504 506 507 505
4 506 508 509 507
4 508 510 511 509
4 510 512 513 511
4 512 514 515 513
4 514 516 517 515
4 516 518 519 517
4 518 520 521 519
4 520 522 523 521
4 522 524 525 523
4 524 526 527 525
4 526 528 529 527
4 528 530 531 529
4 530 532 533 531
4 532 534 535 533
4 534 536 537 535
4 536 538 539 537
4 538 540 541 539
4 540 542 543 541
4 542 544 545 543
4 544 546 547 545
4 546 548 549 547
4 548 550 551 549
4 550 552 553 551
4 552 554 555 553
4 554 556 557 555
4 556 558 559 557
4 558 560 561 559
4 560 562 563 561
4 562 564 565 563
4 564 566 567 565
4 566 568 569 567
4 568 570 571 569
4 570 572 573 571
4 572 574 575 573
4 574 576 577 575
4 576 578 579 577
4 578 580 581 579
4 580 582 583 581
4 582 584 585 583
4 584 586 587 585
4 586 588 589 587
4 588 590 591 589
4 590 592 593 591
4 592 594 595 593
4 594 596 597 595
4 596 598 599 597
4 598 600 601 599
4 600 602 603 601
4 602 604 605 603
4 604 606 607 605
4 606 608 609 607
4 608 610 611 609
4 610 612 613 611
4 612 614 615 613
4 614 616 617 615
4 616 618 619 617
4 618 620 621 619
4 620 622 623 621
4 622 624 625 623
4 624 626 627 625
4 626 628 629 627
4 628 630 631 629
4 630 632 633 631
4 632 634 635 633
4 634 636 637 635
4 636 638 639 637
4 638 640 641 639
4 640 642 643 641
4 642 644 645 643
4 644 646 647 645
4 646 648 649 647
4 648 650 651 649
POINT_DATA 652
FIELD attributes 1
U 3 652 float
2.54693 0.0116654 0.0106156
1.27397 0.0058326 0.00530779
1.27397 0.0058326 0.00530779
2.54693 0.0116654 0.0106156
0.00100421 -4.78558e-07 0
0.00100421 -4.78558e-07 0
0.00100226 -1.72704e-06 0
0.00100226 -1.72704e-06 0
0.00100086 -2.8069e-06 0
0.00100086 -2.8069e-06 0
0.000999581 -1.81754e-06 0
0.000999581 -1.81754e-06 0
0.000999026 7.58278e-07 0
0.000999026 7.58278e-07 0
0.000997418 3.02781e-06 0
0.000997418 3.02781e-06 0
0.000992969 4.02467e-06 0
0.000992969 4.02467e-06 0
0.000987041 4.02266e-06 0
0.000987041 4.02266e-06 0
0.000981238 3.62159e-06 0
0.000981238 3.62159e-06 0
0.000975439 3.222e-06 0
0.000975439 3.222e-06 0
0.000969467 2.96335e-06 0
0.000969467 2.96335e-06 0
0.000963675 2.83612e-06 0
0.000963675 2.83612e-06 0
0.000958127 2.78902e-06 0
0.000958127 2.78902e-06 0
0.000952597 2.77987e-06 0
0.000952597 2.77987e-06 0
0.000947005 2.78573e-06 0
0.000947005 2.78573e-06 0
0.000941399 2.79747e-06 0
0.000941399 2.79747e-06 0
0.000935788 2.81239e-06 0
0.000935788 2.81239e-06 0
0.00093015 2.82983e-06 0
0.00093015 2.82983e-06 0
0.000924474 2.84961e-06 0
0.000924474 2.84961e-06 0
0.000918757 2.87169e-06 0
0.000918757 2.87169e-06 0
0.000912998 2.89606e-06 0
0.000912998 2.89606e-06 0
0.00090719 2.92269e-06 0
0.00090719 2.92269e-06 0
0.000901329 2.95156e-06 0
0.000901329 2.95156e-06 0
0.00089541 2.98263e-06 0
0.00089541 2.98263e-06 0
0.000889429 3.01588e-06 0
0.000889429 3.01588e-06 0
0.000883381 3.0513e-06 0
0.000883381 3.0513e-06 0
0.000877263 3.08888e-06 0
0.000877263 3.08888e-06 0
0.00087107 3.12861e-06 0
0.00087107 3.12861e-06 0
0.000864797 3.17051e-06 0
0.000864797 3.17051e-06 0
0.000858441 3.21456e-06 0
0.000858441 3.21456e-06 0
0.000851997 3.2608e-06 0
0.000851997 3.2608e-06 0
0.000845461 3.30922e-06 0
0.000845461 3.30922e-06 0
0.000838827 3.35984e-06 0
0.000838827 3.35984e-06 0
0.000832092 3.41267e-06 0
0.000832092 3.41267e-06 0
0.000825252 3.46774e-06 0
0.000825252 3.46774e-06 0
0.000818301 3.52507e-06 0
0.000818301 3.52507e-06 0
0.000811235 3.58467e-06 0
0.000811235 3.58467e-06 0
0.00080405 3.64656e-06 0
0.00080405 3.64656e-06 0
0.00079674 3.71075e-06 0
0.00079674 3.71075e-06 0
0.000789301 3.77728e-06 0
0.000789301 3.77728e-06 0
0.000781728 3.84615e-06 0
0.000781728 3.84615e-06 0
0.000774017 3.91738e-06 0
0.000774017 3.91738e-06 0
0.000766162 3.99098e-06 0
0.000766162 3.99098e-06 0
0.000758159 4.06696e-06 0
0.000758159 4.06696e-06 0
0.000750003 4.14534e-06 0
0.000750003 4.14534e-06 0
0.000741688 4.22611e-06 0
0.000741688 4.22611e-06 0
0.00073321 4.30929e-06 0
0.00073321 4.30929e-06 0
0.000724563 4.39485e-06 0
0.000724563 4.39485e-06 0
0.000715744 4.48281e-06 0
0.000715744 4.48281e-06 0
0.000706745 4.57315e-06 0
0.000706745 4.57315e-06 0
0.000697564 4.66584e-06 0
0.000697564 4.66584e-06 0
0.000688195 4.76087e-06 0
0.000688195 4.76087e-06 0
0.000678632 4.8582e-06 0
0.000678632 4.8582e-06 0
0.000668871 4.95781e-06 0
0.000668871 4.95781e-06 0
0.000658908 5.05963e-06 0
0.000658908 5.05963e-06 0
0.000648737 5.16363e-06 0
0.000648737 5.16363e-06 0
0.000638353 5.26975e-06 0
0.000638353 5.26975e-06 0
0.000627754 5.37791e-06 0
0.000627754 5.37791e-06 0
0.000616933 5.48805e-06 0
0.000616933 5.48805e-06 0
0.000605887 5.60007e-06 0
0.000605887 5.60007e-06 0
0.000594612 5.71391e-06 0
0.000594612 5.71391e-06 0
0.000583104 5.82946e-06 0
0.000583104 5.82946e-06 0
0.00057136 5.94664e-06 0
0.00057136 5.94664e-06 0
0.000559376 6.06537e-06 0
0.000559376 6.06537e-06 0
0.00054715 6.18557e-06 0
0.00054715 6.18557e-06 0
0.000534678 6.30714e-06 0
0.000534678 6.30714e-06 0
0.00052196 6.4298e-06 0
0.00052196 6.4298e-06 0
0.000508992 6.553e-06 0
0.000508992 6.553e-06 0
0.000495775 6.67616e-06 0
0.000495775 6.67616e-06 0
0.000482306 6.79895e-06 0
0.000482306 6.79895e-06 0
0.000468585 6.92111e-06 0
0.000468585 6.92111e-06 0
0.000454612 7.04236e-06 0
0.000454612 7.04236e-06 0
0.000440388 7.16246e-06 0
0.000440388 7.16246e-06 0
0.000425914 7.2811e-06 0
0.000425914 7.2811e-06 0
0.000411192 7.39801e-06 0
0.000411192 7.39801e-06 0
0.000396225 7.51288e-06 0
0.000396225 7.51288e-06 0
0.000381015 7.6254e-06 0
0.000381015 7.6254e-06 0
0.000365566 7.73526e-06 0
0.000365566 7.73526e-06 0
0.000349883 7.84215e-06 0
0.000349883 7.84215e-06 0
0.000333971 7.94578e-06 0
0.000333971 7.94578e-06 0
0.000317836 8.04583e-06 0
0.000317836 8.04583e-06 0
0.000301485 8.14204e-06 0
0.000301485 8.14204e-06 0
0.000284925 8.23411e-06 0
0.000284925 8.23411e-06 0
0.000268163 8.3218e-06 0
0.000268163 8.3218e-06 0
0.00025121 8.40485e-06 0
0.00025121 8.40485e-06 0
0.000234073 8.48305e-06 0
0.000234073 8.48305e-06 0
0.000216764 8.55619e-06 0
0.000216764 8.55619e-06 0
0.000199293 8.62408e-06 0
0.000199293 8.62408e-06 0
0.000181671 8.68656e-06 0
0.000181671 8.68656e-06 0
0.00016391 8.74349e-06 0
0.00016391 8.74349e-06 0
0.000146022 8.79474e-06 0
0.000146022 8.79474e-06 0
0.000128021 8.84021e-06 0
0.000128021 8.84021e-06 0
0.00010992 8.87981e-06 0
0.00010992 8.87981e-06 0
9.17316e-05 8.91347e-06 0
9.17316e-05 8.91347e-06 0
7.34707e-05 8.94112e-06 0
7.34707e-05 8.94112e-06 0
5.51515e-05 8.96264e-06 0
5.51515e-05 8.96264e-06 0
3.67888e-05 8.97789e-06 0
3.67888e-05 8.97789e-06 0
1.83978e-05 8.98599e-06 0
1.83978e-05 8.98599e-06 0
9.1971e-06 8.98805e-06 0
9.1971e-06 8.98805e-06 0
9.43016e-06 1.84719e-05 0
9.43016e-06 1.84719e-05 0
9.58051e-06 3.76403e-05 0
9.58051e-06 3.76403e-05 0
9.49603e-06 5.67804e-05 0
9.49603e-06 5.67804e-05 0
9.51136e-06 7.5748e-05 0
9.51136e-06 7.5748e-05 0
9.55061e-06 9.48155e-05 0
9.55061e-06 9.48155e-05 0
9.59935e-06 0.000113974 0
9.59935e-06 0.000113974 0
9.65726e-06 0.000133237 0
9.65726e-06 0.000133237 0
9.72484e-06 0.000152626 0
9.72484e-06 0.000152626 0
9.8025e-06 0.00017216 0
9.8025e-06 0.00017216 0
9.89068e-06 0.000191859 0
9.89068e-06 0.000191859 0
9.98988e-06 0.000211745 0
9.98988e-06 0.000211745 0
1.01007e-05 0.00023184 0
1.01007e-05 0.00023184 0
1.02238e-05 0.000252169 0
1.02238e-05 0.000252169 0
1.03599e-05 0.000272757 0
1.03599e-05 0.000272757 0
1.05099e-05 0.00029363 0
1.05099e-05 0.00029363 0
1.06748e-05 0.000314818 0
1.06748e-05 0.000314818 0
1.08557e-05 0.00033635 0
1.08557e-05 0.00033635 0
1.10539e-05 0.000358261 0
1.10539e-05 0.000358261 0
1.12709e-05 0.000380586 0
1.12709e-05 0.000380586 0
1.15083e-05 0.000403364 0
1.15083e-05 0.000403364 0
1.1768e-05 0.000426638 0
1.1768e-05 0.000426638 0
1.20524e-05 0.000450455 0
1.20524e-05 0.000450455 0
1.23638e-05 0.000474866 0
1.23638e-05 0.000474866 0
1.27054e-05 0.000499928 0
1.27054e-05 0.000499928 0
1.30804e-05 0.000525705 0
1.30804e-05 0.000525705 0
1.3493e-05 0.000552266 0
1.3493e-05 0.000552266 0
1.39479e-05 0.000579692 0
1.39479e-05 0.000579692 0
1.44506e-05 0.000608072 0
1.44506e-05 0.000608072 0
1.5008e-05 0.000637509 0
1.5008e-05 0.000637509 0
1.56274e-05 0.000668115 0
1.56274e-05 0.000668115 0
1.63213e-05 0.000700036 0
1.63213e-05 0.000700036 0
1.70919e-05 0.0007334 0
1.70919e-05 0.0007334 0
1.79806e-05 0.000768437 0
1.79806e-05 0.000768437 0
1.89512e-05 0.000805293 0
1.89512e-05 0.000805293 0
2.00853e-05 0.000844268 0
2.00853e-05 0.000844268 0
2.15218e-05 0.000885759 0
2.15218e-05 0.000885759 0
2.25327e-05 0.00092967 0
2.25327e-05 0.00092967 0
2.54244e-05 0.000977627 0
2.54244e-05 0.000977627 0
2.60084e-05 0.00102772 0
2.60084e-05 0.00102772 0
2.97883e-05 0.00108526 0
2.97883e-05 0.00108526 0
3.17911e-05 0.00114383 0
3.17911e-05 0.00114383 0
3.85766e-05 0.00121394 0
3.85766e-05 0.00121394 0
3.80385e-05 0.00129111 0
3.80385e-05 0.00129111 0
4.75996e-05 0.00137571 0
4.75996e-05 0.00137571 0
5.8411e-05 0.00148123 0
5.8411e-05 0.00148123 0
7.90908e-05 0.00160522 0
7.90908e-05 0.00160522 0
8.53475e-05 0.00176565 0
8.53475e-05 0.00176565 0
0.000160201 0.0019741 0
0.000160201 0.0019741 0
0.000199469 0.00226715 0
0.000199469 0.00226715 0
0.000370414 0.00157316 0
0.000370414 0.00157316 0
-0.000186173 0.000706627 0
-0.000186173 0.000706627 0
-0.00139252 0.000635509 0
-0.00139252 0.000635509 0
-0.00236915 0.000493411 0
-0.00236915 0.000493411 0
-0.00305034 0.000263462 0
-0.00305034 0.000263462 0
-0.00309166 -4.91376e-05 0
-0.00309166 -4.91376e-05 0
-0.0027031 -0.00027455 0
-0.0027031 -0.00027455 0
-0.00202966 -0.000422696 0
-0.00202966 -0.000422696 0
-0.00122614 -0.000443816 0
-0.00122614 -0.000443816 0
-0.000499075 -0.000327756 0
-0.000499075 -0.000327756 0
9.84245e-05 -0.000256498 0
9.84245e-05 -0.000256498 0
0.000605894 -0.000218741 0
0.000605894 -0.000218741 0
0.000964254 -0.00016966 0
0.000964254 -0.00016966 0
0.00122613 -0.000138492 0
0.00122613 -0.000138492 0
0.00140229 -0.000114001 0
0.00140229 -0.000114001 0
0.00153003 -8.70979e-05 0
0.00153003 -8.70979e-05 0
0.00163839 -6.05825e-05 0
0.00163839 -6.05825e-05 0
0.00174055 -3.86897e-05 0
0.00174055 -3.86897e-05 0
0.00182502 -2.28684e-05 0
0.00182502 -2.28684e-05 0
0.00190587 -2.64984e-05 0
0.00190587 -2.64984e-05 0
0.00197047 -2.12242e-05 0
0.00197047 -2.12242e-05 0
0.00203303 -3.2449e-05 0
0.00203303 -3.2449e-05 0
0.00210233 -3.73341e-05 0
0.00210233 -3.73341e-05 0
0.00218025 -6.06953e-05 0
0.00218025 -6.06953e-05 0
0.00228697 -6.95475e-05 0
0.00228697 -6.95475e-05 0
0.00138652 3.19486e-05 0
0.00138652 3.19486e-05 0
7.18991e-06 -7.35085e-06 0
7.18991e-06 -7.35085e-06 0
7.1911e-06 -1.4709e-05 0
7.1911e-06 -1.4709e-05 0
7.19267e-06 -2.94278e-05 0
7.19267e-06 -2.94278e-05 0
7.19342e-06 -4.41522e-05 0
7.19342e-06 -4.41522e-05 0
7.19404e-06 -5.88841e-05 0
7.19404e-06 -5.88841e-05 0
7.19437e-06 -7.36248e-05 0
7.19437e-06 -7.36248e-05 0
7.19416e-06 -8.83757e-05 0
7.19416e-06 -8.83757e-05 0
7.193e-06 -0.000103137 0
7.193e-06 -0.000103137 0
7.19037e-06 -0.00011791 0
7.19037e-06 -0.00011791 0
7.18564e-06 -0.000132692 0
7.18564e-06 -0.000132692 0
7.17803e-06 -0.000147482 0
7.17803e-06 -0.000147482 0
7.16659e-06 -0.000162275 0
7.16659e-06 -0.000162275 0
7.15017e-06 -0.000177066 0
7.15017e-06 -0.000177066 0
7.12741e-06 -0.000191848 0
7.12741e-06 -0.000191848 0
7.09664e-06 -0.000206608 0
7.09664e-06 -0.000206608 0
7.05588e-06 -0.000221335 0
7.05588e-06 -0.000221335 0
7.00272e-06 -0.00023601 0
7.00272e-06 -0.00023601 0
6.9343e-06 -0.00025061 0
6.9343e-06 -0.00025061 0
6.84714e-06 -0.000265107 0
6.84714e-06 -0.000265107 0
6.73706e-06 -0.000279464 0
6.73706e-06 -0.000279464 0
6.59906e-06 -0.000293638 0
6.59906e-06 -0.000293638 0
6.42708e-06 -0.000307571 0
6.42708e-06 -0.000307571 0
6.21384e-06 -0.000321195 0
6.21384e-06 -0.000321195 0
5.95057e-06 -0.000334423 0
5.95057e-06 -0.000334423 0
5.62663e-06 -0.000347148 0
5.62663e-06 -0.000347148 0
5.22896e-06 -0.000359236 0
5.22896e-06 -0.000359236 0
4.74128e-06 -0.000370522 0
4.74128e-06 -0.000370522 0
4.14248e-06 -0.000380794 0
4.14248e-06 -0.000380794 0
3.40354e-06 -0.000389791 0
3.40354e-06 -0.000389791 0
2.48216e-06 -0.000397175 0
2.48216e-06 -0.000397175 0
1.31642e-06 -0.000402507 0
1.31642e-06 -0.000402507 0
-2.11918e-07 -0.000405179 0
-2.11918e-07 -0.000405179 0
-2.30222e-06 -0.000404326 0
-2.30222e-06 -0.000404326 0
-5.18654e-06 -0.000398701 0
-5.18654e-06 -0.000398701 0
-9.10782e-06 -0.000386511 0
-9.10782e-06 -0.000386511 0
-1.44395e-05 -0.000365108 0
-1.44395e-05 -0.000365108 0
-2.19485e-05 -0.000331025 0
-2.19485e-05 -0.000331025 0
-3.29886e-05 -0.000281694 0
-3.29886e-05 -0.000281694 0
-4.79605e-05 -0.000195838 0
-4.79605e-05 -0.000195838 0
-7.35847e-05 -8.49956e-05 0
-7.35847e-05 -8.49956e-05 0
-0.000104292 0.000104688 0
-0.000104292 0.000104688 0
-0.000157246 0.000351413 0
-0.000157246 0.000351413 0
-0.000228326 0.000732905 0
-0.000228326 0.000732905 0
-0.000267857 0.00120728 0
-0.000267857 0.00120728 0
-0.000241799 0.00174977 0
-0.000241799 0.00174977 0
-8.09252e-05 0.00220426 0
-8.09252e-05 0.00220426 0
0.000138742 0.00237757 0
0.000138742 0.00237757 0
0.000276749 0.00206297 0
0.000276749 0.00206297 0
0.000325041 0.00138594 0
0.000325041 0.00138594 0
0.000379933 0.000589247 0
0.000379933 0.000589247 0
1.47666e-05 -7.52639e-06 0
1.47666e-05 -7.52639e-06 0
3.00583e-05 -7.62817e-06 0
3.00583e-05 -7.62817e-06 0
4.52817e-05 -7.54106e-06 0
4.52817e-05 -7.54106e-06 0
6.03173e-05 -7.52334e-06 0
6.03173e-05 -7.52334e-06 0
7.53663e-05 -7.51355e-06 0
7.53663e-05 -7.51355e-06 0
9.03967e-05 -7.50122e-06 0
9.03967e-05 -7.50122e-06 0
0.000105399 -7.48591e-06 0
0.000105399 -7.48591e-06 0
0.000120367 -7.46752e-06 0
0.000120367 -7.46752e-06 0
0.000135295 -7.4458e-06 0
0.000135295 -7.4458e-06 0
0.000150176 -7.42053e-06 0
0.000150176 -7.42053e-06 0
0.000165002 -7.39143e-06 0
0.000165002 -7.39143e-06 0
0.000179767 -7.35829e-06 0
0.000179767 -7.35829e-06 0
0.000194461 -7.32089e-06 0
0.000194461 -7.32089e-06 0
0.000209075 -7.27905e-06 0
0.000209075 -7.27905e-06 0
0.000223602 -7.23261e-06 0
0.000223602 -7.23261e-06 0
0.00023803 -7.18146e-06 0
0.00023803 -7.18146e-06 0
0.000252351 -7.12553e-06 0
0.000252351 -7.12553e-06 0
0.000266556 -7.06479e-06 0
0.000266556 -7.06479e-06 0
0.000280634 -6.99924e-06 0
0.000280634 -6.99924e-06 0
0.000294576 -6.92896e-06 0
0.000294576 -6.92896e-06 0
0.000308373 -6.85402e-06 0
0.000308373 -6.85402e-06 0
0.000322015 -6.77456e-06 0
0.000322015 -6.77456e-06 0
0.000335493 -6.69076e-06 0
0.000335493 -6.69076e-06 0
0.0003488 -6.6028e-06 0
0.0003488 -6.6028e-06 0
0.000361926 -6.51093e-06 0
0.000361926 -6.51093e-06 0
0.000374864 -6.41538e-06 0
0.000374864 -6.41538e-06 0
0.000387608 -6.31644e-06 0
0.000387608 -6.31644e-06 0
0.000400151 -6.21439e-06 0
0.000400151 -6.21439e-06 0
0.000412486 -6.10951e-06 0
0.000412486 -6.10951e-06 0
0.000424608 -6.00212e-06 0
0.000424608 -6.00212e-06 0
0.000436513 -5.89253e-06 0
0.000436513 -5.89253e-06 0
0.000448197 -5.78102e-06 0
0.000448197 -5.78102e-06 0
0.000459656 -5.66792e-06 0
0.000459656 -5.66792e-06 0
0.000470887 -5.5535e-06 0
0.000470887 -5.5535e-06 0
0.000481887 -5.43806e-06 0
0.000481887 -5.43806e-06 0
0.000492656 -5.32187e-06 0
0.000492656 -5.32187e-06 0
0.000503192 -5.2052e-06 0
0.000503192 -5.2052e-06 0
0.000513493 -5.08829e-06 0
0.000513493 -5.08829e-06 0
0.00052356 -4.97138e-06 0
0.00052356 -4.97138e-06 0
0.000533394 -4.85469e-06 0
0.000533394 -4.85469e-06 0
0.000542994 -4.73841e-06 0
0.000542994 -4.73841e-06 0
0.000552362 -4.62275e-06 0
0.000552362 -4.62275e-06 0
0.000561499 -4.50787e-06 0
0.000561499 -4.50787e-06 0
0.000570407 -4.39393e-06 0
0.000570407 -4.39393e-06 0
0.000579088 -4.28106e-06 0
0.000579088 -4.28106e-06 0
0.000587544 -4.16941e-06 0
0.000587544 -4.16941e-06 0
0.000595778 -4.05907e-06 0
0.000595778 -4.05907e-06 0
0.000603792 -3.95014e-06 0
0.000603792 -3.95014e-06 0
0.00061159 -3.84272e-06 0
0.00061159 -3.84272e-06 0
0.000619174 -3.73687e-06 0
0.000619174 -3.73687e-06 0
0.000626548 -3.63266e-06 0
0.000626548 -3.63266e-06 0
0.000633716 -3.53014e-06 0
0.000633716 -3.53014e-06 0
0.000640679 -3.42934e-06 0
0.000640679 -3.42934e-06 0
0.000647443 -3.33031e-06 0
0.000647443 -3.33031e-06 0
0.00065401 -3.23306e-06 0
0.00065401 -3.23306e-06 0
0.000660384 -3.13761e-06 0
0.000660384 -3.13761e-06 0
0.000666569 -3.04396e-06 0
0.000666569 -3.04396e-06 0
0.000672569 -2.95212e-06 0
0.000672569 -2.95212e-06 0
0.000678386 -2.86209e-06 0
0.000678386 -2.86209e-06 0
0.000684025 -2.77385e-06 0
0.000684025 -2.77385e-06 0
0.000689489 -2.68738e-06 0
0.000689489 -2.68738e-06 0
0.000694782 -2.60268e-06 0
0.000694782 -2.60268e-06 0
0.000699907 -2.51971e-06 0
0.000699907 -2.51971e-06 0
0.000704868 -2.43845e-06 0
0.000704868 -2.43845e-06 0
0.000709668 -2.35887e-06 0
0.000709668 -2.35887e-06 0
0.00071431 -2.28094e-06 0
0.00071431 -2.28094e-06 0
0.000718798 -2.20463e-06 0
0.000718798 -2.20463e-06 0
0.000723134 -2.12989e-06 0
0.000723134 -2.12989e-06 0
0.000727323 -2.05669e-06 0
0.000727323 -2.05669e-06 0
0.000731367 -1.985e-06 0
0.000731367 -1.985e-06 0
0.000735269 -1.91476e-06 0
0.000735269 -1.91476e-06 0
0.000739031 -1.84594e-06 0
0.000739031 -1.84594e-06 0
0.000742657 -1.77849e-06 0
0.000742657 -1.77849e-06 0
0.00074615 -1.71238e-06 0
0.00074615 -1.71238e-06 0
0.000749512 -1.64755e-06 0
0.000749512 -1.64755e-06 0
0.000752745 -1.58397e-06 0
0.000752745 -1.58397e-06 0
0.000755852 -1.52159e-06 0
0.000755852 -1.52159e-06 0
0.000758835 -1.46036e-06 0
0.000758835 -1.46036e-06 0
0.000761697 -1.40025e-06 0
0.000761697 -1.40025e-06 0
0.00076444 -1.3412e-06 0
0.00076444 -1.3412e-06 0
0.000767066 -1.28317e-06 0
0.000767066 -1.28317e-06 0
0.000769576 -1.22612e-06 0
0.000769576 -1.22612e-06 0
0.000771974 -1.17e-06 0
0.000771974 -1.17e-06 0
0.00077426 -1.11478e-06 0
0.00077426 -1.11478e-06 0
0.000776436 -1.06039e-06 0
0.000776436 -1.06039e-06 0
0.000778504 -1.00681e-06 0
0.000778504 -1.00681e-06 0
0.000780466 -9.5399e-07 0
0.000780466 -9.5399e-07 0
0.000782323 -9.01886e-07 0
0.000782323 -9.01886e-07 0
0.000784076 -8.50443e-07 0
0.000784076 -8.50443e-07 0
0.000785727 -7.9967e-07 0
0.000785727 -7.9967e-07 0
0.000787278 -7.4936e-07 0
0.000787278 -7.4936e-07 0
0.000788727 -6.99936e-07 0
0.000788727 -6.99936e-07 0
0.00079008 -6.502e-07 0
0.00079008 -6.502e-07 0
0.000791328 -6.02593e-07 0
0.000791328 -6.02593e-07 0
0.000792495 -5.52556e-07 0
0.000792495 -5.52556e-07 0
0.000793534 -5.06937e-07 0
0.000793534 -5.06937e-07 0
0.000794535 -4.56664e-07 0
0.000794535 -4.56664e-07 0
0.000795343 -4.13157e-07 0
0.000795343 -4.13157e-07 0
0.996714 -0.0003968 0
0.996714 -0.0003968 0
1.99263 -0.000793198 0
1.99263 -0.000793198 0
