# vtk DataFile Version 2.0
sampleSurface
ASCII
DATASET POLYDATA
POINTS 652 double
0 0 0
0.02 0 0
0.02 0 0.1
0 0 0.1
0.04 0 0
0.04 0 0.1
0.06 0 0
0.06 0 0.1
0.08 0 0
0.08 0 0.1
0.1 0 0
0.1 0 0.1
0.12 0 0
0.12 0 0.1
0.14 0 0
0.14 0 0.1
0.16 0 0
0.16 0 0.1
0.18 0 0
0.18 0 0.1
0.2 0 0
0.2 0 0.1
0.22 0 0
0.22 0 0.1
0.24 0 0
0.24 0 0.1
0.26 0 0
0.26 0 0.1
0.28 0 0
0.28 0 0.1
0.3 0 0
0.3 0 0.1
0.32 0 0
0.32 0 0.1
0.34 0 0
0.34 0 0.1
0.36 0 0
0.36 0 0.1
0.38 0 0
0.38 0 0.1
0.4 0 0
0.4 0 0.1
0.42 0 0
0.42 0 0.1
0.44 0 0
0.44 0 0.1
0.46 0 0
0.46 0 0.1
0.48 0 0
0.48 0 0.1
0.5 0 0
0.5 0 0.1
0.52 0 0
0.52 0 0.1
0.54 0 0
0.54 0 0.1
0.56 0 0
0.56 0 0.1
0.58 0 0
0.58 0 0.1
0.6 0 0
0.6 0 0.1
0.62 0 0
0.62 0 0.1
0.64 0 0
0.64 0 0.1
0.66 0 0
0.66 0 0.1
0.68 0 0
0.68 0 0.1
0.7 0 0
0.7 0 0.1
0.72 0 0
0.72 0 0.1
0.74 0 0
0.74 0 0.1
0.76 0 0
0.76 0 0.1
0.78 0 0
0.78 0 0.1
0.8 0 0
0.8 0 0.1
0.82 0 0
0.82 0 0.1
0.84 0 0
0.84 0 0.1
0.86 0 0
0.86 0 0.1
0.88 0 0
0.88 0 0.1
0.9 0 0
0.9 0 0.1
0.92 0 0
0.92 0 0.1
0.94 0 0
0.94 0 0.1
0.96 0 0
0.96 0 0.1
0.98 0 0
0.98 0 0.1
1 0 0
1 0 0.1
1.02 0 0
1.02 0 0.1
1.04 0 0
1.04 0 0.1
1.06 0 0
1.06 0 0.1
1.08 0 0
1.08 0 0.1
1.1 0 0
1.1 0 0.1
1.12 0 0
1.12 0 0.1
1.14 0 0
1.14 0 0.1
1.16 0 0
1.16 0 0.1
1.18 0 0
1.18 0 0.1
1.2 0 0
1.2 0 0.1
1.22 0 0
1.22 0 0.1
1.24 0 0
1.24 0 0.1
1.26 0 0
1.26 0 0.1
1.28 0 0
1.28 0 0.1
1.3 0 0
1.3 0 0.1
1.32 0 0
1.32 0 0.1
1.34 0 0
1.34 0 0.1
1.36 0 0
1.36 0 0.1
1.38 0 0
1.38 0 0.1
1.4 0 0
1.4 0 0.1
1.42 0 0
1.42 0 0.1
1.44 0 0
1.44 0 0.1
1.46 0 0
1.46 0 0.1
1.48 0 0
1.48 0 0.1
1.5 0 0
1.5 0 0.1
1.52 0 0
1.52 0 0.1
1.54 0 0
1.54 0 0.1
1.56 0 0
1.56 0 0.1
1.58 0 0
1.58 0 0.1
1.6 0 0
1.6 0 0.1
1.62 0 0
1.62 0 0.1
1.64 0 0
1.64 0 0.1
1.66 0 0
1.66 0 0.1
1.68 0 0
1.68 0 0.1
1.7 0 0
1.7 0 0.1
1.72 0 0
1.72 0 0.1
1.74 0 0
1.74 0 0.1
1.76 0 0
1.76 0 0.1
1.78 0 0
1.78 0 0.1
1.8 0 0
1.8 0 0.1
1.82 0 0
1.82 0 0.1
1.84 0 0
1.84 0 0.1
1.86 0 0
1.86 0 0.1
1.88 0 0
1.88 0 0.1
1.9 0 0
1.9 0 0.1
1.92 0 0
1.92 0 0.1
1.94 0 0
1.94 0 0.1
1.96 0 0
1.96 0 0.1
1.98 0 0
1.98 0 0.1
2 0 0
2 0 0.1
2 0.02 0
2 0.02 0.1
2 0.04 0
2 0.04 0.1
2 0.06 0
2 0.06 0.1
2 0.08 0
2 0.08 0.1
2 0.1 0
2 0.1 0.1
2 0.12 0
2 0.12 0.1
2 0.14 0
2 0.14 0.1
2 0.16 0
2 0.16 0.1
2 0.18 0
2 0.18 0.1
2 0.2 0
2 0.2 0.1
2 0.22 0
2 0.22 0.1
2 0.24 0
2 0.24 0.1
2 0.26 0
2 0.26 0.1
2 0.28 0
2 0.28 0.1
2 0.3 0
2 0.3 0.1
2 0.32 0
2 0.32 0.1
2 0.34 0
2 0.34 0.1
2 0.36 0
2 0.36 0.1
2 0.38 0
2 0.38 0.1
2 0.4 0
2 0.4 0.1
2 0.42 0
2 0.42 0.1
2 0.44 0
2 0.44 0.1
2 0.46 0
2 0.46 0.1
2 0.48 0
2 0.48 0.1
2 0.5 0
2 0.5 0.1
2 0.52 0
2 0.52 0.1
2 0.54 0
2 0.54 0.1
2 0.56 0
2 0.56 0.1
2 0.58 0
2 0.58 0.1
2 0.6 0
2 0.6 0.1
2 0.62 0
2 0.62 0.1
2 0.64 0
2 0.64 0.1
2 0.66 0
2 0.66 0.1
2 0.68 0
2 0.68 0.1
2 0.7 0
2 0.7 0.1
2 0.72 0
2 0.72 0.1
2 0.74 0
2 0.74 0.1
2 0.76 0
2 0.76 0.1
2 0.78 0
2 0.78 0.1
2 0.8 0
2 0.8 0.1
2 0.82 0
2 0.82 0.1
2 0.84 0
2 0.84 0.1
2 0.86 0
2 0.86 0.1
2 0.88 0
2 0.88 0.1
2 0.9 0
2 0.9 0.1
2 0.92 0
2 0.92 0.1
2 0.94 0
2 0.94 0.1
2 0.96 0
2 0.96 0.1
2 0.98 0
2 0.98 0.1
2 1 0
2 1 0.1
2.02 1 0
2.02 1 0.1
2.04 1 0
2.04 1 0.1
2.06 1 0
2.06 1 0.1
2.08 1 0
2.08 1 0.1
2.1 1 0
2.1 1 0.1
2.12 1 0
2.12 1 0.1
2.14 1 0
2.14 1 0.1
2.16 1 0
2.16 1 0.1
2.18 1 0
2.18 1 0.1
2.2 1 0
2.2 1 0.1
2.22 1 0
2.22 1 0.1
2.24 1 0
2.24 1 0.1
2.26 1 0
2.26 1 0.1
2.28 1 0
2.28 1 0.1
2.3 1 0
2.3 1 0.1
2.32 1 0
2.32 1 0.1
2.34 1 0
2.34 1 0.1
2.36 1 0
2.36 1 0.1
2.38 1 0
2.38 1 0.1
2.4 1 0
2.4 1 0.1
2.42 1 0
2.42 1 0.1
2.44 1 0
2.44 1 0.1
2.46 1 0
2.46 1 0.1
2.48 1 0
2.48 1 0.1
2.5 1 0
2.5 1 0.1
2.5 0 0
2.5 0 0.1
2.5 0.02 0.1
2.5 0.02 0
2.5 0.04 0.1
2.5 0.04 0
2.5 0.06 0.1
2.5 0.06 0
2.5 0.08 0.1
2.5 0.08 0
2.5 0.1 0.1
2.5 0.1 0
2.5 0.12 0.1
2.5 0.12 0
2.5 0.14 0.1
2.5 0.14 0
2.5 0.16 0.1
2.5 0.16 0
2.5 0.18 0.1
2.5 0.18 0
2.5 0.2 0.1
2.5 0.2 0
2.5 0.22 0.1
2.5 0.22 0
2.5 0.24 0.1
2.5 0.24 0
2.5 0.26 0.1
2.5 0.26 0
2.5 0.28 0.1
2.5 0.28 0
2.5 0.3 0.1
2.5 0.3 0
2.5 0.32 0.1
2.5 0.32 0
2.5 0.34 0.1
2.5 0.34 0
2.5 0.36 0.1
2.5 0.36 0
2.5 0.38 0.1
2.5 0.38 0
2.5 0.4 0.1
2.5 0.4 0
2.5 0.42 0.1
2.5 0.42 0
2.5 0.44 0.1
2.5 0.44 0
2.5 0.46 0.1
2.5 0.46 0
2.5 0.48 0.1
2.5 0.48 0
2.5 0.5 0.1
2.5 0.5 0
2.5 0.52 0.1
2.5 0.52 0
2.5 0.54 0.1
2.5 0.54 0
2.5 0.56 0.1
2.5 0.56 0
2.5 0.58 0.1
2.5 0.58 0
2.5 0.6 0.1
2.5 0.6 0
2.5 0.62 0.1
2.5 0.62 0
2.5 0.64 0.1
2.5 0.64 0
2.5 0.66 0.1
2.5 0.66 0
2.5 0.68 0.1
2.5 0.68 0
2.5 0.7 0.1
2.5 0.7 0
2.5 0.72 0.1
2.5 0.72 0
2.5 0.74 0.1
2.5 0.74 0
2.5 0.76 0.1
2.5 0.76 0
2.5 0.78 0.1
2.5 0.78 0
2.5 0.8 0.1
2.5 0.8 0
2.5 0.82 0.1
2.5 0.82 0
2.5 0.84 0.1
2.5 0.84 0
2.5 0.86 0.1
2.5 0.86 0
2.5 0.88 0.1
2.5 0.88 0
2.5 0.9 0.1
2.5 0.9 0
2.5 0.92 0.1
2.5 0.92 0
2.5 0.94 0.1
2.5 0.94 0
2.5 0.96 0.1
2.5 0.96 0
2.5 0.98 0.1
2.5 0.98 0
2.52 0 0
2.52 0 0.1
2.54 0 0
2.54 0 0.1
2.56 0 0
2.56 0 0.1
2.58 0 0
2.58 0 0.1
2.6 0 0
2.6 0 0.1
2.62 0 0
2.62 0 0.1
2.64 0 0
2.64 0 0.1
2.66 0 0
2.66 0 0.1
2.68 0 0
2.68 0 0.1
2.7 0 0
2.7 0 0.1
2.72 0 0
2.72 0 0.1
2.74 0 0
2.74 0 0.1
2.76 0 0
2.76 0 0.1
2.78 0 0
2.78 0 0.1
2.8 0 0
2.8 0 0.1
2.82 0 0
2.82 0 0.1
2.84 0 0
2.84 0 0.1
2.86 0 0
2.86 0 0.1
2.88 0 0
2.88 0 0.1
2.9 0 0
2.9 0 0.1
2.92 0 0
2.92 0 0.1
2.94 0 0
2.94 0 0.1
2.96 0 0
2.96 0 0.1
2.98 0 0
2.98 0 0.1
3 0 0
3 0 0.1
3.02 0 0
3.02 0 0.1
3.04 0 0
3.04 0 0.1
3.06 0 0
3.06 0 0.1
3.08 0 0
3.08 0 0.1
3.1 0 0
3.1 0 0.1
3.12 0 0
3.12 0 0.1
3.14 0 0
3.14 0 0.1
3.16 0 0
3.16 0 0.1
3.18 0 0
3.18 0 0.1
3.2 0 0
3.2 0 0.1
3.22 0 0
3.22 0 0.1
3.24 0 0
3.24 0 0.1
3.26 0 0
3.26 0 0.1
3.28 0 0
3.28 0 0.1
3.3 0 0
3.3 0 0.1
3.32 0 0
3.32 0 0.1
3.34 0 0
3.34 0 0.1
3.36 0 0
3.36 0 0.1
3.38 0 0
3.38 0 0.1
3.4 0 0
3.4 0 0.1
3.42 0 0
3.42 0 0.1
3.44 0 0
3.44 0 0.1
3.46 0 0
3.46 0 0.1
3.48 0 0
3.48 0 0.1
3.5 0 0
3.5 0 0.1
3.52 0 0
3.52 0 0.1
3.54 0 0
3.54 0 0.1
3.56 0 0
3.56 0 0.1
3.58 0 0
3.58 0 0.1
3.6 0 0
3.6 0 0.1
3.62 0 0
3.62 0 0.1
3.64 0 0
3.64 0 0.1
3.66 0 0
3.66 0 0.1
3.68 0 0
3.68 0 0.1
3.7 0 0
3.7 0 0.1
3.72 0 0
3.72 0 0.1
3.74 0 0
3.74 0 0.1
3.76 0 0
3.76 0 0.1
3.78 0 0
3.78 0 0.1
3.8 0 0
3.8 0 0.1
3.82 0 0
3.82 0 0.1
3.84 0 0
3.84 0 0.1
3.86 0 0
3.86 0 0.1
3.88 0 0
3.88 0 0.1
3.9 0 0
3.9 0 0.1
3.92 0 0
3.92 0 0.1
3.94 0 0
3.94 0 0.1
3.96 0 0
3.96 0 0.1
3.98 0 0
3.98 0 0.1
4 0 0
4 0 0.1
4.02 0 0
4.02 0 0.1
4.04 0 0
4.04 0 0.1
4.06 0 0
4.06 0 0.1
4.08 0 0
4.08 0 0.1
4.1 0 0
4.1 0 0.1
4.12 0 0
4.12 0 0.1
4.14 0 0
4.14 0 0.1
4.16 0 0
4.16 0 0.1
4.18 0 0
4.18 0 0.1
4.2 0 0
4.2 0 0.1
4.22 0 0
4.22 0 0.1
4.24 0 0
4.24 0 0.1
4.26 0 0
4.26 0 0.1
4.28 0 0
4.28 0 0.1
4.3 0 0
4.3 0 0.1
4.32 0 0
4.32 0 0.1
4.34 0 0
4.34 0 0.1
4.36 0 0
4.36 0 0.1
4.38 0 0
4.38 0 0.1
4.4 0 0
4.4 0 0.1
4.42 0 0
4.42 0 0.1
4.44 0 0
4.44 0 0.1
4.46 0 0
4.46 0 0.1
4.48 0 0
4.48 0 0.1
4.5 0 0
4.5 0 0.1

POLYGONS 325 1625
4 0 1 2 3
4 1 4 5 2
4 4 6 7 5
4 6 8 9 7
4 8 10 11 9
4 10 12 13 11
4 12 14 15 13
4 14 16 17 15
4 16 18 19 17
4 18 20 21 19
4 20 22 23 21
4 22 24 25 23
4 24 26 27 25
4 26 28 29 27
4 28 30 31 29
4 30 32 33 31
4 32 34 35 33
4 34 36 37 35
4 36 38 39 37
4 38 40 41 39
4 40 42 43 41
4 42 44 45 43
4 44 46 47 45
4 46 48 49 47
4 48 50 51 49
4 50 52 53 51
4 52 54 55 53
4 54 56 57 55
4 56 58 59 57
4 58 60 61 59
4 60 62 63 61
4 62 64 65 63
4 64 66 67 65
4 66 68 69 67
4 68 70 71 69
4 70 72 73 71
4 72 74 75 73
4 74 76 77 75
4 76 78 79 77
4 78 80 81 79
4 80 82 83 81
4 82 84 85 83
4 84 86 87 85
4 86 88 89 87
4 88 90 91 89
4 90 92 93 91
4 92 94 95 93
4 94 96 97 95
4 96 98 99 97
4 98 100 101 99
4 100 102 103 101
4 102 104 105 103
4 104 106 107 105
4 106 108 109 107
4 108 110 111 109
4 110 112 113 111
4 112 114 115 113
4 114 116 117 115
4 116 118 119 117
4 118 120 121 119
4 120 122 123 121
4 122 124 125 123
4 124 126 127 125
4 126 128 129 127
4 128 130 131 129
4 130 132 133 131
4 132 134 135 133
4 134 136 137 135
4 136 138 139 137
4 138 140 141 139
4 140 142 143 141
4 142 144 145 143
4 144 146 147 145
4 146 148 149 147
4 148 150 151 149
4 150 152 153 151
4 152 154 155 153
4 154 156 157 155
4 156 158 159 157
4 158 160 161 159
4 160 162 163 161
4 162 164 165 163
4 164 166 167 165
4 166 168 169 167
4 168 170 171 169
4 170 172 173 171
4 172 174 175 173
4 174 176 177 175
4 176 178 179 177
4 178 180 181 179
4 180 182 183 181
4 182 184 185 183
4 184 186 187 185
4 186 188 189 187
4 188 190 191 189
4 190 192 193 191
4 192 194 195 193
4 194 196 197 195
4 196 198 199 197
4 198 200 201 199
4 200 202 203 201
4 202 204 205 203
4 204 206 207 205
4 206 208 209 207
4 208 210 211 209
4 210 212 213 211
4 212 214 215 213
4 214 216 217 215
4 216 218 219 217
4 218 220 221 219
4 220 222 223 221
4 222 224 225 223
4 224 226 227 225
4 226 228 229 227
4 228 230 231 229
4 230 232 233 231
4 232 234 235 233
4 234 236 237 235
4 236 238 239 237
4 238 240 241 239
4 240 242 243 241
4 242 244 245 243
4 244 246 247 245
4 246 248 249 247
4 248 250 251 249
4 250 252 253 251
4 252 254 255 253
4 254 256 257 255
4 256 258 259 257
4 258 260 261 259
4 260 262 263 261
4 262 264 265 263
4 264 266 267 265
4 266 268 269 267
4 268 270 271 269
4 270 272 273 271
4 272 274 275 273
4 274 276 277 275
4 276 278 279 277
4 278 280 281 279
4 280 282 283 281
4 282 284 285 283
4 284 286 287 285
4 286 288 289 287
4 288 290 291 289
4 290 292 293 291
4 292 294 295 293
4 294 296 297 295
4 296 298 299 297
4 298 300 301 299
4 300 302 303 301
4 302 304 305 303
4 304 306 307 305
4 306 308 309 307
4 308 310 311 309
4 310 312 313 311
4 312 314 315 313
4 314 316 317 315
4 316 318 319 317
4 318 320 321 319
4 320 322 323 321
4 322 324 325 323
4 324 326 327 325
4 326 328 329 327
4 328 330 331 329
4 330 332 333 331
4 332 334 335 333
4 334 336 337 335
4 336 338 339 337
4 338 340 341 339
4 340 342 343 341
4 342 344 345 343
4 344 346 347 345
4 346 348 349 347
4 348 350 351 349
4 352 353 354 355
4 355 354 356 357
4 357 356 358 359
4 359 358 360 361
4 361 360 362 363
4 363 362 364 365
4 365 364 366 367
4 367 366 368 369
4 369 368 370 371
4 371 370 372 373
4 373 372 374 375
4 375 374 376 377
4 377 376 378 379
4 379 378 380 381
4 381 380 382 383
4 383 382 384 385
4 385 384 386 387
4 387 386 388 389
4 389 388 390 391
4 391 390 392 393
4 393 392 394 395
4 395 394 396 397
4 397 396 398 399
4 399 398 400 401
4 401 400 402 403
4 403 402 404 405
4 405 404 406 407
4 407 406 408 409
4 409 408 410 411
4 411 410 412 413
4 413 412 414 415
4 415 414 416 417
4 417 416 418 419
4 419 418 420 421
4 421 420 422 423
4 423 422 424 425
4 425 424 426 427
4 427 426 428 429
4 429 428 430 431
4 431 430 432 433
4 433 432 434 435
4 435 434 436 437
4 437 436 438 439
4 439 438 440 441
4 441 440 442 443
4 443 442 444 445
4 445 444 446 447
4 447 446 448 449
4 449 448 450 451
4 451 450 351 350
4 352 452 453 353
4 452 454 455 453
4 454 456 457 455
4 456 458 459 457
4 458 460 461 459
4 460 462 463 461
4 462 464 465 463
4 464 466 467 465
4 466 468 469 467
4 468 470 471 469
4 470 472 473 471
4 472 474 475 473
4 474 476 477 475
4 476 478 479 477
4 478 480 481 479
4 480 482 483 481
4 482 484 485 483
4 484 486 487 485
4 486 488 489 487
4 488 490 491 489
4 490 492 493 491
4 492 494 495 493
4 494 496 497 495
4 496 498 499 497
4 498 500 501 499
4 500 502 503 501
4 502 504 505 503
4 504 506 507 505
4 506 508 509 507
4 508 510 511 509
4 510 512 513 511
4 512 514 515 513
4 514 516 517 515
4 516 518 519 517
4 518 520 521 519
4 520 522 523 521
4 522 524 525 523
4 524 526 527 525
4 526 528 529 527
4 528 530 531 529
4 530 532 533 531
4 532 534 535 533
4 534 536 537 535
4 536 538 539 537
4 538 540 541 539
4 540 542 543 541
4 542 544 545 543
4 544 546 547 545
4 546 548 549 547
4 548 550 551 549
4 550 552 553 551
4 552 554 555 553
4 554 556 557 555
4 556 558 559 557
4 558 560 561 559
4 560 562 563 561
4 562 564 565 563
4 564 566 567 565
4 566 568 569 567
4 568 570 571 569
4 570 572 573 571
4 572 574 575 573
4 574 576 577 575
4 576 578 579 577
4 578 580 581 579
4 580 582 583 581
4 582 584 585 583
4 584 586 587 585
4 586 588 589 587
4 588 590 591 589
4 590 592 593 591
4 592 594 595 593
4 594 596 597 595
4 596 598 599 597
4 598 600 601 599
4 600 602 603 601
4 602 604 605 603
4 604 606 607 605
4 606 608 609 607
4 608 610 611 609
4 610 612 613 611
4 612 614 615 613
4 614 616 617 615
4 616 618 619 617
4 618 620 621 619
4 620 622 623 621
4 622 624 625 623
4 624 626 627 625
4 626 628 629 627
4 628 630 631 629
4 630 632 633 631
4 632 634 635 633
4 634 636 637 635
4 636 638 639 637
4 638 640 641 639
4 640 642 643 641
4 642 644 645 643
4 644 646 647 645
4 646 648 649 647
4 648 650 651 649
POINT_DATA 652
FIELD attributes 1
U 3 652 float
2.50426 0.0358036 -0.0141016
1.25263 0.0179027 -0.00705078
1.25263 0.0179027 -0.00705078
2.50426 0.0358036 -0.0141016
0.00100365 1.62971e-06 0
0.00100365 1.62971e-06 0
0.00100349 4.35655e-07 0
0.00100349 4.35655e-07 0
0.00100275 -1.06495e-06 0
0.00100275 -1.06495e-06 0
0.00100079 -1.33736e-06 0
0.00100079 -1.33736e-06 0
0.000997752 -5.08046e-07 0
0.000997752 -5.08046e-07 0
0.000994808 5.89116e-07 0
0.000994808 5.89116e-07 0
0.000992939 1.3114e-06 0
0.000992939 1.3114e-06 0
0.000992248 1.40093e-06 0
0.000992248 1.40093e-06 0
0.000991804 1.09127e-06 0
0.000991804 1.09127e-06 0
0.000990291 8.62697e-07 0
0.000990291 8.62697e-07 0
0.00098715 8.80137e-07 0
0.00098715 8.80137e-07 0
0.000983074 7.90943e-07 0
0.000983074 7.90943e-07 0
0.000979327 2.71007e-07 0
0.000979327 2.71007e-07 0
0.000976552 -3.87809e-07 0
0.000976552 -3.87809e-07 0
0.000974304 -5.45547e-07 0
0.000974304 -5.45547e-07 0
0.000971676 4.00672e-09 0
0.000971676 4.00672e-09 0
0.000968297 7.86441e-07 0
0.000968297 7.86441e-07 0
0.000964638 1.2424e-06 0
0.000964638 1.2424e-06 0
0.000961369 1.43038e-06 0
0.000961369 1.43038e-06 0
0.000958573 1.95153e-06 0
0.000958573 1.95153e-06 0
0.000955653 3.12454e-06 0
0.000955653 3.12454e-06 0
0.000951981 4.42385e-06 0
0.000951981 4.42385e-06 0
0.000947539 4.90514e-06 0
0.000947539 4.90514e-06 0
0.000942891 4.20269e-06 0
0.000942891 4.20269e-06 0
0.000938545 3.04407e-06 0
0.000938545 3.04407e-06 0
0.000934403 2.67827e-06 0
0.000934403 2.67827e-06 0
0.000929846 3.72603e-06 0
0.000929846 3.72603e-06 0
0.000924326 5.57441e-06 0
0.000924326 5.57441e-06 0
0.000917911 6.8798e-06 0
0.000917911 6.8798e-06 0
0.000911249 6.69228e-06 0
0.000911249 6.69228e-06 0
0.000905029 5.22028e-06 0
0.000905029 5.22028e-06 0
0.000899411 3.62869e-06 0
0.000899411 3.62869e-06 0
0.000893862 3.12432e-06 0
0.000893862 3.12432e-06 0
0.000887455 4.13298e-06 0
0.000887455 4.13298e-06 0
0.0008794 6.13441e-06 0
0.0008794 6.13441e-06 0
0.000869467 8.12736e-06 0
0.000869467 8.12736e-06 0
0.000858056 9.28868e-06 0
0.000858056 9.28868e-06 0
0.000845929 9.36385e-06 0
0.000845929 9.36385e-06 0
0.00083381 8.62429e-06 0
0.00083381 8.62429e-06 0
0.00082214 7.56022e-06 0
0.00082214 7.56022e-06 0
0.000811025 6.58381e-06 0
0.000811025 6.58381e-06 0
0.000800347 5.89833e-06 0
0.000800347 5.89833e-06 0
0.000789907 5.52257e-06 0
0.000789907 5.52257e-06 0
0.000779523 5.37998e-06 0
0.000779523 5.37998e-06 0
0.000769071 5.37683e-06 0
0.000769071 5.37683e-06 0
0.000758484 5.44215e-06 0
0.000758484 5.44215e-06 0
0.000747731 5.53519e-06 0
0.000747731 5.53519e-06 0
0.0007368 5.63748e-06 0
0.0007368 5.63748e-06 0
0.000725688 5.74256e-06 0
0.000725688 5.74256e-06 0
0.000714392 5.84889e-06 0
0.000714392 5.84889e-06 0
0.000702909 5.95637e-06 0
0.000702909 5.95637e-06 0
0.000691235 6.06506e-06 0
0.000691235 6.06506e-06 0
0.000679368 6.17488e-06 0
0.000679368 6.17488e-06 0
0.000667304 6.28569e-06 0
0.000667304 6.28569e-06 0
0.000655039 6.39726e-06 0
0.000655039 6.39726e-06 0
0.000642571 6.50935e-06 0
0.000642571 6.50935e-06 0
0.000629897 6.62167e-06 0
0.000629897 6.62167e-06 0
0.000617014 6.73394e-06 0
0.000617014 6.73394e-06 0
0.000603919 6.84584e-06 0
0.000603919 6.84584e-06 0
0.000590612 6.95705e-06 0
0.000590612 6.95705e-06 0
0.00057709 7.06725e-06 0
0.00057709 7.06725e-06 0
0.000563354 7.1761e-06 0
0.000563354 7.1761e-06 0
0.000549403 7.28315e-06 0
0.000549403 7.28315e-06 0
0.000535238 7.38743e-06 0
0.000535238 7.38743e-06 0
0.000520862 7.48753e-06 0
0.000520862 7.48753e-06 0
0.000506277 7.58213e-06 0
0.000506277 7.58213e-06 0
0.000491486 7.6701e-06 0
0.000491486 7.6701e-06 0
0.000476493 7.75038e-06 0
0.000476493 7.75038e-06 0
0.000461306 7.82191e-06 0
0.000461306 7.82191e-06 0
0.00044593 7.88358e-06 0
0.00044593 7.88358e-06 0
0.000430377 7.93419e-06 0
0.000430377 7.93419e-06 0
0.000414656 7.97247e-06 0
0.000414656 7.97247e-06 0
0.00039878 7.99711e-06 0
0.00039878 7.99711e-06 0
0.000382764 8.0067e-06 0
0.000382764 8.0067e-06 0
0.000366624 7.99986e-06 0
0.000366624 7.99986e-06 0
0.00035038 7.97519e-06 0
0.00035038 7.97519e-06 0
0.000334051 7.93141e-06 0
0.000334051 7.93141e-06 0
0.000317661 7.86735e-06 0
0.000317661 7.86735e-06 0
0.000301234 7.78202e-06 0
0.000301234 7.78202e-06 0
0.000284796 7.67462e-06 0
0.000284796 7.67462e-06 0
0.000268376 7.5447e-06 0
0.000268376 7.5447e-06 0
0.000252001 7.39225e-06 0
0.000252001 7.39225e-06 0
0.000235702 7.21775e-06 0
0.000235702 7.21775e-06 0
0.000219508 7.02232e-06 0
0.000219508 7.02232e-06 0
0.000203449 6.80767e-06 0
0.000203449 6.80767e-06 0
0.00018755 6.57626e-06 0
0.00018755 6.57626e-06 0
0.000171838 6.33123e-06 0
0.000171838 6.33123e-06 0
0.000156334 6.07647e-06 0
0.000156334 6.07647e-06 0
0.000141055 5.81653e-06 0
0.000141055 5.81653e-06 0
0.000126013 5.55655e-06 0
0.000126013 5.55655e-06 0
0.000111213 5.30217e-06 0
0.000111213 5.30217e-06 0
9.66565e-05 5.05929e-06 0
9.66565e-05 5.05929e-06 0
8.23338e-05 4.83392e-06 0
8.23338e-05 4.83392e-06 0
6.82299e-05 4.63186e-06 0
6.82299e-05 4.63186e-06 0
5.43224e-05 4.45855e-06 0
5.43224e-05 4.45855e-06 0
4.05811e-05 4.31784e-06 0
4.05811e-05 4.31784e-06 0
2.69737e-05 4.21017e-06 0
2.69737e-05 4.21017e-06 0
1.34567e-05 4.14785e-06 0
1.34567e-05 4.14785e-06 0
6.7137e-06 4.13129e-06 0
6.7137e-06 4.13129e-06 0
8.68023e-06 1.35623e-05 0
8.68023e-06 1.35623e-05 0
1.07122e-05 3.46733e-05 0
1.07122e-05 3.46733e-05 0
1.05174e-05 5.65123e-05 0
1.05174e-05 5.65123e-05 0
1.00749e-05 7.68502e-05 0
1.00749e-05 7.68502e-05 0
9.81556e-06 9.68342e-05 0
9.81556e-06 9.68342e-05 0
9.72606e-06 0.00011636 0
9.72606e-06 0.00011636 0
9.73153e-06 0.000135831 0
9.73153e-06 0.000135831 0
9.78075e-06 0.000155388 0
9.78075e-06 0.000155388 0
9.84918e-06 0.000175069 0
9.84918e-06 0.000175069 0
9.92769e-06 0.000194896 0
9.92769e-06 0.000194896 0
1.0014e-05 0.000214888 0
1.0014e-05 0.000214888 0
1.01082e-05 0.000235059 0
1.01082e-05 0.000235059 0
1.02112e-05 0.000255427 0
1.02112e-05 0.000255427 0
1.03238e-05 0.000276011 0
1.03238e-05 0.000276011 0
1.04469e-05 0.000296829 0
1.04469e-05 0.000296829 0
1.05815e-05 0.000317905 0
1.05815e-05 0.000317905 0
1.07283e-05 0.000339261 0
1.07283e-05 0.000339261 0
1.08887e-05 0.000360923 0
1.08887e-05 0.000360923 0
1.10633e-05 0.00038292 0
1.10633e-05 0.00038292 0
1.12539e-05 0.000405281 0
1.12539e-05 0.000405281 0
1.14618e-05 0.000428039 0
1.14618e-05 0.000428039 0
1.16885e-05 0.00045123 0
1.16885e-05 0.00045123 0
1.19355e-05 0.000474894 0
1.19355e-05 0.000474894 0
1.22067e-05 0.000499075 0
1.22067e-05 0.000499075 0
1.25018e-05 0.000523819 0
1.25018e-05 0.000523819 0
1.28265e-05 0.000549183 0
1.28265e-05 0.000549183 0
1.31811e-05 0.000575221 0
1.31811e-05 0.000575221 0
1.35755e-05 0.00060201 0
1.35755e-05 0.00060201 0
1.40035e-05 0.00062961 0
1.40035e-05 0.00062961 0
1.44875e-05 0.000658129 0
1.44875e-05 0.000658129 0
1.50087e-05 0.000687637 0
1.50087e-05 0.000687637 0
1.56158e-05 0.000718285 0
1.56158e-05 0.000718285 0
1.626e-05 0.00075015 0
1.626e-05 0.00075015 0
1.70333e-05 0.00078346 0
1.70333e-05 0.00078346 0
1.78335e-05 0.000818287 0
1.78335e-05 0.000818287 0
1.88749e-05 0.000855007 0
1.88749e-05 0.000855007 0
1.98696e-05 0.000893651 0
1.98696e-05 0.000893651 0
2.13364e-05 0.000934848 0
2.13364e-05 0.000934848 0
2.25731e-05 0.000978551 0
2.25731e-05 0.000978551 0
2.47942e-05 0.00102588 0
2.47942e-05 0.00102588 0
2.63126e-05 0.00107657 0
2.63126e-05 0.00107657 0
3.00379e-05 0.00113275 0
3.00379e-05 0.00113275 0
3.18157e-05 0.00119374 0
3.18157e-05 0.00119374 0
3.8864e-05 0.00126374 0
3.8864e-05 0.00126374 0
4.09382e-05 0.0013416 0
4.09382e-05 0.0013416 0
5.6719e-05 0.00143612 0
5.6719e-05 0.00143612 0
6.1285e-05 0.00154824 0
6.1285e-05 0.00154824 0
0.000105841 0.00169518 0
0.000105841 0.00169518 0
0.000130103 0.00189122 0
0.000130103 0.00189122 0
9.88281e-05 0.0011678 0
9.88281e-05 0.0011678 0
-0.000385196 0.000100849 0
-0.000385196 0.000100849 0
-0.000427712 -0.000267965 0
-0.000427712 -0.000267965 0
0.000112018 -0.000379651 0
0.000112018 -0.000379651 0
0.0006057 -0.00025558 0
0.0006057 -0.00025558 0
0.000928737 -1.84553e-05 0
0.000928737 -1.84553e-05 0
0.000715821 9.0228e-05 0
0.000715821 9.0228e-05 0
0.000372236 0.000144208 0
0.000372236 0.000144208 0
-0.000289988 0.000355507 0
-0.000289988 0.000355507 0
-0.00116502 0.000471851 0
-0.00116502 0.000471851 0
-0.00193513 0.000412483 0
-0.00193513 0.000412483 0
-0.00255983 0.000324225 0
-0.00255983 0.000324225 0
-0.00303182 0.000230022 0
-0.00303182 0.000230022 0
-0.00333901 0.00013741 0
-0.00333901 0.00013741 0
-0.00348579 5.07002e-05 0
-0.00348579 5.07002e-05 0
-0.00348121 -2.59983e-05 0
-0.00348121 -2.59983e-05 0
-0.00335126 -8.96e-05 0
-0.00335126 -8.96e-05 0
-0.00311779 -0.000139839 0
-0.00311779 -0.000139839 0
-0.00280277 -0.00017679 0
-0.00280277 -0.00017679 0
-0.00243304 -0.00020159 0
-0.00243304 -0.00020159 0
-0.00202948 -0.000216811 0
-0.00202948 -0.000216811 0
-0.00160996 -0.000224564 0
-0.00160996 -0.000224564 0
-0.00118609 -0.000226124 0
-0.00118609 -0.000226124 0
-0.000767265 -0.000219705 0
-0.000767265 -0.000219705 0
-0.000356417 -0.000203479 0
-0.000356417 -0.000203479 0
-2.20628e-05 -9.92791e-05 0
-2.20628e-05 -9.92791e-05 0
-5.34265e-06 4.61674e-06 0
-5.34265e-06 4.61674e-06 0
-5.39081e-06 9.27473e-06 0
-5.39081e-06 9.27473e-06 0
-5.46108e-06 1.86664e-05 0
-5.46108e-06 1.86664e-05 0
-5.53904e-06 2.82206e-05 0
-5.53904e-06 2.82206e-05 0
-5.67104e-06 3.80075e-05 0
-5.67104e-06 3.80075e-05 0
-5.84257e-06 4.81294e-05 0
-5.84257e-06 4.81294e-05 0
-6.05385e-06 5.86722e-05 0
-6.05385e-06 5.86722e-05 0
-6.30535e-06 6.97239e-05 0
-6.30535e-06 6.97239e-05 0
-6.59805e-06 8.13752e-05 0
-6.59805e-06 8.13752e-05 0
-6.93281e-06 9.37185e-05 0
-6.93281e-06 9.37185e-05 0
-7.31012e-06 0.000106849 0
-7.31012e-06 0.000106849 0
-7.73125e-06 0.000120864 0
-7.73125e-06 0.000120864 0
-8.19638e-06 0.000135861 0
-8.19638e-06 0.000135861 0
-8.70564e-06 0.000151941 0
-8.70564e-06 0.000151941 0
-9.25876e-06 0.000169203 0
-9.25876e-06 0.000169203 0
-9.8542e-06 0.000187743 0
-9.8542e-06 0.000187743 0
-1.04894e-05 0.000207655 0
-1.04894e-05 0.000207655 0
-1.11603e-05 0.00022902 0
-1.11603e-05 0.00022902 0
-1.18595e-05 0.000251916 0
-1.18595e-05 0.000251916 0
-1.25784e-05 0.000276387 0
-1.25784e-05 0.000276387 0
-1.33013e-05 0.000302474 0
-1.33013e-05 0.000302474 0
-1.40155e-05 0.000330153 0
-1.40155e-05 0.000330153 0
-1.46864e-05 0.000359394 0
-1.46864e-05 0.000359394 0
-1.53002e-05 0.000390062 0
-1.53002e-05 0.000390062 0
-1.58092e-05 0.000422011 0
-1.58092e-05 0.000422011 0
-1.61542e-05 0.000454986 0
-1.61542e-05 0.000454986 0
-1.63265e-05 0.000488614 0
-1.63265e-05 0.000488614 0
-1.62544e-05 0.000522509 0
-1.62544e-05 0.000522509 0
-1.5837e-05 0.000556095 0
-1.5837e-05 0.000556095 0
-1.50348e-05 0.000588564 0
-1.50348e-05 0.000588564 0
-1.38419e-05 0.000619151 0
-1.38419e-05 0.000619151 0
-1.2165e-05 0.00064689 0
-1.2165e-05 0.00064689 0
-9.84938e-06 0.000670708 0
-9.84938e-06 0.000670708 0
-6.84135e-06 0.000689181 0
-6.84135e-06 0.000689181 0
-3.17333e-06 0.000701155 0
-3.17333e-06 0.000701155 0
1.27892e-06 0.000705222 0
1.27892e-06 0.000705222 0
6.69909e-06 0.000700271 0
6.69909e-06 0.000700271 0
1.30377e-05 0.000684196 0
1.30377e-05 0.000684196 0
2.03304e-05 0.000656716 0
2.03304e-05 0.000656716 0
2.83071e-05 0.000615353 0
2.83071e-05 0.000615353 0
3.67523e-05 0.000561226 0
3.67523e-05 0.000561226 0
4.54321e-05 0.000491407 0
4.54321e-05 0.000491407 0
5.55562e-05 0.00040956 0
5.55562e-05 0.00040956 0
6.50667e-05 0.000307211 0
6.50667e-05 0.000307211 0
7.64876e-05 0.000196821 0
7.64876e-05 0.000196821 0
8.01885e-05 6.07558e-05 0
8.01885e-05 6.07558e-05 0
4.23728e-05 -5.92092e-05 0
4.23728e-05 -5.92092e-05 0
-9.51739e-05 -0.000136246 0
-9.51739e-05 -0.000136246 0
-0.000193153 -2.94642e-05 0
-0.000193153 -2.94642e-05 0
-3.94498e-05 5.79027e-05 0
-3.94498e-05 5.79027e-05 0
-9.27831e-06 4.26777e-06 0
-9.27831e-06 4.26777e-06 0
-1.71113e-05 3.98266e-06 0
-1.71113e-05 3.98266e-06 0
-2.52034e-05 4.0208e-06 0
-2.52034e-05 4.0208e-06 0
-3.32275e-05 3.91307e-06 0
-3.32275e-05 3.91307e-06 0
-4.08708e-05 3.72409e-06 0
-4.08708e-05 3.72409e-06 0
-4.81204e-05 3.48764e-06 0
-4.81204e-05 3.48764e-06 0
-5.4805e-05 3.20961e-06 0
-5.4805e-05 3.20961e-06 0
-6.09228e-05 2.8916e-06 0
-6.09228e-05 2.8916e-06 0
-6.63345e-05 2.53474e-06 0
-6.63345e-05 2.53474e-06 0
-7.10067e-05 2.14133e-06 0
-7.10067e-05 2.14133e-06 0
-7.48444e-05 1.71285e-06 0
-7.48444e-05 1.71285e-06 0
-7.77951e-05 1.25251e-06 0
-7.77951e-05 1.25251e-06 0
-7.97927e-05 7.63571e-07 0
-7.97927e-05 7.63571e-07 0
-8.07888e-05 2.51405e-07 0
-8.07888e-05 2.51405e-07 0
-8.07405e-05 -2.7768e-07 0
-8.07405e-05 -2.7768e-07 0
-7.96193e-05 -8.18277e-07 0
-7.96193e-05 -8.18277e-07 0
-7.74051e-05 -1.3665e-06 0
-7.74051e-05 -1.3665e-06 0
-7.40855e-05 -1.91891e-06 0
-7.40855e-05 -1.91891e-06 0
-6.96572e-05 -2.47018e-06 0
-6.96572e-05 -2.47018e-06 0
-6.41268e-05 -3.01612e-06 0
-6.41268e-05 -3.01612e-06 0
-5.75102e-05 -3.55181e-06 0
-5.75102e-05 -3.55181e-06 0
-4.9832e-05 -4.07284e-06 0
-4.9832e-05 -4.07284e-06 0
-4.11279e-05 -4.57616e-06 0
-4.11279e-05 -4.57616e-06 0
-3.14409e-05 -5.05615e-06 0
-3.14409e-05 -5.05615e-06 0
-2.08176e-05 -5.50993e-06 0
-2.08176e-05 -5.50993e-06 0
-9.30195e-06 -5.93504e-06 0
-9.30195e-06 -5.93504e-06 0
3.05226e-06 -6.32999e-06 0
3.05226e-06 -6.32999e-06 0
1.61673e-05 -6.69278e-06 0
1.61673e-05 -6.69278e-06 0
2.99679e-05 -7.02064e-06 0
2.99679e-05 -7.02064e-06 0
4.43867e-05 -7.31351e-06 0
4.43867e-05 -7.31351e-06 0
5.93533e-05 -7.57114e-06 0
5.93533e-05 -7.57114e-06 0
7.47976e-05 -7.79373e-06 0
7.47976e-05 -7.79373e-06 0
9.06497e-05 -7.98185e-06 0
9.06497e-05 -7.98185e-06 0
0.000106842 -8.13644e-06 0
0.000106842 -8.13644e-06 0
0.000123307 -8.25871e-06 0
0.000123307 -8.25871e-06 0
0.000139985 -8.35013e-06 0
0.000139985 -8.35013e-06 0
0.000156814 -8.41237e-06 0
0.000156814 -8.41237e-06 0
0.000173739 -8.44722e-06 0
0.000173739 -8.44722e-06 0
0.000190709 -8.45663e-06 0
0.000190709 -8.45663e-06 0
0.000207673 -8.44257e-06 0
0.000207673 -8.44257e-06 0
0.000224588 -8.40708e-06 0
0.000224588 -8.40708e-06 0
0.000241411 -8.35215e-06 0
0.000241411 -8.35215e-06 0
0.000258106 -8.27976e-06 0
0.000258106 -8.27976e-06 0
0.00027464 -8.1918e-06 0
0.00027464 -8.1918e-06 0
0.000290983 -8.0901e-06 0
0.000290983 -8.0901e-06 0
0.00030711 -7.97641e-06 0
0.00030711 -7.97641e-06 0
0.000322997 -7.85235e-06 0
0.000322997 -7.85235e-06 0
0.000338627 -7.71946e-06 0
0.000338627 -7.71946e-06 0
0.000353982 -7.57915e-06 0
0.000353982 -7.57915e-06 0
0.000369049 -7.43275e-06 0
0.000369049 -7.43275e-06 0
0.000383818 -7.28143e-06 0
0.000383818 -7.28143e-06 0
0.000398279 -7.1263e-06 0
0.000398279 -7.1263e-06 0
0.000412426 -6.96833e-06 0
0.000412426 -6.96833e-06 0
0.000426253 -6.80841e-06 0
0.000426253 -6.80841e-06 0
0.000439759 -6.64734e-06 0
0.000439759 -6.64734e-06 0
0.000452941 -6.4858e-06 0
0.000452941 -6.4858e-06 0
0.0004658 -6.32443e-06 0
0.0004658 -6.32443e-06 0
0.000478335 -6.16377e-06 0
0.000478335 -6.16377e-06 0
0.000490549 -6.00428e-06 0
0.000490549 -6.00428e-06 0
0.000502445 -5.84638e-06 0
0.000502445 -5.84638e-06 0
0.000514027 -5.69042e-06 0
0.000514027 -5.69042e-06 0
0.000525297 -5.53669e-06 0
0.000525297 -5.53669e-06 0
0.000536262 -5.38544e-06 0
0.000536262 -5.38544e-06 0
0.000546927 -5.23687e-06 0
0.000546927 -5.23687e-06 0
0.000557296 -5.09116e-06 0
0.000557296 -5.09116e-06 0
0.000567376 -4.94844e-06 0
0.000567376 -4.94844e-06 0
0.000577173 -4.8088e-06 0
0.000577173 -4.8088e-06 0
0.000586693 -4.67233e-06 0
0.000586693 -4.67233e-06 0
0.000595942 -4.53909e-06 0
0.000595942 -4.53909e-06 0
0.000604928 -4.40909e-06 0
0.000604928 -4.40909e-06 0
0.000613656 -4.28235e-06 0
0.000613656 -4.28235e-06 0
0.000622133 -4.15888e-06 0
0.000622133 -4.15888e-06 0
0.000630366 -4.03866e-06 0
0.000630366 -4.03866e-06 0
0.000638361 -3.92166e-06 0
0.000638361 -3.92166e-06 0
0.000646125 -3.80784e-06 0
0.000646125 -3.80784e-06 0
0.000653663 -3.69716e-06 0
0.000653663 -3.69716e-06 0
0.000660983 -3.58957e-06 0
0.000660983 -3.58957e-06 0
0.00066809 -3.485e-06 0
0.00066809 -3.485e-06 0
0.00067499 -3.38341e-06 0
0.00067499 -3.38341e-06 0
0.000681688 -3.28471e-06 0
0.000681688 -3.28471e-06 0
0.000688192 -3.18884e-06 0
0.000688192 -3.18884e-06 0
0.000694506 -3.09574e-06 0
0.000694506 -3.09574e-06 0
0.000700637 -3.00531e-06 0
0.000700637 -3.00531e-06 0
0.000706588 -2.91751e-06 0
0.000706588 -2.91751e-06 0
0.000712366 -2.83221e-06 0
0.000712366 -2.83221e-06 0
0.000717973 -2.74941e-06 0
0.000717973 -2.74941e-06 0
0.000723421 -2.66892e-06 0
0.000723421 -2.66892e-06 0
0.000728703 -2.59085e-06 0
0.000728703 -2.59085e-06 0
0.000733841 -2.51482e-06 0
0.000733841 -2.51482e-06 0
0.000738811 -2.44123e-06 0
0.000738811 -2.44123e-06 0
0.000743663 -2.36926e-06 0
0.000743663 -2.36926e-06 0
0.00074833 -2.29998e-06 0
0.00074833 -2.29998e-06 0
0.000752925 -2.23158e-06 0
0.000752925 -2.23158e-06 0
0.000757285 -2.16663e-06 0
0.000757285 -2.16663e-06 0
0.00076167 -2.10103e-06 0
0.00076167 -2.10103e-06 0
0.000765685 -2.04084e-06 0
0.000765685 -2.04084e-06 0
0.000769949 -1.97664e-06 0
0.000769949 -1.97664e-06 0
0.000773513 -1.92259e-06 0
0.000773513 -1.92259e-06 0
0.977166 -0.0022585 0
0.977166 -0.0022585 0
1.95356 -0.0045151 0
1.95356 -0.0045151 0
