/*--------------------------------*- C++ -*----------------------------------*\
| =========                 |                                                 |
| \\      /  F ield         | OpenFOAM: The Open Source CFD Toolbox           |
|  \\    /   O peration     | Version:  4.1                                   |
|   \\  /    A nd           | Web:      www.OpenFOAM.org                      |
|    \\/     M anipulation  |                                                 |
\*---------------------------------------------------------------------------*/
FoamFile
{
    version     2.0;
    format      ascii;
    class       surfaceScalarField;
    location    "99";
    object      phi;
}
// * * * * * * * * * * * * * * * * * * * * * * * * * * * * * * * * * * * * * //

dimensions      [0 3 -1 0 0 0 0];

internalField   nonuniform List<scalar> 
87025
(
1.89904e-05
1.00957e-06
1.72866e-05
1.70383e-06
1.54778e-05
1.80876e-06
1.37315e-05
1.74636e-06
1.21155e-05
1.61601e-06
1.06807e-05
1.43478e-06
9.44729e-06
1.2334e-06
8.40965e-06
1.03764e-06
7.54971e-06
8.59938e-07
6.84405e-06
7.05656e-07
6.26784e-06
5.76211e-07
5.79719e-06
4.7065e-07
5.41064e-06
3.86551e-07
5.08984e-06
3.20806e-07
4.81965e-06
2.7019e-07
4.58798e-06
2.31669e-07
4.38542e-06
2.02556e-07
4.20483e-06
1.80587e-07
4.04091e-06
1.63921e-07
3.88981e-06
1.51102e-07
3.7488e-06
1.4101e-07
3.616e-06
1.32806e-07
3.49012e-06
1.25878e-07
3.37033e-06
1.19786e-07
3.25611e-06
1.14222e-07
3.14713e-06
1.08976e-07
3.04322e-06
1.03914e-07
2.94425e-06
9.89672e-08
2.85013e-06
9.41246e-08
2.7607e-06
8.94285e-08
2.67573e-06
8.49638e-08
2.59489e-06
8.08413e-08
2.51772e-06
7.71739e-08
2.44367e-06
7.40508e-08
2.37215e-06
7.15156e-08
2.3026e-06
6.95549e-08
2.2345e-06
6.80995e-08
2.16746e-06
6.70358e-08
2.10124e-06
6.62265e-08
2.0357e-06
6.55322e-08
1.97087e-06
6.48317e-08
1.90684e-06
6.40373e-08
1.84373e-06
6.31027e-08
1.78171e-06
6.20234e-08
1.72088e-06
6.08312e-08
1.6613e-06
5.95829e-08
1.60295e-06
5.83488e-08
1.54575e-06
5.72005e-08
1.48954e-06
5.62015e-08
1.43414e-06
5.53997e-08
1.37932e-06
5.48213e-08
1.32486e-06
5.44675e-08
1.27054e-06
5.43156e-08
1.21622e-06
5.43233e-08
1.16178e-06
5.44363e-08
1.10718e-06
5.45977e-08
1.05243e-06
5.47555e-08
9.97559e-07
5.48682e-08
9.42653e-07
5.49061e-08
8.87803e-07
5.48501e-08
8.33114e-07
5.4689e-08
7.78697e-07
5.44167e-08
7.24668e-07
5.40295e-08
6.71143e-07
5.35249e-08
6.18242e-07
5.29006e-08
5.66088e-07
5.21544e-08
5.14804e-07
5.12839e-08
4.64517e-07
5.02867e-08
4.15357e-07
4.91605e-08
3.67454e-07
4.7903e-08
3.20942e-07
4.65123e-08
2.75955e-07
4.49869e-08
2.32629e-07
4.33256e-08
1.91101e-07
4.15278e-08
1.51507e-07
3.95938e-08
1.13983e-07
3.75246e-08
7.86607e-08
3.53222e-08
4.56717e-08
3.2989e-08
1.51442e-08
3.05275e-08
-1.27948e-08
2.79389e-08
-3.80757e-08
2.52809e-08
-6.06018e-08
2.2526e-08
-8.02594e-08
1.96577e-08
-9.69896e-08
1.67301e-08
-1.10737e-07
1.37473e-08
-1.21474e-07
1.07373e-08
-1.29208e-07
7.73436e-09
-1.33973e-07
4.76423e-09
-1.35858e-07
1.88519e-09
-1.35038e-07
-8.19756e-10
-1.31487e-07
-3.55082e-09
-1.25567e-07
-5.92081e-09
-1.17681e-07
-7.88576e-09
-1.08387e-07
-9.29417e-09
-9.83925e-08
-9.99409e-09
-8.82252e-08
-1.01673e-08
-7.70225e-08
-1.12027e-08
-6.05426e-08
-1.648e-08
-3.22597e-08
-2.82829e-08
-3.22597e-08
2.06193e-05
3.90296e-07
2.12418e-05
1.08129e-06
2.15546e-05
1.49601e-06
2.15639e-05
1.73705e-06
2.13112e-05
1.86873e-06
2.08487e-05
1.89724e-06
2.02399e-05
1.84223e-06
1.95422e-05
1.7353e-06
1.88003e-05
1.60183e-06
1.80474e-05
1.45857e-06
1.73069e-05
1.3167e-06
1.6594e-05
1.18354e-06
1.59174e-05
1.06315e-06
1.52812e-05
9.57047e-07
1.46863e-05
8.65104e-07
1.41317e-05
7.86252e-07
1.36153e-05
7.18929e-07
1.31344e-05
6.61454e-07
1.26862e-05
6.12194e-07
1.22676e-05
5.69649e-07
1.18761e-05
5.32511e-07
1.15093e-05
4.99681e-07
1.11649e-05
4.7026e-07
1.08411e-05
4.43532e-07
1.05364e-05
4.18942e-07
1.02493e-05
3.96078e-07
9.97856e-06
3.74663e-07
9.72298e-06
3.54547e-07
9.4814e-06
3.35702e-07
9.25261e-06
3.18213e-07
9.03533e-06
3.02253e-07
8.82813e-06
2.88038e-07
8.62953e-06
2.75775e-07
8.43798e-06
2.65596e-07
8.25199e-06
2.57509e-07
8.07018e-06
2.51364e-07
7.89143e-06
2.46854e-07
7.71492e-06
2.43542e-07
7.54022e-06
2.40924e-07
7.36726e-06
2.38497e-07
7.19625e-06
2.3584e-07
7.02762e-06
2.32668e-07
6.86184e-06
2.28876e-07
6.69934e-06
2.2453e-07
6.54033e-06
2.1984e-07
6.38481e-06
2.15103e-07
6.23252e-06
2.10641e-07
6.08298e-06
2.06741e-07
5.93556e-06
2.03618e-07
5.78957e-06
2.01389e-07
5.64432e-06
2.0007e-07
5.4992e-06
1.99587e-07
5.35372e-06
1.99799e-07
5.20752e-06
2.00523e-07
5.06039e-06
2.01567e-07
4.91223e-06
2.02753e-07
4.76306e-06
2.03933e-07
4.61293e-06
2.04996e-07
4.46196e-06
2.05869e-07
4.31031e-06
2.06505e-07
4.15812e-06
2.06877e-07
4.00557e-06
2.06969e-07
3.85283e-06
2.06767e-07
3.7001e-06
2.0626e-07
3.54756e-06
2.05439e-07
3.39542e-06
2.04291e-07
3.2439e-06
2.02804e-07
3.09322e-06
2.00968e-07
2.94361e-06
1.9877e-07
2.79531e-06
1.96201e-07
2.64857e-06
1.93251e-07
2.50365e-06
1.89912e-07
2.3608e-06
1.86176e-07
2.22028e-06
1.82041e-07
2.08237e-06
1.77504e-07
1.94733e-06
1.72568e-07
1.81542e-06
1.67236e-07
1.68689e-06
1.61518e-07
1.56199e-06
1.55427e-07
1.44094e-06
1.48985e-07
1.324e-06
1.42227e-07
1.21135e-06
1.35176e-07
1.10314e-06
1.2786e-07
9.99539e-07
1.20335e-07
9.00633e-07
1.12654e-07
8.06487e-07
1.04883e-07
7.17119e-07
9.71024e-08
6.32484e-07
8.93986e-08
5.52492e-07
8.18777e-08
4.77016e-07
7.46557e-08
4.05623e-07
6.78422e-08
3.38011e-07
6.16908e-08
2.73671e-07
5.64546e-08
2.11923e-07
5.24537e-08
1.5203e-07
4.98996e-08
9.38044e-08
4.80579e-08
3.96e-08
4.30018e-08
-2.04567e-09
2.51657e-08
-1.58706e-08
-1.4458e-08
-4.81303e-08
2.01347e-05
2.55568e-07
2.05109e-05
7.0509e-07
2.09616e-05
1.04534e-06
2.14113e-05
1.28732e-06
2.18125e-05
1.46759e-06
2.21179e-05
1.59177e-06
2.2303e-05
1.65721e-06
2.23659e-05
1.67241e-06
2.23171e-05
1.65062e-06
2.21723e-05
1.60333e-06
2.19492e-05
1.53981e-06
2.16651e-05
1.46768e-06
2.13354e-05
1.39278e-06
2.09734e-05
1.31908e-06
2.05895e-05
1.24895e-06
2.01923e-05
1.18354e-06
1.97879e-05
1.12324e-06
1.93815e-05
1.06793e-06
1.89765e-05
1.01717e-06
1.85757e-05
9.704e-07
1.81812e-05
9.27013e-07
1.77945e-05
8.86431e-07
1.74166e-05
8.48147e-07
1.70484e-05
8.11742e-07
1.66904e-05
7.76902e-07
1.63431e-05
7.43423e-07
1.60065e-05
7.11217e-07
1.56808e-05
6.80317e-07
1.53656e-05
6.50878e-07
1.50606e-05
6.23164e-07
1.47654e-05
5.97526e-07
1.4479e-05
5.74358e-07
1.42008e-05
5.54035e-07
1.39295e-05
5.36849e-07
1.36641e-05
5.22934e-07
1.34032e-05
5.12222e-07
1.31457e-05
5.04409e-07
1.28903e-05
4.98963e-07
1.2636e-05
4.95161e-07
1.23824e-05
4.92164e-07
1.21291e-05
4.89113e-07
1.18765e-05
4.8524e-07
1.16254e-05
4.79978e-07
1.13769e-05
4.73046e-07
1.11322e-05
4.64506e-07
1.08926e-05
4.54758e-07
1.06587e-05
4.44476e-07
1.0431e-05
4.34494e-07
1.0209e-05
4.2564e-07
9.99177e-06
4.18585e-07
9.77812e-06
4.13718e-07
9.56661e-06
4.11099e-07
9.35591e-06
4.10497e-07
9.14495e-06
4.11482e-07
8.93298e-06
4.13543e-07
8.71953e-06
4.16199e-07
8.5044e-06
4.19066e-07
8.28752e-06
4.21876e-07
8.06892e-06
4.24465e-07
7.84868e-06
4.26743e-07
7.6269e-06
4.2866e-07
7.40368e-06
4.30188e-07
7.17915e-06
4.313e-07
6.95344e-06
4.31972e-07
6.7267e-06
4.32176e-07
6.4991e-06
4.31885e-07
6.27084e-06
4.31072e-07
6.0421e-06
4.29709e-07
5.8131e-06
4.27768e-07
5.58407e-06
4.25225e-07
5.35527e-06
4.22054e-07
5.12695e-06
4.18235e-07
4.89938e-06
4.13749e-07
4.67284e-06
4.08582e-07
4.44762e-06
4.02724e-07
4.22401e-06
3.96171e-07
4.00232e-06
3.88925e-07
3.78285e-06
3.80996e-07
3.56587e-06
3.72404e-07
3.35168e-06
3.63176e-07
3.14055e-06
3.53353e-07
2.93275e-06
3.42983e-07
2.72848e-06
3.32126e-07
2.52796e-06
3.20857e-07
2.33134e-06
3.09268e-07
2.13876e-06
2.97467e-07
1.95028e-06
2.8558e-07
1.76593e-06
2.7375e-07
1.58567e-06
2.62143e-07
1.40937e-06
2.50948e-07
1.23683e-06
2.4039e-07
1.06776e-06
2.30757e-07
9.01816e-07
2.22398e-07
7.38569e-07
2.15701e-07
5.77642e-07
2.10826e-07
4.19262e-07
2.06438e-07
2.66238e-07
1.96026e-07
1.28879e-07
1.62525e-07
3.07486e-08
8.36721e-08
-1.73817e-08
2.00745e-05
1.8106e-07
2.02523e-05
5.2734e-07
2.04853e-05
8.12296e-07
2.0747e-05
1.02566e-06
2.10302e-05
1.1844e-06
2.13206e-05
1.30129e-06
2.15977e-05
1.38014e-06
2.18441e-05
1.42598e-06
2.20484e-05
1.44632e-06
2.22039e-05
1.44789e-06
2.23079e-05
1.43582e-06
2.23612e-05
1.41429e-06
2.23672e-05
1.38683e-06
2.23301e-05
1.35616e-06
2.22549e-05
1.32417e-06
2.21464e-05
1.29207e-06
2.20091e-05
1.26054e-06
2.18471e-05
1.2299e-06
2.16641e-05
1.20019e-06
2.14632e-05
1.17129e-06
2.12472e-05
1.14301e-06
2.10185e-05
1.11511e-06
2.07793e-05
1.08739e-06
2.05313e-05
1.05967e-06
2.02763e-05
1.03188e-06
2.00158e-05
1.00401e-06
1.97508e-05
9.76156e-07
1.94826e-05
9.48535e-07
1.9212e-05
9.21467e-07
1.89398e-05
8.95373e-07
1.86666e-05
8.70755e-07
1.83928e-05
8.48149e-07
1.81187e-05
8.28079e-07
1.78446e-05
8.10989e-07
1.75704e-05
7.97185e-07
1.72958e-05
7.86779e-07
1.70205e-05
7.79658e-07
1.6744e-05
7.75473e-07
1.64655e-05
7.73652e-07
1.61843e-05
7.73436e-07
1.58995e-05
7.73936e-07
1.56105e-05
7.74183e-07
1.53173e-05
7.73197e-07
1.50203e-05
7.70069e-07
1.47207e-05
7.64081e-07
1.44206e-05
7.54857e-07
1.41225e-05
7.4253e-07
1.38292e-05
7.27838e-07
1.35428e-05
7.12073e-07
1.32645e-05
6.96854e-07
1.29944e-05
6.83767e-07
1.27316e-05
6.73988e-07
1.2474e-05
6.68045e-07
1.22197e-05
6.6578e-07
1.19667e-05
6.66523e-07
1.17136e-05
6.69358e-07
1.14592e-05
6.73396e-07
1.12032e-05
6.77941e-07
1.09451e-05
6.82543e-07
1.06849e-05
6.86956e-07
1.04225e-05
6.91063e-07
1.01579e-05
6.94808e-07
9.89101e-06
6.98149e-07
9.62194e-06
7.01044e-07
9.35067e-06
7.03444e-07
9.07726e-06
7.05298e-07
8.80178e-06
7.06555e-07
8.52432e-06
7.07165e-07
8.24501e-06
7.07079e-07
7.96399e-06
7.06251e-07
7.6814e-06
7.04636e-07
7.39745e-06
7.02194e-07
7.11231e-06
6.98888e-07
6.8262e-06
6.94685e-07
6.53937e-06
6.89561e-07
6.25204e-06
6.83498e-07
5.96448e-06
6.76486e-07
5.67695e-06
6.68527e-07
5.38971e-06
6.59634e-07
5.10306e-06
6.49833e-07
4.81725e-06
6.39164e-07
4.53255e-06
6.27684e-07
4.24921e-06
6.15463e-07
3.96747e-06
6.02597e-07
3.68754e-06
5.89196e-07
3.40961e-06
5.75398e-07
3.13383e-06
5.61361e-07
2.86031e-06
5.47269e-07
2.58912e-06
5.33333e-07
2.32027e-06
5.19796e-07
2.05373e-06
5.06934e-07
1.78941e-06
4.95075e-07
1.52721e-06
4.84594e-07
1.26704e-06
4.75877e-07
1.00887e-06
4.68998e-07
7.5316e-07
4.62143e-07
5.02686e-07
4.46499e-07
2.68441e-07
3.96771e-07
8.13156e-08
2.70797e-07
6.39339e-08
2.00411e-05
1.39952e-07
2.01516e-05
4.16857e-07
2.03046e-05
6.59281e-07
2.0477e-05
8.53242e-07
2.06588e-05
1.00259e-06
2.08447e-05
1.11544e-06
2.10283e-05
1.19655e-06
2.1204e-05
1.25025e-06
2.1368e-05
1.28236e-06
2.15172e-05
1.2987e-06
2.16491e-05
1.30388e-06
2.1762e-05
1.30143e-06
2.18547e-05
1.2941e-06
2.19269e-05
1.28399e-06
2.19785e-05
1.27253e-06
2.201e-05
1.2606e-06
2.20218e-05
1.24869e-06
2.20147e-05
1.237e-06
2.19894e-05
1.22552e-06
2.19465e-05
1.21413e-06
2.18869e-05
1.20262e-06
2.18113e-05
1.19078e-06
2.17202e-05
1.17842e-06
2.16145e-05
1.16538e-06
2.14948e-05
1.15157e-06
2.13618e-05
1.137e-06
2.12162e-05
1.12177e-06
2.10587e-05
1.10607e-06
2.08899e-05
1.09022e-06
2.07107e-05
1.07463e-06
2.05216e-05
1.05979e-06
2.03236e-05
1.04622e-06
2.01172e-05
1.03448e-06
1.99031e-05
1.02502e-06
1.96821e-05
1.01826e-06
1.94544e-05
1.01442e-06
1.92205e-05
1.01357e-06
1.89804e-05
1.01559e-06
1.87339e-05
1.02018e-06
1.84804e-05
1.02687e-06
1.82193e-05
1.03509e-06
1.79494e-05
1.04409e-06
1.76696e-05
1.05298e-06
1.7379e-05
1.06063e-06
1.70774e-05
1.06571e-06
1.67655e-05
1.06677e-06
1.64455e-05
1.06256e-06
1.61208e-05
1.05246e-06
1.5796e-05
1.03693e-06
1.54753e-05
1.01755e-06
1.51622e-05
9.96842e-07
1.48586e-05
9.77602e-07
1.45645e-05
9.62182e-07
1.42783e-05
9.51925e-07
1.39978e-05
9.46998e-07
1.37206e-05
9.46623e-07
1.34444e-05
9.49533e-07
1.31679e-05
9.54447e-07
1.28901e-05
9.60358e-07
1.26104e-05
9.6663e-07
1.23286e-05
9.72924e-07
1.20443e-05
9.79081e-07
1.17574e-05
9.85018e-07
1.14678e-05
9.90663e-07
1.11753e-05
9.9594e-07
1.08798e-05
1.00077e-06
1.05813e-05
1.00507e-06
1.02797e-05
1.00877e-06
9.97502e-06
1.01178e-06
9.66722e-06
1.01405e-06
9.35637e-06
1.01549e-06
9.04252e-06
1.01605e-06
8.72575e-06
1.01566e-06
8.40615e-06
1.01428e-06
8.08386e-06
1.01185e-06
7.75902e-06
1.00834e-06
7.43178e-06
1.00373e-06
7.10232e-06
9.97982e-07
6.77085e-06
9.91111e-07
6.43756e-06
9.83123e-07
6.10267e-06
9.7405e-07
5.76642e-06
9.63938e-07
5.42902e-06
9.52857e-07
5.09072e-06
9.40899e-07
4.75174e-06
9.28182e-07
4.41229e-06
9.14848e-07
4.07258e-06
9.01069e-07
3.7328e-06
8.87046e-07
3.39312e-06
8.7301e-07
3.05369e-06
8.59225e-07
2.71464e-06
8.45987e-07
2.37609e-06
8.3363e-07
2.03816e-06
8.2252e-07
1.70104e-06
8.13001e-07
1.36498e-06
8.05055e-07
1.03064e-06
7.96481e-07
7.00803e-07
7.76336e-07
3.87088e-07
7.10486e-07
1.26058e-07
5.31827e-07
1.89992e-07
2.00255e-05
1.14411e-07
2.01005e-05
3.41875e-07
2.02111e-05
5.48745e-07
2.03407e-05
7.23647e-07
2.04779e-05
8.65302e-07
2.0616e-05
9.77354e-07
2.07495e-05
1.06307e-06
2.08744e-05
1.12537e-06
2.09886e-05
1.16811e-06
2.10917e-05
1.19568e-06
2.11835e-05
1.21204e-06
2.12645e-05
1.22041e-06
2.13352e-05
1.2234e-06
2.13961e-05
1.22308e-06
2.14477e-05
1.22096e-06
2.14903e-05
1.21805e-06
2.1524e-05
1.21498e-06
2.15489e-05
1.2121e-06
2.15649e-05
1.20951e-06
2.15718e-05
1.20721e-06
2.15693e-05
1.20508e-06
2.15572e-05
1.20295e-06
2.15349e-05
1.20065e-06
2.15023e-05
1.19805e-06
2.14588e-05
1.19503e-06
2.14042e-05
1.19156e-06
2.13383e-05
1.18767e-06
2.12609e-05
1.18349e-06
2.11719e-05
1.17923e-06
2.10713e-05
1.1752e-06
2.09594e-05
1.17175e-06
2.08363e-05
1.16932e-06
2.07024e-05
1.16834e-06
2.05582e-05
1.16922e-06
2.04042e-05
1.17231e-06
2.02407e-05
1.17789e-06
2.00682e-05
1.18609e-06
1.98868e-05
1.19695e-06
1.96966e-05
1.21038e-06
1.94973e-05
1.22621e-06
1.92881e-05
1.24423e-06
1.90681e-05
1.26416e-06
1.88355e-05
1.28557e-06
1.85885e-05
1.30765e-06
1.83251e-05
1.32902e-06
1.80443e-05
1.3476e-06
1.77461e-05
1.36077e-06
1.74326e-05
1.36602e-06
1.71077e-05
1.36178e-06
1.67771e-05
1.34816e-06
1.64467e-05
1.32728e-06
1.61215e-05
1.30281e-06
1.58047e-05
1.27894e-06
1.54974e-05
1.25926e-06
1.51985e-05
1.24584e-06
1.49061e-05
1.23908e-06
1.46175e-05
1.23805e-06
1.43308e-05
1.2412e-06
1.40442e-05
1.24698e-06
1.37566e-05
1.25421e-06
1.34674e-05
1.26216e-06
1.3176e-05
1.27046e-06
1.28821e-05
1.2789e-06
1.25854e-05
1.28735e-06
1.22856e-05
1.29571e-06
1.19826e-05
1.30385e-06
1.1676e-05
1.31167e-06
1.13657e-05
1.31904e-06
1.10516e-05
1.32588e-06
1.07336e-05
1.33207e-06
1.04115e-05
1.33754e-06
1.00854e-05
1.34218e-06
9.75514e-06
1.34592e-06
9.42073e-06
1.34868e-06
9.08219e-06
1.3504e-06
8.73953e-06
1.351e-06
8.3928e-06
1.35045e-06
8.04208e-06
1.3487e-06
7.68746e-06
1.34574e-06
7.32904e-06
1.34154e-06
6.96697e-06
1.33612e-06
6.60139e-06
1.32952e-06
6.23248e-06
1.32177e-06
5.86041e-06
1.31296e-06
5.4854e-06
1.3032e-06
5.10763e-06
1.29261e-06
4.72735e-06
1.28136e-06
4.34476e-06
1.26963e-06
3.9601e-06
1.25767e-06
3.57361e-06
1.24571e-06
3.18555e-06
1.23405e-06
2.79617e-06
1.22301e-06
2.40578e-06
1.21291e-06
2.01475e-06
1.20403e-06
1.62353e-06
1.19628e-06
1.23292e-06
1.18709e-06
8.45855e-07
1.16341e-06
4.74613e-07
1.08173e-06
1.5979e-07
8.4665e-07
3.49782e-07
2.00179e-05
9.6548e-08
2.0071e-05
2.8878e-07
2.01518e-05
4.6787e-07
2.02501e-05
6.25375e-07
2.0357e-05
7.58385e-07
2.04664e-05
8.67979e-07
2.05733e-05
9.56142e-07
2.06738e-05
1.02489e-06
2.07652e-05
1.07675e-06
2.08461e-05
1.11477e-06
2.09162e-05
1.14194e-06
2.09757e-05
1.16086e-06
2.10254e-05
1.17375e-06
2.1066e-05
1.18244e-06
2.10986e-05
1.18838e-06
2.1124e-05
1.19265e-06
2.1143e-05
1.19602e-06
2.11561e-05
1.19901e-06
2.11637e-05
1.20191e-06
2.1166e-05
1.2049e-06
2.1163e-05
1.20802e-06
2.11547e-05
1.21128e-06
2.11407e-05
1.21462e-06
2.11208e-05
1.218e-06
2.10944e-05
1.2214e-06
2.10612e-05
1.22481e-06
2.10206e-05
1.22827e-06
2.09722e-05
1.2319e-06
2.09155e-05
1.23586e-06
2.08504e-05
1.24037e-06
2.07764e-05
1.24572e-06
2.06935e-05
1.25221e-06
2.06017e-05
1.26017e-06
2.0501e-05
1.26993e-06
2.03915e-05
1.28178e-06
2.02734e-05
1.29594e-06
2.01469e-05
1.31258e-06
2.00121e-05
1.33179e-06
1.98689e-05
1.3536e-06
1.9717e-05
1.37806e-06
1.9556e-05
1.40529e-06
1.93847e-05
1.43546e-06
1.92015e-05
1.46875e-06
1.90042e-05
1.50499e-06
1.87899e-05
1.54326e-06
1.85561e-05
1.58143e-06
1.83008e-05
1.61611e-06
1.80237e-05
1.64308e-06
1.7727e-05
1.65847e-06
1.74151e-05
1.66004e-06
1.70941e-05
1.64827e-06
1.67705e-05
1.62644e-06
1.64497e-05
1.59973e-06
1.61353e-05
1.57368e-06
1.58285e-05
1.55263e-06
1.55287e-05
1.53886e-06
1.52342e-05
1.53254e-06
1.4943e-05
1.53246e-06
1.46531e-05
1.53685e-06
1.43632e-05
1.54411e-06
1.40723e-05
1.55309e-06
1.37796e-05
1.5631e-06
1.34848e-05
1.57377e-06
1.31872e-05
1.58488e-06
1.28867e-05
1.59626e-06
1.25828e-05
1.60776e-06
1.22752e-05
1.61922e-06
1.19638e-05
1.6305e-06
1.16482e-05
1.64147e-06
1.13282e-05
1.652e-06
1.10038e-05
1.66197e-06
1.06747e-05
1.67128e-06
1.03408e-05
1.67983e-06
1.0002e-05
1.68751e-06
9.65813e-06
1.69423e-06
9.30922e-06
1.69992e-06
8.95517e-06
1.7045e-06
8.59596e-06
1.70791e-06
8.23159e-06
1.71011e-06
7.86207e-06
1.71106e-06
7.48745e-06
1.71074e-06
7.10779e-06
1.70917e-06
6.72319e-06
1.70637e-06
6.33377e-06
1.70238e-06
5.93968e-06
1.6973e-06
5.54107e-06
1.69122e-06
5.13815e-06
1.68428e-06
4.73114e-06
1.67664e-06
4.32029e-06
1.66852e-06
3.90587e-06
1.66013e-06
3.48821e-06
1.65172e-06
3.06765e-06
1.64357e-06
2.64459e-06
1.63596e-06
2.21952e-06
1.62911e-06
1.79298e-06
1.62282e-06
1.3659e-06
1.61417e-06
9.41398e-07
1.58791e-06
5.32429e-07
1.4907e-06
1.82347e-07
1.19673e-06
5.32129e-07
2.0013e-05
8.35959e-08
2.00515e-05
2.50212e-07
2.01115e-05
4.07887e-07
2.01864e-05
5.50457e-07
2.02699e-05
6.74876e-07
2.0357e-05
7.80938e-07
2.04435e-05
8.69644e-07
2.0526e-05
9.42328e-07
2.06021e-05
1.0007e-06
2.067e-05
1.04687e-06
2.07289e-05
1.08304e-06
2.07785e-05
1.11127e-06
2.08189e-05
1.13333e-06
2.08505e-05
1.15078e-06
2.0874e-05
1.16488e-06
2.089e-05
1.17664e-06
2.08992e-05
1.18683e-06
2.09022e-05
1.19601e-06
2.08996e-05
1.20458e-06
2.08917e-05
1.21281e-06
2.08788e-05
1.22087e-06
2.08612e-05
1.22888e-06
2.08389e-05
1.23691e-06
2.08119e-05
1.24502e-06
2.078e-05
1.25325e-06
2.07432e-05
1.26168e-06
2.0701e-05
1.27042e-06
2.06533e-05
1.27958e-06
2.05998e-05
1.28935e-06
2.05403e-05
1.29993e-06
2.04744e-05
1.31156e-06
2.04022e-05
1.32449e-06
2.03233e-05
1.33901e-06
2.02379e-05
1.35537e-06
2.01458e-05
1.37382e-06
2.00472e-05
1.39455e-06
1.99421e-05
1.41774e-06
1.98304e-05
1.44348e-06
1.97121e-05
1.47191e-06
1.9587e-05
1.50319e-06
1.94545e-05
1.53769e-06
1.9314e-05
1.57601e-06
1.91639e-05
1.61887e-06
1.9002e-05
1.66684e-06
1.88256e-05
1.71967e-06
1.86314e-05
1.77562e-06
1.84165e-05
1.83107e-06
1.81788e-05
1.88071e-06
1.79186e-05
1.91871e-06
1.76382e-05
1.94047e-06
1.73422e-05
1.94426e-06
1.70365e-05
1.93208e-06
1.67272e-05
1.90908e-06
1.64189e-05
1.88195e-06
1.61147e-05
1.8569e-06
1.58154e-05
1.83814e-06
1.55206e-05
1.82732e-06
1.5229e-05
1.82403e-06
1.49392e-05
1.82672e-06
1.46497e-05
1.83361e-06
1.43595e-05
1.84327e-06
1.40678e-05
1.85474e-06
1.37741e-05
1.86747e-06
1.34779e-05
1.88111e-06
1.31787e-05
1.89545e-06
1.28762e-05
1.91027e-06
1.257e-05
1.9254e-06
1.22599e-05
1.94064e-06
1.19455e-05
1.95585e-06
1.16266e-05
1.97087e-06
1.13031e-05
1.98556e-06
1.09745e-05
1.9998e-06
1.06409e-05
2.01347e-06
1.0302e-05
2.02644e-06
9.95758e-06
2.03862e-06
9.60761e-06
2.04989e-06
9.25193e-06
2.06018e-06
8.89044e-06
2.06939e-06
8.52308e-06
2.07747e-06
8.14979e-06
2.08435e-06
7.77053e-06
2.09e-06
7.38531e-06
2.09439e-06
6.99415e-06
2.09753e-06
6.5971e-06
2.09943e-06
6.19426e-06
2.10014e-06
5.78574e-06
2.09973e-06
5.37171e-06
2.09831e-06
4.95235e-06
2.096e-06
4.52791e-06
2.09296e-06
4.09867e-06
2.08937e-06
3.66495e-06
2.08543e-06
3.22715e-06
2.08137e-06
2.78571e-06
2.0774e-06
2.34113e-06
2.07368e-06
1.89403e-06
2.06992e-06
1.44539e-06
2.0628e-06
9.98537e-07
2.03476e-06
5.6698e-07
1.92225e-06
1.95897e-07
1.56782e-06
7.28026e-07
2.00096e-05
7.39916e-08
2.00383e-05
2.21523e-07
2.00835e-05
3.62654e-07
2.01411e-05
4.92861e-07
2.02065e-05
6.09472e-07
2.02757e-05
7.11729e-07
2.03454e-05
7.99956e-07
2.04128e-05
8.74946e-07
2.04757e-05
9.37836e-07
2.05325e-05
9.90091e-07
2.05822e-05
1.03334e-06
2.06243e-05
1.06917e-06
2.06586e-05
1.09903e-06
2.06851e-05
1.12421e-06
2.07042e-05
1.14578e-06
2.07162e-05
1.16467e-06
2.07214e-05
1.18158e-06
2.07204e-05
1.19708e-06
2.07134e-05
1.2116e-06
2.07007e-05
1.22544e-06
2.06828e-05
1.23884e-06
2.06597e-05
1.25198e-06
2.06316e-05
1.26499e-06
2.05986e-05
1.27799e-06
2.05608e-05
1.29109e-06
2.0518e-05
1.30441e-06
2.04704e-05
1.31808e-06
2.04177e-05
1.33226e-06
2.03599e-05
1.34714e-06
2.02969e-05
1.3629e-06
2.02287e-05
1.37978e-06
2.01552e-05
1.39802e-06
2.00763e-05
1.41786e-06
1.99922e-05
1.43953e-06
1.99027e-05
1.46325e-06
1.98081e-05
1.48922e-06
1.97082e-05
1.51758e-06
1.96032e-05
1.54849e-06
1.9493e-05
1.58209e-06
1.93775e-05
1.61869e-06
1.92564e-05
1.65884e-06
1.91289e-05
1.70345e-06
1.8994e-05
1.75377e-06
1.88499e-05
1.81097e-06
1.86941e-05
1.87548e-06
1.85236e-05
1.94609e-06
1.83354e-05
2.01925e-06
1.8127e-05
2.0891e-06
1.78972e-05
2.1485e-06
1.76468e-05
2.19092e-06
1.73784e-05
2.21261e-06
1.70966e-05
2.21397e-06
1.68062e-05
2.19947e-06
1.6512e-05
2.17615e-06
1.62175e-05
2.1514e-06
1.59247e-05
2.13094e-06
1.56341e-05
2.11783e-06
1.53455e-05
2.11263e-06
1.5058e-05
2.11428e-06
1.47705e-05
2.12111e-06
1.44822e-05
2.13158e-06
1.41923e-05
2.14458e-06
1.39004e-05
2.1594e-06
1.36059e-05
2.17563e-06
1.33084e-05
2.19295e-06
1.30075e-05
2.21114e-06
1.27029e-05
2.22997e-06
1.23944e-05
2.24922e-06
1.20815e-05
2.26873e-06
1.1764e-05
2.28832e-06
1.14417e-05
2.30783e-06
1.11144e-05
2.32712e-06
1.07818e-05
2.34606e-06
1.04438e-05
2.3645e-06
1.01001e-05
2.38232e-06
9.75054e-06
2.39942e-06
9.39503e-06
2.41569e-06
9.03341e-06
2.43102e-06
8.66556e-06
2.44532e-06
8.29138e-06
2.45853e-06
7.9108e-06
2.47058e-06
7.52377e-06
2.48142e-06
7.13028e-06
2.49102e-06
6.73033e-06
2.49938e-06
6.32396e-06
2.5065e-06
5.91127e-06
2.51243e-06
5.49237e-06
2.51721e-06
5.06743e-06
2.52094e-06
4.63666e-06
2.52373e-06
4.20034e-06
2.52569e-06
3.75878e-06
2.52699e-06
3.31238e-06
2.52778e-06
2.86157e-06
2.52821e-06
2.40687e-06
2.52838e-06
1.94889e-06
2.5279e-06
1.48866e-06
2.52303e-06
1.02963e-06
2.4938e-06
5.85731e-07
2.36615e-06
2.03253e-07
1.95029e-06
9.3128e-07
2.00073e-05
6.67312e-08
2.0029e-05
1.99797e-07
2.00635e-05
3.28105e-07
2.01081e-05
4.48286e-07
2.01595e-05
5.58127e-07
2.02145e-05
6.56696e-07
2.02705e-05
7.4392e-07
2.03253e-05
8.20198e-07
2.03768e-05
8.86262e-07
2.04238e-05
9.43123e-07
2.04652e-05
9.91967e-07
2.05003e-05
1.03401e-06
2.0529e-05
1.07042e-06
2.05509e-05
1.10225e-06
2.05663e-05
1.13042e-06
2.05752e-05
1.15575e-06
2.05779e-05
1.1789e-06
2.05746e-05
1.20039e-06
2.05655e-05
1.22067e-06
2.05509e-05
1.24006e-06
2.05309e-05
1.25884e-06
2.05056e-05
1.27721e-06
2.04753e-05
1.29535e-06
2.04399e-05
1.31341e-06
2.03994e-05
1.33154e-06
2.0354e-05
1.34988e-06
2.03035e-05
1.36857e-06
2.02479e-05
1.38779e-06
2.01874e-05
1.40771e-06
2.01217e-05
1.42854e-06
2.0051e-05
1.45048e-06
1.99753e-05
1.47376e-06
1.98946e-05
1.49858e-06
1.98089e-05
1.52518e-06
1.97184e-05
1.55375e-06
1.96232e-05
1.58447e-06
1.95232e-05
1.61752e-06
1.94187e-05
1.65303e-06
1.93096e-05
1.69121e-06
1.91958e-05
1.73245e-06
1.90772e-05
1.77747e-06
1.89532e-05
1.82748e-06
1.88228e-05
1.88412e-06
1.86847e-05
1.94906e-06
1.85369e-05
2.02328e-06
1.8377e-05
2.10598e-06
1.82025e-05
2.1938e-06
1.8011e-05
2.28059e-06
1.78011e-05
2.3584e-06
1.75726e-05
2.41942e-06
1.73268e-05
2.45835e-06
1.70666e-05
2.47418e-06
1.67956e-05
2.4705e-06
1.65175e-05
2.45421e-06
1.62357e-05
2.43321e-06
1.59524e-05
2.41423e-06
1.56689e-05
2.40138e-06
1.53854e-05
2.39613e-06
1.51017e-05
2.39799e-06
1.48172e-05
2.40556e-06
1.45314e-05
2.41736e-06
1.42438e-05
2.43224e-06
1.39538e-05
2.44943e-06
1.3661e-05
2.46843e-06
1.3365e-05
2.48892e-06
1.30655e-05
2.51061e-06
1.27622e-05
2.53325e-06
1.24548e-05
2.55663e-06
1.2143e-05
2.58054e-06
1.18265e-05
2.60479e-06
1.15052e-05
2.62922e-06
1.11786e-05
2.65365e-06
1.08467e-05
2.67795e-06
1.05093e-05
2.70196e-06
1.01661e-05
2.72555e-06
9.81689e-06
2.7486e-06
9.46161e-06
2.77097e-06
9.10006e-06
2.79256e-06
8.73212e-06
2.81326e-06
8.35768e-06
2.83298e-06
7.97664e-06
2.85162e-06
7.58893e-06
2.86913e-06
7.19451e-06
2.88544e-06
6.79338e-06
2.90051e-06
6.38555e-06
2.91433e-06
5.97108e-06
2.92689e-06
5.55009e-06
2.9382e-06
5.12271e-06
2.94832e-06
4.68915e-06
2.95729e-06
4.24965e-06
2.96519e-06
3.80454e-06
2.97211e-06
3.35417e-06
2.97815e-06
2.89899e-06
2.98339e-06
2.43948e-06
2.98788e-06
1.97625e-06
2.99113e-06
1.51033e-06
2.98895e-06
1.04524e-06
2.95889e-06
5.95158e-07
2.81623e-06
2.06963e-07
2.33849e-06
1.13824e-06
2.00056e-05
6.11722e-08
2.00222e-05
1.8315e-07
2.00488e-05
3.01479e-07
2.00835e-05
4.13609e-07
2.01239e-05
5.17741e-07
2.01676e-05
6.12953e-07
2.02126e-05
6.98965e-07
2.02569e-05
7.75915e-07
2.02989e-05
8.44249e-07
2.03374e-05
9.04655e-07
2.03713e-05
9.57987e-07
2.04002e-05
1.00517e-06
2.04235e-05
1.04712e-06
2.0441e-05
1.0847e-06
2.04527e-05
1.11871e-06
2.04587e-05
1.14983e-06
2.04589e-05
1.17867e-06
2.04535e-05
1.20574e-06
2.04428e-05
1.23144e-06
2.04267e-05
1.25614e-06
2.04054e-05
1.2801e-06
2.03791e-05
1.30357e-06
2.03477e-05
1.32674e-06
2.03113e-05
1.3498e-06
2.02699e-05
1.3729e-06
2.02236e-05
1.39621e-06
2.01722e-05
1.41989e-06
2.01159e-05
1.44411e-06
2.00546e-05
1.46904e-06
1.99883e-05
1.49487e-06
1.99169e-05
1.52181e-06
1.98407e-05
1.55004e-06
1.97595e-05
1.57978e-06
1.96734e-05
1.61122e-06
1.95826e-05
1.64455e-06
1.94871e-05
1.67996e-06
1.93871e-05
1.71759e-06
1.92825e-05
1.75761e-06
1.91734e-05
1.80026e-06
1.90598e-05
1.84602e-06
1.89416e-05
1.89576e-06
1.88181e-05
1.95095e-06
1.86886e-05
2.01357e-06
1.8552e-05
2.08572e-06
1.84065e-05
2.16874e-06
1.82504e-05
2.26213e-06
1.80816e-05
2.36258e-06
1.78984e-05
2.46375e-06
1.76997e-05
2.55716e-06
1.74849e-05
2.63416e-06
1.72549e-05
2.68844e-06
1.70111e-05
2.71796e-06
1.6756e-05
2.72555e-06
1.64925e-05
2.71776e-06
1.6223e-05
2.70267e-06
1.59498e-05
2.68749e-06
1.56741e-05
2.67708e-06
1.53966e-05
2.67358e-06
1.51176e-05
2.67701e-06
1.48369e-05
2.68631e-06
1.45541e-05
2.70016e-06
1.42689e-05
2.71744e-06
1.39809e-05
2.73739e-06
1.36898e-05
2.7595e-06
1.33953e-05
2.78341e-06
1.30971e-05
2.80883e-06
1.27949e-05
2.83549e-06
1.24883e-05
2.86316e-06
1.21773e-05
2.89162e-06
1.18614e-05
2.92067e-06
1.15405e-05
2.95013e-06
1.12143e-05
2.97983e-06
1.08826e-05
3.0096e-06
1.05453e-05
3.03929e-06
1.02021e-05
3.06875e-06
9.85286e-06
3.09784e-06
9.4974e-06
3.12643e-06
9.13557e-06
3.15438e-06
8.76726e-06
3.18158e-06
8.39234e-06
3.2079e-06
8.01072e-06
3.23324e-06
7.62233e-06
3.25752e-06
7.22713e-06
3.28064e-06
6.8251e-06
3.30254e-06
6.41627e-06
3.32316e-06
6.0007e-06
3.34246e-06
5.57847e-06
3.36043e-06
5.14974e-06
3.37705e-06
4.7147e-06
3.39233e-06
4.27359e-06
3.4063e-06
3.82671e-06
3.41898e-06
3.37443e-06
3.43042e-06
2.91717e-06
3.44065e-06
2.45541e-06
3.44965e-06
1.98971e-06
3.45682e-06
1.52111e-06
3.45756e-06
1.05313e-06
3.42687e-06
6.00037e-07
3.26932e-06
2.08931e-07
2.72959e-06
1.34717e-06
2.00043e-05
5.68827e-08
2.00171e-05
1.70296e-07
2.00378e-05
2.80839e-07
2.00648e-05
3.86543e-07
2.00966e-05
4.85962e-07
2.01313e-05
5.78251e-07
2.01673e-05
6.63044e-07
2.02028e-05
7.40319e-07
2.02368e-05
8.10321e-07
2.02679e-05
8.73508e-07
2.02954e-05
9.30491e-07
2.03186e-05
9.81967e-07
2.03371e-05
1.02865e-06
2.03505e-05
1.07125e-06
2.03588e-05
1.11043e-06
2.03619e-05
1.14678e-06
2.03597e-05
1.18083e-06
2.03524e-05
1.21307e-06
2.034e-05
1.24387e-06
2.03225e-05
1.27359e-06
2.03001e-05
1.3025e-06
2.02728e-05
1.33087e-06
2.02407e-05
1.3589e-06
2.02037e-05
1.38679e-06
2.01618e-05
1.41472e-06
2.01152e-05
1.44286e-06
2.00637e-05
1.47137e-06
2.00074e-05
1.50044e-06
1.99462e-05
1.53023e-06
1.98801e-05
1.56093e-06
1.98092e-05
1.59273e-06
1.97335e-05
1.6258e-06
1.96529e-05
1.66034e-06
1.95676e-05
1.69654e-06
1.94776e-05
1.73457e-06
1.93829e-05
1.77461e-06
1.92837e-05
1.81681e-06
1.918e-05
1.86134e-06
1.90718e-05
1.90846e-06
1.8959e-05
1.95875e-06
1.88416e-05
2.01323e-06
1.87189e-05
2.07363e-06
1.85902e-05
2.14225e-06
1.84544e-05
2.22153e-06
1.831e-05
2.31309e-06
1.81556e-05
2.41659e-06
1.79895e-05
2.52867e-06
1.78105e-05
2.64272e-06
1.76179e-05
2.74982e-06
1.74113e-05
2.84073e-06
1.71912e-05
2.90848e-06
1.69588e-05
2.95039e-06
1.67156e-05
2.96874e-06
1.64636e-05
2.9698e-06
1.62046e-05
2.96162e-06
1.59405e-05
2.95167e-06
1.56723e-05
2.94521e-06
1.5401e-05
2.94486e-06
1.5127e-05
2.95106e-06
1.48503e-05
2.96304e-06
1.45707e-05
2.97967e-06
1.42882e-05
2.99994e-06
1.40025e-05
3.02312e-06
1.37133e-05
3.04871e-06
1.34204e-05
3.07636e-06
1.31234e-05
3.10577e-06
1.28222e-05
3.13668e-06
1.25166e-05
3.16885e-06
1.22061e-05
3.20205e-06
1.18907e-05
3.23608e-06
1.15701e-05
3.27074e-06
1.12441e-05
3.30584e-06
1.09125e-05
3.34124e-06
1.0575e-05
3.37674e-06
1.02316e-05
3.4122e-06
9.88194e-06
3.44746e-06
9.526e-06
3.48238e-06
9.16358e-06
3.5168e-06
8.79458e-06
3.55058e-06
8.41887e-06
3.58361e-06
8.03637e-06
3.61574e-06
7.64703e-06
3.64686e-06
7.2508e-06
3.67686e-06
6.84769e-06
3.70565e-06
6.43773e-06
3.73313e-06
6.02097e-06
3.75922e-06
5.59752e-06
3.78387e-06
5.16754e-06
3.80703e-06
4.73123e-06
3.82864e-06
4.28883e-06
3.8487e-06
3.84065e-06
3.86716e-06
3.38705e-06
3.88403e-06
2.92843e-06
3.89927e-06
2.46527e-06
3.91281e-06
1.99812e-06
3.92397e-06
1.52799e-06
3.92769e-06
1.05838e-06
3.89647e-06
6.03476e-07
3.72423e-06
2.10397e-07
3.12267e-06
1.55757e-06
2.00033e-05
5.35599e-08
2.00133e-05
1.60334e-07
2.00293e-05
2.64794e-07
2.00505e-05
3.65405e-07
2.00754e-05
4.60996e-07
2.01029e-05
5.5083e-07
2.01314e-05
6.34518e-07
2.01598e-05
7.11947e-07
2.01868e-05
7.83227e-07
2.02117e-05
8.48653e-07
2.02335e-05
9.08661e-07
2.02517e-05
9.63771e-07
2.02658e-05
1.01454e-06
2.02755e-05
1.06154e-06
2.02807e-05
1.10533e-06
2.0281e-05
1.1464e-06
2.02766e-05
1.18524e-06
2.02674e-05
1.22226e-06
2.02535e-05
1.25784e-06
2.02347e-05
1.29231e-06
2.02113e-05
1.32594e-06
2.01832e-05
1.359e-06
2.01504e-05
1.3917e-06
2.01129e-05
1.42425e-06
2.00708e-05
1.45683e-06
2.0024e-05
1.48963e-06
1.99726e-05
1.52282e-06
1.99165e-05
1.55657e-06
1.98556e-05
1.59105e-06