# vtk DataFile Version 2.0
sampleSurface
ASCII
DATASET POLYDATA
POINTS 652 double
0 0 0
0.02 0 0
0.02 0 0.1
0 0 0.1
0.04 0 0
0.04 0 0.1
0.06 0 0
0.06 0 0.1
0.08 0 0
0.08 0 0.1
0.1 0 0
0.1 0 0.1
0.12 0 0
0.12 0 0.1
0.14 0 0
0.14 0 0.1
0.16 0 0
0.16 0 0.1
0.18 0 0
0.18 0 0.1
0.2 0 0
0.2 0 0.1
0.22 0 0
0.22 0 0.1
0.24 0 0
0.24 0 0.1
0.26 0 0
0.26 0 0.1
0.28 0 0
0.28 0 0.1
0.3 0 0
0.3 0 0.1
0.32 0 0
0.32 0 0.1
0.34 0 0
0.34 0 0.1
0.36 0 0
0.36 0 0.1
0.38 0 0
0.38 0 0.1
0.4 0 0
0.4 0 0.1
0.42 0 0
0.42 0 0.1
0.44 0 0
0.44 0 0.1
0.46 0 0
0.46 0 0.1
0.48 0 0
0.48 0 0.1
0.5 0 0
0.5 0 0.1
0.52 0 0
0.52 0 0.1
0.54 0 0
0.54 0 0.1
0.56 0 0
0.56 0 0.1
0.58 0 0
0.58 0 0.1
0.6 0 0
0.6 0 0.1
0.62 0 0
0.62 0 0.1
0.64 0 0
0.64 0 0.1
0.66 0 0
0.66 0 0.1
0.68 0 0
0.68 0 0.1
0.7 0 0
0.7 0 0.1
0.72 0 0
0.72 0 0.1
0.74 0 0
0.74 0 0.1
0.76 0 0
0.76 0 0.1
0.78 0 0
0.78 0 0.1
0.8 0 0
0.8 0 0.1
0.82 0 0
0.82 0 0.1
0.84 0 0
0.84 0 0.1
0.86 0 0
0.86 0 0.1
0.88 0 0
0.88 0 0.1
0.9 0 0
0.9 0 0.1
0.92 0 0
0.92 0 0.1
0.94 0 0
0.94 0 0.1
0.96 0 0
0.96 0 0.1
0.98 0 0
0.98 0 0.1
1 0 0
1 0 0.1
1.02 0 0
1.02 0 0.1
1.04 0 0
1.04 0 0.1
1.06 0 0
1.06 0 0.1
1.08 0 0
1.08 0 0.1
1.1 0 0
1.1 0 0.1
1.12 0 0
1.12 0 0.1
1.14 0 0
1.14 0 0.1
1.16 0 0
1.16 0 0.1
1.18 0 0
1.18 0 0.1
1.2 0 0
1.2 0 0.1
1.22 0 0
1.22 0 0.1
1.24 0 0
1.24 0 0.1
1.26 0 0
1.26 0 0.1
1.28 0 0
1.28 0 0.1
1.3 0 0
1.3 0 0.1
1.32 0 0
1.32 0 0.1
1.34 0 0
1.34 0 0.1
1.36 0 0
1.36 0 0.1
1.38 0 0
1.38 0 0.1
1.4 0 0
1.4 0 0.1
1.42 0 0
1.42 0 0.1
1.44 0 0
1.44 0 0.1
1.46 0 0
1.46 0 0.1
1.48 0 0
1.48 0 0.1
1.5 0 0
1.5 0 0.1
1.52 0 0
1.52 0 0.1
1.54 0 0
1.54 0 0.1
1.56 0 0
1.56 0 0.1
1.58 0 0
1.58 0 0.1
1.6 0 0
1.6 0 0.1
1.62 0 0
1.62 0 0.1
1.64 0 0
1.64 0 0.1
1.66 0 0
1.66 0 0.1
1.68 0 0
1.68 0 0.1
1.7 0 0
1.7 0 0.1
1.72 0 0
1.72 0 0.1
1.74 0 0
1.74 0 0.1
1.76 0 0
1.76 0 0.1
1.78 0 0
1.78 0 0.1
1.8 0 0
1.8 0 0.1
1.82 0 0
1.82 0 0.1
1.84 0 0
1.84 0 0.1
1.86 0 0
1.86 0 0.1
1.88 0 0
1.88 0 0.1
1.9 0 0
1.9 0 0.1
1.92 0 0
1.92 0 0.1
1.94 0 0
1.94 0 0.1
1.96 0 0
1.96 0 0.1
1.98 0 0
1.98 0 0.1
2 0 0
2 0 0.1
2 0.02 0
2 0.02 0.1
2 0.04 0
2 0.04 0.1
2 0.06 0
2 0.06 0.1
2 0.08 0
2 0.08 0.1
2 0.1 0
2 0.1 0.1
2 0.12 0
2 0.12 0.1
2 0.14 0
2 0.14 0.1
2 0.16 0
2 0.16 0.1
2 0.18 0
2 0.18 0.1
2 0.2 0
2 0.2 0.1
2 0.22 0
2 0.22 0.1
2 0.24 0
2 0.24 0.1
2 0.26 0
2 0.26 0.1
2 0.28 0
2 0.28 0.1
2 0.3 0
2 0.3 0.1
2 0.32 0
2 0.32 0.1
2 0.34 0
2 0.34 0.1
2 0.36 0
2 0.36 0.1
2 0.38 0
2 0.38 0.1
2 0.4 0
2 0.4 0.1
2 0.42 0
2 0.42 0.1
2 0.44 0
2 0.44 0.1
2 0.46 0
2 0.46 0.1
2 0.48 0
2 0.48 0.1
2 0.5 0
2 0.5 0.1
2 0.52 0
2 0.52 0.1
2 0.54 0
2 0.54 0.1
2 0.56 0
2 0.56 0.1
2 0.58 0
2 0.58 0.1
2 0.6 0
2 0.6 0.1
2 0.62 0
2 0.62 0.1
2 0.64 0
2 0.64 0.1
2 0.66 0
2 0.66 0.1
2 0.68 0
2 0.68 0.1
2 0.7 0
2 0.7 0.1
2 0.72 0
2 0.72 0.1
2 0.74 0
2 0.74 0.1
2 0.76 0
2 0.76 0.1
2 0.78 0
2 0.78 0.1
2 0.8 0
2 0.8 0.1
2 0.82 0
2 0.82 0.1
2 0.84 0
2 0.84 0.1
2 0.86 0
2 0.86 0.1
2 0.88 0
2 0.88 0.1
2 0.9 0
2 0.9 0.1
2 0.92 0
2 0.92 0.1
2 0.94 0
2 0.94 0.1
2 0.96 0
2 0.96 0.1
2 0.98 0
2 0.98 0.1
2 1 0
2 1 0.1
2.02 1 0
2.02 1 0.1
2.04 1 0
2.04 1 0.1
2.06 1 0
2.06 1 0.1
2.08 1 0
2.08 1 0.1
2.1 1 0
2.1 1 0.1
2.12 1 0
2.12 1 0.1
2.14 1 0
2.14 1 0.1
2.16 1 0
2.16 1 0.1
2.18 1 0
2.18 1 0.1
2.2 1 0
2.2 1 0.1
2.22 1 0
2.22 1 0.1
2.24 1 0
2.24 1 0.1
2.26 1 0
2.26 1 0.1
2.28 1 0
2.28 1 0.1
2.3 1 0
2.3 1 0.1
2.32 1 0
2.32 1 0.1
2.34 1 0
2.34 1 0.1
2.36 1 0
2.36 1 0.1
2.38 1 0
2.38 1 0.1
2.4 1 0
2.4 1 0.1
2.42 1 0
2.42 1 0.1
2.44 1 0
2.44 1 0.1
2.46 1 0
2.46 1 0.1
2.48 1 0
2.48 1 0.1
2.5 1 0
2.5 1 0.1
2.5 0 0
2.5 0 0.1
2.5 0.02 0.1
2.5 0.02 0
2.5 0.04 0.1
2.5 0.04 0
2.5 0.06 0.1
2.5 0.06 0
2.5 0.08 0.1
2.5 0.08 0
2.5 0.1 0.1
2.5 0.1 0
2.5 0.12 0.1
2.5 0.12 0
2.5 0.14 0.1
2.5 0.14 0
2.5 0.16 0.1
2.5 0.16 0
2.5 0.18 0.1
2.5 0.18 0
2.5 0.2 0.1
2.5 0.2 0
2.5 0.22 0.1
2.5 0.22 0
2.5 0.24 0.1
2.5 0.24 0
2.5 0.26 0.1
2.5 0.26 0
2.5 0.28 0.1
2.5 0.28 0
2.5 0.3 0.1
2.5 0.3 0
2.5 0.32 0.1
2.5 0.32 0
2.5 0.34 0.1
2.5 0.34 0
2.5 0.36 0.1
2.5 0.36 0
2.5 0.38 0.1
2.5 0.38 0
2.5 0.4 0.1
2.5 0.4 0
2.5 0.42 0.1
2.5 0.42 0
2.5 0.44 0.1
2.5 0.44 0
2.5 0.46 0.1
2.5 0.46 0
2.5 0.48 0.1
2.5 0.48 0
2.5 0.5 0.1
2.5 0.5 0
2.5 0.52 0.1
2.5 0.52 0
2.5 0.54 0.1
2.5 0.54 0
2.5 0.56 0.1
2.5 0.56 0
2.5 0.58 0.1
2.5 0.58 0
2.5 0.6 0.1
2.5 0.6 0
2.5 0.62 0.1
2.5 0.62 0
2.5 0.64 0.1
2.5 0.64 0
2.5 0.66 0.1
2.5 0.66 0
2.5 0.68 0.1
2.5 0.68 0
2.5 0.7 0.1
2.5 0.7 0
2.5 0.72 0.1
2.5 0.72 0
2.5 0.74 0.1
2.5 0.74 0
2.5 0.76 0.1
2.5 0.76 0
2.5 0.78 0.1
2.5 0.78 0
2.5 0.8 0.1
2.5 0.8 0
2.5 0.82 0.1
2.5 0.82 0
2.5 0.84 0.1
2.5 0.84 0
2.5 0.86 0.1
2.5 0.86 0
2.5 0.88 0.1
2.5 0.88 0
2.5 0.9 0.1
2.5 0.9 0
2.5 0.92 0.1
2.5 0.92 0
2.5 0.94 0.1
2.5 0.94 0
2.5 0.96 0.1
2.5 0.96 0
2.5 0.98 0.1
2.5 0.98 0
2.52 0 0
2.52 0 0.1
2.54 0 0
2.54 0 0.1
2.56 0 0
2.56 0 0.1
2.58 0 0
2.58 0 0.1
2.6 0 0
2.6 0 0.1
2.62 0 0
2.62 0 0.1
2.64 0 0
2.64 0 0.1
2.66 0 0
2.66 0 0.1
2.68 0 0
2.68 0 0.1
2.7 0 0
2.7 0 0.1
2.72 0 0
2.72 0 0.1
2.74 0 0
2.74 0 0.1
2.76 0 0
2.76 0 0.1
2.78 0 0
2.78 0 0.1
2.8 0 0
2.8 0 0.1
2.82 0 0
2.82 0 0.1
2.84 0 0
2.84 0 0.1
2.86 0 0
2.86 0 0.1
2.88 0 0
2.88 0 0.1
2.9 0 0
2.9 0 0.1
2.92 0 0
2.92 0 0.1
2.94 0 0
2.94 0 0.1
2.96 0 0
2.96 0 0.1
2.98 0 0
2.98 0 0.1
3 0 0
3 0 0.1
3.02 0 0
3.02 0 0.1
3.04 0 0
3.04 0 0.1
3.06 0 0
3.06 0 0.1
3.08 0 0
3.08 0 0.1
3.1 0 0
3.1 0 0.1
3.12 0 0
3.12 0 0.1
3.14 0 0
3.14 0 0.1
3.16 0 0
3.16 0 0.1
3.18 0 0
3.18 0 0.1
3.2 0 0
3.2 0 0.1
3.22 0 0
3.22 0 0.1
3.24 0 0
3.24 0 0.1
3.26 0 0
3.26 0 0.1
3.28 0 0
3.28 0 0.1
3.3 0 0
3.3 0 0.1
3.32 0 0
3.32 0 0.1
3.34 0 0
3.34 0 0.1
3.36 0 0
3.36 0 0.1
3.38 0 0
3.38 0 0.1
3.4 0 0
3.4 0 0.1
3.42 0 0
3.42 0 0.1
3.44 0 0
3.44 0 0.1
3.46 0 0
3.46 0 0.1
3.48 0 0
3.48 0 0.1
3.5 0 0
3.5 0 0.1
3.52 0 0
3.52 0 0.1
3.54 0 0
3.54 0 0.1
3.56 0 0
3.56 0 0.1
3.58 0 0
3.58 0 0.1
3.6 0 0
3.6 0 0.1
3.62 0 0
3.62 0 0.1
3.64 0 0
3.64 0 0.1
3.66 0 0
3.66 0 0.1
3.68 0 0
3.68 0 0.1
3.7 0 0
3.7 0 0.1
3.72 0 0
3.72 0 0.1
3.74 0 0
3.74 0 0.1
3.76 0 0
3.76 0 0.1
3.78 0 0
3.78 0 0.1
3.8 0 0
3.8 0 0.1
3.82 0 0
3.82 0 0.1
3.84 0 0
3.84 0 0.1
3.86 0 0
3.86 0 0.1
3.88 0 0
3.88 0 0.1
3.9 0 0
3.9 0 0.1
3.92 0 0
3.92 0 0.1
3.94 0 0
3.94 0 0.1
3.96 0 0
3.96 0 0.1
3.98 0 0
3.98 0 0.1
4 0 0
4 0 0.1
4.02 0 0
4.02 0 0.1
4.04 0 0
4.04 0 0.1
4.06 0 0
4.06 0 0.1
4.08 0 0
4.08 0 0.1
4.1 0 0
4.1 0 0.1
4.12 0 0
4.12 0 0.1
4.14 0 0
4.14 0 0.1
4.16 0 0
4.16 0 0.1
4.18 0 0
4.18 0 0.1
4.2 0 0
4.2 0 0.1
4.22 0 0
4.22 0 0.1
4.24 0 0
4.24 0 0.1
4.26 0 0
4.26 0 0.1
4.28 0 0
4.28 0 0.1
4.3 0 0
4.3 0 0.1
4.32 0 0
4.32 0 0.1
4.34 0 0
4.34 0 0.1
4.36 0 0
4.36 0 0.1
4.38 0 0
4.38 0 0.1
4.4 0 0
4.4 0 0.1
4.42 0 0
4.42 0 0.1
4.44 0 0
4.44 0 0.1
4.46 0 0
4.46 0 0.1
4.48 0 0
4.48 0 0.1
4.5 0 0
4.5 0 0.1

POLYGONS 325 1625
4 0 1 2 3
4 1 4 5 2
4 4 6 7 5
4 6 8 9 7
4 8 10 11 9
4 10 12 13 11
4 12 14 15 13
4 14 16 17 15
4 16 18 19 17
4 18 20 21 19
4 20 22 23 21
4 22 24 25 23
4 24 26 27 25
4 26 28 29 27
4 28 30 31 29
4 30 32 33 31
4 32 34 35 33
4 34 36 37 35
4 36 38 39 37
4 38 40 41 39
4 40 42 43 41
4 42 44 45 43
4 44 46 47 45
4 46 48 49 47
4 48 50 51 49
4 50 52 53 51
4 52 54 55 53
4 54 56 57 55
4 56 58 59 57
4 58 60 61 59
4 60 62 63 61
4 62 64 65 63
4 64 66 67 65
4 66 68 69 67
4 68 70 71 69
4 70 72 73 71
4 72 74 75 73
4 74 76 77 75
4 76 78 79 77
4 78 80 81 79
4 80 82 83 81
4 82 84 85 83
4 84 86 87 85
4 86 88 89 87
4 88 90 91 89
4 90 92 93 91
4 92 94 95 93
4 94 96 97 95
4 96 98 99 97
4 98 100 101 99
4 100 102 103 101
4 102 104 105 103
4 104 106 107 105
4 106 108 109 107
4 108 110 111 109
4 110 112 113 111
4 112 114 115 113
4 114 116 117 115
4 116 118 119 117
4 118 120 121 119
4 120 122 123 121
4 122 124 125 123
4 124 126 127 125
4 126 128 129 127
4 128 130 131 129
4 130 132 133 131
4 132 134 135 133
4 134 136 137 135
4 136 138 139 137
4 138 140 141 139
4 140 142 143 141
4 142 144 145 143
4 144 146 147 145
4 146 148 149 147
4 148 150 151 149
4 150 152 153 151
4 152 154 155 153
4 154 156 157 155
4 156 158 159 157
4 158 160 161 159
4 160 162 163 161
4 162 164 165 163
4 164 166 167 165
4 166 168 169 167
4 168 170 171 169
4 170 172 173 171
4 172 174 175 173
4 174 176 177 175
4 176 178 179 177
4 178 180 181 179
4 180 182 183 181
4 182 184 185 183
4 184 186 187 185
4 186 188 189 187
4 188 190 191 189
4 190 192 193 191
4 192 194 195 193
4 194 196 197 195
4 196 198 199 197
4 198 200 201 199
4 200 202 203 201
4 202 204 205 203
4 204 206 207 205
4 206 208 209 207
4 208 210 211 209
4 210 212 213 211
4 212 214 215 213
4 214 216 217 215
4 216 218 219 217
4 218 220 221 219
4 220 222 223 221
4 222 224 225 223
4 224 226 227 225
4 226 228 229 227
4 228 230 231 229
4 230 232 233 231
4 232 234 235 233
4 234 236 237 235
4 236 238 239 237
4 238 240 241 239
4 240 242 243 241
4 242 244 245 243
4 244 246 247 245
4 246 248 249 247
4 248 250 251 249
4 250 252 253 251
4 252 254 255 253
4 254 256 257 255
4 256 258 259 257
4 258 260 261 259
4 260 262 263 261
4 262 264 265 263
4 264 266 267 265
4 266 268 269 267
4 268 270 271 269
4 270 272 273 271
4 272 274 275 273
4 274 276 277 275
4 276 278 279 277
4 278 280 281 279
4 280 282 283 281
4 282 284 285 283
4 284 286 287 285
4 286 288 289 287
4 288 290 291 289
4 290 292 293 291
4 292 294 295 293
4 294 296 297 295
4 296 298 299 297
4 298 300 301 299
4 300 302 303 301
4 302 304 305 303
4 304 306 307 305
4 306 308 309 307
4 308 310 311 309
4 310 312 313 311
4 312 314 315 313
4 314 316 317 315
4 316 318 319 317
4 318 320 321 319
4 320 322 323 321
4 322 324 325 323
4 324 326 327 325
4 326 328 329 327
4 328 330 331 329
4 330 332 333 331
4 332 334 335 333
4 334 336 337 335
4 336 338 339 337
4 338 340 341 339
4 340 342 343 341
4 342 344 345 343
4 344 346 347 345
4 346 348 349 347
4 348 350 351 349
4 352 353 354 355
4 355 354 356 357
4 357 356 358 359
4 359 358 360 361
4 361 360 362 363
4 363 362 364 365
4 365 364 366 367
4 367 366 368 369
4 369 368 370 371
4 371 370 372 373
4 373 372 374 375
4 375 374 376 377
4 377 376 378 379
4 379 378 380 381
4 381 380 382 383
4 383 382 384 385
4 385 384 386 387
4 387 386 388 389
4 389 388 390 391
4 391 390 392 393
4 393 392 394 395
4 395 394 396 397
4 397 396 398 399
4 399 398 400 401
4 401 400 402 403
4 403 402 404 405
4 405 404 406 407
4 407 406 408 409
4 409 408 410 411
4 411 410 412 413
4 413 412 414 415
4 415 414 416 417
4 417 416 418 419
4 419 418 420 421
4 421 420 422 423
4 423 422 424 425
4 425 424 426 427
4 427 426 428 429
4 429 428 430 431
4 431 430 432 433
4 433 432 434 435
4 435 434 436 437
4 437 436 438 439
4 439 438 440 441
4 441 440 442 443
4 443 442 444 445
4 445 444 446 447
4 447 446 448 449
4 449 448 450 451
4 451 450 351 350
4 352 452 453 353
4 452 454 455 453
4 454 456 457 455
4 456 458 459 457
4 458 460 461 459
4 460 462 463 461
4 462 464 465 463
4 464 466 467 465
4 466 468 469 467
4 468 470 471 469
4 470 472 473 471
4 472 474 475 473
4 474 476 477 475
4 476 478 479 477
4 478 480 481 479
4 480 482 483 481
4 482 484 485 483
4 484 486 487 485
4 486 488 489 487
4 488 490 491 489
4 490 492 493 491
4 492 494 495 493
4 494 496 497 495
4 496 498 499 497
4 498 500 501 499
4 500 502 503 501
4 502 504 505 503
4 504 506 507 505
4 506 508 509 507
4 508 510 511 509
4 510 512 513 511
4 512 514 515 513
4 514 516 517 515
4 516 518 519 517
4 518 520 521 519
4 520 522 523 521
4 522 524 525 523
4 524 526 527 525
4 526 528 529 527
4 528 530 531 529
4 530 532 533 531
4 532 534 535 533
4 534 536 537 535
4 536 538 539 537
4 538 540 541 539
4 540 542 543 541
4 542 544 545 543
4 544 546 547 545
4 546 548 549 547
4 548 550 551 549
4 550 552 553 551
4 552 554 555 553
4 554 556 557 555
4 556 558 559 557
4 558 560 561 559
4 560 562 563 561
4 562 564 565 563
4 564 566 567 565
4 566 568 569 567
4 568 570 571 569
4 570 572 573 571
4 572 574 575 573
4 574 576 577 575
4 576 578 579 577
4 578 580 581 579
4 580 582 583 581
4 582 584 585 583
4 584 586 587 585
4 586 588 589 587
4 588 590 591 589
4 590 592 593 591
4 592 594 595 593
4 594 596 597 595
4 596 598 599 597
4 598 600 601 599
4 600 602 603 601
4 602 604 605 603
4 604 606 607 605
4 606 608 609 607
4 608 610 611 609
4 610 612 613 611
4 612 614 615 613
4 614 616 617 615
4 616 618 619 617
4 618 620 621 619
4 620 622 623 621
4 622 624 625 623
4 624 626 627 625
4 626 628 629 627
4 628 630 631 629
4 630 632 633 631
4 632 634 635 633
4 634 636 637 635
4 636 638 639 637
4 638 640 641 639
4 640 642 643 641
4 642 644 645 643
4 644 646 647 645
4 646 648 649 647
4 648 650 651 649
POINT_DATA 652
FIELD attributes 1
U 3 652 float
2.54386 -0.0278056 0.00997485
1.27243 -0.0139031 0.00498743
1.27243 -0.0139031 0.00498743
2.54386 -0.0278056 0.00997485
0.00100773 4.51505e-08 0
0.00100773 4.51505e-08 0
0.00100554 1.942e-06 0
0.00100554 1.942e-06 0
0.0010021 2.82113e-06 0
0.0010021 2.82113e-06 0
0.000999307 1.25913e-06 0
0.000999307 1.25913e-06 0
0.000998432 -1.86902e-07 0
0.000998432 -1.86902e-07 0
0.000998396 5.23513e-07 0
0.000998396 5.23513e-07 0
0.000997424 2.97405e-06 0
0.000997424 2.97405e-06 0
0.000994985 4.87511e-06 0
0.000994985 4.87511e-06 0
0.000991713 4.41212e-06 0
0.000991713 4.41212e-06 0
0.000988571 1.85616e-06 0
0.000988571 1.85616e-06 0
0.000986272 -8.71104e-07 0
0.000986272 -8.71104e-07 0
0.00098487 -1.87942e-06 0
0.00098487 -1.87942e-06 0
0.000983557 -6.83954e-07 0
0.000983557 -6.83954e-07 0
0.00098115 1.75424e-06 0
0.00098115 1.75424e-06 0
0.000976984 4.03041e-06 0
0.000976984 4.03041e-06 0
0.000971217 5.27372e-06 0
0.000971217 5.27372e-06 0
0.000964423 5.43433e-06 0
0.000964423 5.43433e-06 0
0.000957171 4.96227e-06 0
0.000957171 4.96227e-06 0
0.000949882 4.34787e-06 0
0.000949882 4.34787e-06 0
0.000942756 3.87094e-06 0
0.000942756 3.87094e-06 0
0.000935788 3.59627e-06 0
0.000935788 3.59627e-06 0
0.000928893 3.47807e-06 0
0.000928893 3.47807e-06 0
0.000922005 3.44952e-06 0
0.000922005 3.44952e-06 0
0.000915093 3.46198e-06 0
0.000915093 3.46198e-06 0
0.00090814 3.49006e-06 0
0.00090814 3.49006e-06 0
0.000901132 3.52357e-06 0
0.000901132 3.52357e-06 0
0.000894063 3.55947e-06 0
0.000894063 3.55947e-06 0
0.000886931 3.59724e-06 0
0.000886931 3.59724e-06 0
0.000879731 3.63698e-06 0
0.000879731 3.63698e-06 0
0.000872458 3.67883e-06 0
0.000872458 3.67883e-06 0
0.000865107 3.72287e-06 0
0.000865107 3.72287e-06 0
0.000857675 3.76914e-06 0
0.000857675 3.76914e-06 0
0.000850157 3.81766e-06 0
0.000850157 3.81766e-06 0
0.000842548 3.86845e-06 0
0.000842548 3.86845e-06 0
0.000834844 3.92151e-06 0
0.000834844 3.92151e-06 0
0.000827039 3.97685e-06 0
0.000827039 3.97685e-06 0
0.00081913 4.03446e-06 0
0.00081913 4.03446e-06 0
0.000811111 4.09435e-06 0
0.000811111 4.09435e-06 0
0.000802978 4.15652e-06 0
0.000802978 4.15652e-06 0
0.000794725 4.22095e-06 0
0.000794725 4.22095e-06 0
0.000786349 4.28766e-06 0
0.000786349 4.28766e-06 0
0.000777845 4.35662e-06 0
0.000777845 4.35662e-06 0
0.000769207 4.42783e-06 0
0.000769207 4.42783e-06 0
0.00076043 4.50126e-06 0
0.00076043 4.50126e-06 0
0.000751511 4.5769e-06 0
0.000751511 4.5769e-06 0
0.000742444 4.65472e-06 0
0.000742444 4.65472e-06 0
0.000733224 4.73469e-06 0
0.000733224 4.73469e-06 0
0.000723847 4.81677e-06 0
0.000723847 4.81677e-06 0
0.000714307 4.9009e-06 0
0.000714307 4.9009e-06 0
0.000704601 4.98704e-06 0
0.000704601 4.98704e-06 0
0.000694724 5.07513e-06 0
0.000694724 5.07513e-06 0
0.00068467 5.16509e-06 0
0.00068467 5.16509e-06 0
0.000674437 5.25685e-06 0
0.000674437 5.25685e-06 0
0.000664018 5.35031e-06 0
0.000664018 5.35031e-06 0
0.000653411 5.44537e-06 0
0.000653411 5.44537e-06 0
0.000642611 5.54193e-06 0
0.000642611 5.54193e-06 0
0.000631614 5.63986e-06 0
0.000631614 5.63986e-06 0
0.000620417 5.73903e-06 0
0.000620417 5.73903e-06 0
0.000609017 5.83932e-06 0
0.000609017 5.83932e-06 0
0.000597409 5.94058e-06 0
0.000597409 5.94058e-06 0
0.000585591 6.04268e-06 0
0.000585591 6.04268e-06 0
0.000573561 6.14548e-06 0
0.000573561 6.14548e-06 0
0.000561316 6.24886e-06 0
0.000561316 6.24886e-06 0
0.000548854 6.35267e-06 0
0.000548854 6.35267e-06 0
0.000536174 6.45677e-06 0
0.000536174 6.45677e-06 0
0.000523275 6.56107e-06 0
0.000523275 6.56107e-06 0
0.000510156 6.6653e-06 0
0.000510156 6.6653e-06 0
0.00049682 6.7685e-06 0
0.00049682 6.7685e-06 0
0.000483264 6.86946e-06 0
0.000483264 6.86946e-06 0
0.000469491 6.96741e-06 0
0.000469491 6.96741e-06 0
0.000455501 7.06204e-06 0
0.000455501 7.06204e-06 0
0.000441297 7.1531e-06 0
0.000441297 7.1531e-06 0
0.000426882 7.24031e-06 0
0.000426882 7.24031e-06 0
0.000412258 7.32335e-06 0
0.000412258 7.32335e-06 0
0.000397431 7.40191e-06 0
0.000397431 7.40191e-06 0
0.000382405 7.47571e-06 0
0.000382405 7.47571e-06 0
0.000367186 7.5445e-06 0
0.000367186 7.5445e-06 0
0.00035178 7.60804e-06 0
0.00035178 7.60804e-06 0
0.000336193 7.66614e-06 0
0.000336193 7.66614e-06 0
0.000320433 7.71865e-06 0
0.000320433 7.71865e-06 0
0.000304508 7.7655e-06 0
0.000304508 7.7655e-06 0
0.000288425 7.80666e-06 0
0.000288425 7.80666e-06 0
0.000272195 7.84217e-06 0
0.000272195 7.84217e-06 0
0.000255825 7.87218e-06 0
0.000255825 7.87218e-06 0
0.000239326 7.8969e-06 0
0.000239326 7.8969e-06 0
0.000222706 7.9166e-06 0
0.000222706 7.9166e-06 0
0.000205976 7.93167e-06 0
0.000205976 7.93167e-06 0
0.000189145 7.94253e-06 0
0.000189145 7.94253e-06 0
0.000172224 7.94968e-06 0
0.000172224 7.94968e-06 0
0.000155221 7.95368e-06 0
0.000155221 7.95368e-06 0
0.000138145 7.9551e-06 0
0.000138145 7.9551e-06 0
0.000121007 7.95455e-06 0
0.000121007 7.95455e-06 0
0.000103815 7.95263e-06 0
0.000103815 7.95263e-06 0
8.65768e-05 7.9499e-06 0
8.65768e-05 7.9499e-06 0
6.93017e-05 7.94693e-06 0
6.93017e-05 7.94693e-06 0
5.19972e-05 7.94392e-06 0
5.19972e-05 7.94392e-06 0
3.46718e-05 7.94085e-06 0
3.46718e-05 7.94085e-06 0
1.7333e-05 7.93852e-06 0
1.7333e-05 7.93852e-06 0
8.66087e-06 7.93773e-06 0
8.66087e-06 7.93773e-06 0
9.24519e-06 1.74198e-05 0
9.24519e-06 1.74198e-05 0
9.67554e-06 3.68913e-05 0
9.67554e-06 3.68913e-05 0
9.46381e-06 5.61599e-05 0
9.46381e-06 5.61599e-05 0
9.40901e-06 7.48738e-05 0
9.40901e-06 7.48738e-05 0
9.4315e-06 9.3761e-05 0
9.4315e-06 9.3761e-05 0
9.47571e-06 0.000112698 0
9.47571e-06 0.000112698 0
9.52908e-06 0.00013172 0
9.52908e-06 0.00013172 0
9.59074e-06 0.000150859 0
9.59074e-06 0.000150859 0
9.66131e-06 0.00017013 0
9.66131e-06 0.00017013 0
9.74133e-06 0.000189552 0
9.74133e-06 0.000189552 0
9.83127e-06 0.000209143 0
9.83127e-06 0.000209143 0
9.93164e-06 0.000228924 0
9.93164e-06 0.000228924 0
1.0043e-05 0.000248917 0
1.0043e-05 0.000248917 0
1.01661e-05 0.000269143 0
1.01661e-05 0.000269143 0
1.03016e-05 0.000289628 0
1.03016e-05 0.000289628 0
1.04504e-05 0.000310397 0
1.04504e-05 0.000310397 0
1.06135e-05 0.000331477 0
1.06135e-05 0.000331477 0
1.0792e-05 0.000352897 0
1.0792e-05 0.000352897 0
1.09871e-05 0.000374691 0
1.09871e-05 0.000374691 0
1.12003e-05 0.000396892 0
1.12003e-05 0.000396892 0
1.14333e-05 0.000419538 0
1.14333e-05 0.000419538 0
1.16878e-05 0.00044267 0
1.16878e-05 0.00044267 0
1.19663e-05 0.000466334 0
1.19663e-05 0.000466334 0
1.22707e-05 0.00049058 0
1.22707e-05 0.00049058 0
1.26053e-05 0.000515463 0
1.26053e-05 0.000515463 0
1.29709e-05 0.000541044 0
1.29709e-05 0.000541044 0
1.33746e-05 0.000567391 0
1.33746e-05 0.000567391 0
1.38222e-05 0.000594588 0
1.38222e-05 0.000594588 0
1.43008e-05 0.000622705 0
1.43008e-05 0.000622705 0
1.48745e-05 0.000651881 0
1.48745e-05 0.000651881 0
1.54394e-05 0.000682159 0
1.54394e-05 0.000682159 0
1.61548e-05 0.00071378 0
1.61548e-05 0.00071378 0
1.69051e-05 0.000746764 0
1.69051e-05 0.000746764 0
1.77582e-05 0.000781408 0
1.77582e-05 0.000781408 0
1.87261e-05 0.000817869 0
1.87261e-05 0.000817869 0
1.99133e-05 0.000856453 0
1.99133e-05 0.000856453 0
2.10128e-05 0.000897183 0
2.10128e-05 0.000897183 0
2.29932e-05 0.000941196 0
2.29932e-05 0.000941196 0
2.40489e-05 0.000987843 0
2.40489e-05 0.000987843 0
2.68187e-05 0.00103891 0
2.68187e-05 0.00103891 0
2.87427e-05 0.00109347 0
2.87427e-05 0.00109347 0
3.37283e-05 0.00115571 0
3.37283e-05 0.00115571 0
3.45666e-05 0.00122224 0
3.45666e-05 0.00122224 0
4.46448e-05 0.00130129 0
4.46448e-05 0.00130129 0
4.52408e-05 0.00138785 0
4.52408e-05 0.00138785 0
6.92043e-05 0.00149764 0
6.92043e-05 0.00149764 0
7.14541e-05 0.00162791 0
7.14541e-05 0.00162791 0
0.000138339 0.00180494 0
0.000138339 0.00180494 0
0.000165974 0.00204886 0
0.000165974 0.00204886 0
0.000232478 0.00135715 0
0.000232478 0.00135715 0
-0.00017509 0.000157405 0
-0.00017509 0.000157405 0
-0.000275989 -0.000149339 0
-0.000275989 -0.000149339 0
-0.000454945 0.000203135 0
-0.000454945 0.000203135 0
-0.00145145 0.000496684 0
-0.00145145 0.000496684 0
-0.0023126 0.000464494 0
-0.0023126 0.000464494 0
-0.00304158 0.0003286 0
-0.00304158 0.0003286 0
-0.00342296 0.000157915 0
-0.00342296 0.000157915 0
-0.00351583 -4.81722e-06 0
-0.00351583 -4.81722e-06 0
-0.0033247 -0.000145998 0
-0.0033247 -0.000145998 0
-0.00292811 -0.00024811 0
-0.00292811 -0.00024811 0
-0.0023754 -0.000309162 0
-0.0023754 -0.000309162 0
-0.00174985 -0.000330194 0
-0.00174985 -0.000330194 0
-0.00111803 -0.000317137 0
-0.00111803 -0.000317137 0
-0.000527211 -0.000285543 0
-0.000527211 -0.000285543 0
-6.8257e-06 -0.000243684 0
-6.8257e-06 -0.000243684 0
0.000411083 -0.000197092 0
0.000411083 -0.000197092 0
0.000746437 -0.000155496 0
0.000746437 -0.000155496 0
0.00100839 -0.000119318 0
0.00100839 -0.000119318 0
0.00121666 -9.14682e-05 0
0.00121666 -9.14682e-05 0
0.00138308 -6.52555e-05 0
0.00138308 -6.52555e-05 0
0.00151885 -4.69227e-05 0
0.00151885 -4.69227e-05 0
0.00162429 -2.86564e-05 0
0.00162429 -2.86564e-05 0
0.00171017 -2.8446e-05 0
0.00171017 -2.8446e-05 0
0.0017811 -2.73536e-05 0
0.0017811 -2.73536e-05 0
0.000998403 -2.70571e-05 0
0.000998403 -2.70571e-05 0
3.70833e-06 -4.16338e-06 0
3.70833e-06 -4.16338e-06 0
3.70097e-06 -8.33103e-06 0
3.70097e-06 -8.33103e-06 0
3.67736e-06 -1.66442e-05 0
3.67736e-06 -1.66442e-05 0
3.63594e-06 -2.4897e-05 0
3.63594e-06 -2.4897e-05 0
3.57642e-06 -3.30568e-05 0
3.57642e-06 -3.30568e-05 0
3.49824e-06 -4.10897e-05 0
3.49824e-06 -4.10897e-05 0
3.40036e-06 -4.896e-05 0
3.40036e-06 -4.896e-05 0
3.28136e-06 -5.66293e-05 0
3.28136e-06 -5.66293e-05 0
3.13944e-06 -6.40556e-05 0
3.13944e-06 -6.40556e-05 0
2.97244e-06 -7.11927e-05 0
2.97244e-06 -7.11927e-05 0
2.77777e-06 -7.79894e-05 0
2.77777e-06 -7.79894e-05 0
2.55238e-06 -8.43883e-05 0
2.55238e-06 -8.43883e-05 0
2.2926e-06 -9.03248e-05 0
2.2926e-06 -9.03248e-05 0
1.99413e-06 -9.57253e-05 0
1.99413e-06 -9.57253e-05 0
1.65178e-06 -0.000100506 0
1.65178e-06 -0.000100506 0
1.25926e-06 -0.000104571 0
1.25926e-06 -0.000104571 0
8.08784e-07 -0.000107808 0
8.08784e-07 -0.000107808 0
2.90323e-07 -0.000110088 0
2.90323e-07 -0.000110088 0
-3.09276e-07 -0.000111262 0
-3.09276e-07 -0.000111262 0
-1.00121e-06 -0.000111149 0
-1.00121e-06 -0.000111149 0
-1.79793e-06 -0.000109532 0
-1.79793e-06 -0.000109532 0
-2.71993e-06 -0.000106156 0
-2.71993e-06 -0.000106156 0
-3.7909e-06 -0.000100726 0
-3.7909e-06 -0.000100726 0
-5.03831e-06 -9.28842e-05 0
-5.03831e-06 -9.28842e-05 0
-6.49654e-06 -8.22051e-05 0
-6.49654e-06 -8.22051e-05 0
-8.20785e-06 -6.81821e-05 0
-8.20785e-06 -6.81821e-05 0
-1.02243e-05 -5.01947e-05 0
-1.02243e-05 -5.01947e-05 0
-1.26211e-05 -2.76116e-05 0
-1.26211e-05 -2.76116e-05 0
-1.54277e-05 6.07538e-07 0
-1.54277e-05 6.07538e-07 0
-1.88049e-05 3.54293e-05 0
-1.88049e-05 3.54293e-05 0
-2.29101e-05 7.85432e-05 0
-2.29101e-05 7.85432e-05 0
-2.78327e-05 0.000130655 0
-2.78327e-05 0.000130655 0
-3.35267e-05 0.000194705 0
-3.35267e-05 0.000194705 0
-4.0407e-05 0.000270555 0
-4.0407e-05 0.000270555 0
-4.72409e-05 0.000362545 0
-4.72409e-05 0.000362545 0
-5.6276e-05 0.000468516 0
-5.6276e-05 0.000468516 0
-6.45431e-05 0.000593846 0
-6.45431e-05 0.000593846 0
-6.84991e-05 0.00073388 0
-6.84991e-05 0.00073388 0
-7.42589e-05 0.000882723 0
-7.42589e-05 0.000882723 0
-7.89465e-05 0.00104235 0
-7.89465e-05 0.00104235 0
-7.34057e-05 0.00120271 0
-7.34057e-05 0.00120271 0
-5.36476e-05 0.00134038 0
-5.36476e-05 0.00134038 0
-1.97769e-05 0.00143443 0
-1.97769e-05 0.00143443 0
2.61693e-05 0.00145197 0
2.61693e-05 0.00145197 0
7.93767e-05 0.00138412 0
7.93767e-05 0.00138412 0
0.00012765 0.00119696 0
0.00012765 0.00119696 0
0.00016848 0.000940074 0
0.00016848 0.000940074 0
0.000158315 0.000578023 0
0.000158315 0.000578023 0
7.88285e-05 0.000315961 0
7.88285e-05 0.000315961 0
0.000109368 0.00012734 0
0.000109368 0.00012734 0
8.37447e-06 -4.50007e-06 0
8.37447e-06 -4.50007e-06 0
1.79719e-05 -4.74596e-06 0
1.79719e-05 -4.74596e-06 0
2.7415e-05 -4.64297e-06 0
2.7415e-05 -4.64297e-06 0
3.6621e-05 -4.65474e-06 0
3.6621e-05 -4.65474e-06 0
4.60419e-05 -4.71306e-06 0
4.60419e-05 -4.71306e-06 0
5.55641e-05 -4.78713e-06 0
5.55641e-05 -4.78713e-06 0
6.52406e-05 -4.87108e-06 0
6.52406e-05 -4.87108e-06 0
7.50958e-05 -4.96342e-06 0
7.50958e-05 -4.96342e-06 0
8.51435e-05 -5.06275e-06 0
8.51435e-05 -5.06275e-06 0
9.53959e-05 -5.1674e-06 0
9.53959e-05 -5.1674e-06 0
0.000105862 -5.27563e-06 0
0.000105862 -5.27563e-06 0
0.000116547 -5.3857e-06 0
0.000116547 -5.3857e-06 0
0.000127453 -5.49589e-06 0
0.000127453 -5.49589e-06 0
0.000138578 -5.60453e-06 0
0.000138578 -5.60453e-06 0
0.000149918 -5.71005e-06 0
0.000149918 -5.71005e-06 0
0.000161464 -5.81098e-06 0
0.000161464 -5.81098e-06 0
0.000173207 -5.90602e-06 0
0.000173207 -5.90602e-06 0
0.000185134 -5.994e-06 0
0.000185134 -5.994e-06 0
0.000197228 -6.07391e-06 0
0.000197228 -6.07391e-06 0
0.000209474 -6.14492e-06 0
0.000209474 -6.14492e-06 0
0.000221852 -6.20633e-06 0
0.000221852 -6.20633e-06 0
0.000234344 -6.25762e-06 0
0.000234344 -6.25762e-06 0
0.000246927 -6.29845e-06 0
0.000246927 -6.29845e-06 0
0.000259581 -6.32859e-06 0
0.000259581 -6.32859e-06 0
0.000272285 -6.34798e-06 0
0.000272285 -6.34798e-06 0
0.000285017 -6.35666e-06 0
0.000285017 -6.35666e-06 0
0.000297756 -6.3548e-06 0
0.000297756 -6.3548e-06 0
0.00031048 -6.34267e-06 0
0.00031048 -6.34267e-06 0
0.00032317 -6.32063e-06 0
0.00032317 -6.32063e-06 0
0.000335806 -6.28909e-06 0
0.000335806 -6.28909e-06 0
0.00034837 -6.24854e-06 0
0.00034837 -6.24854e-06 0
0.000360844 -6.1995e-06 0
0.000360844 -6.1995e-06 0
0.000373211 -6.14254e-06 0
0.000373211 -6.14254e-06 0
0.000385457 -6.07823e-06 0
0.000385457 -6.07823e-06 0
0.000397566 -6.00717e-06 0
0.000397566 -6.00717e-06 0
0.000409527 -5.92995e-06 0
0.000409527 -5.92995e-06 0
0.000421328 -5.84719e-06 0
0.000421328 -5.84719e-06 0
0.000432957 -5.75945e-06 0
0.000432957 -5.75945e-06 0
0.000444406 -5.66731e-06 0
0.000444406 -5.66731e-06 0
0.000455666 -5.57132e-06 0
0.000455666 -5.57132e-06 0
0.00046673 -5.472e-06 0
0.00046673 -5.472e-06 0
0.000477592 -5.36986e-06 0
0.000477592 -5.36986e-06 0
0.000488247 -5.26537e-06 0
0.000488247 -5.26537e-06 0
0.00049869 -5.15897e-06 0
0.00049869 -5.15897e-06 0
0.000508919 -5.05108e-06 0
0.000508919 -5.05108e-06 0
0.00051893 -4.94207e-06 0
0.00051893 -4.94207e-06 0
0.000528721 -4.83231e-06 0
0.000528721 -4.83231e-06 0
0.000538293 -4.72212e-06 0
0.000538293 -4.72212e-06 0
0.000547643 -4.61179e-06 0
0.000547643 -4.61179e-06 0
0.000556772 -4.5016e-06 0
0.000556772 -4.5016e-06 0
0.000565681 -4.39178e-06 0
0.000565681 -4.39178e-06 0
0.00057437 -4.28255e-06 0
0.00057437 -4.28255e-06 0
0.000582841 -4.1741e-06 0
0.000582841 -4.1741e-06 0
0.000591095 -4.0666e-06 0
0.000591095 -4.0666e-06 0
0.000599136 -3.96021e-06 0
0.000599136 -3.96021e-06 0
0.000606964 -3.85506e-06 0
0.000606964 -3.85506e-06 0
0.000614583 -3.75125e-06 0
0.000614583 -3.75125e-06 0
0.000621995 -3.64888e-06 0
0.000621995 -3.64888e-06 0
0.000629204 -3.54803e-06 0
0.000629204 -3.54803e-06 0
0.000636212 -3.44877e-06 0
0.000636212 -3.44877e-06 0
0.000643023 -3.35115e-06 0
0.000643023 -3.35115e-06 0
0.00064964 -3.25522e-06 0
0.00064964 -3.25522e-06 0
0.000656067 -3.16099e-06 0
0.000656067 -3.16099e-06 0
0.000662306 -3.0685e-06 0
0.000662306 -3.0685e-06 0
0.000668363 -2.97776e-06 0
0.000668363 -2.97776e-06 0
0.000674239 -2.88877e-06 0
0.000674239 -2.88877e-06 0
0.000679938 -2.80154e-06 0
0.000679938 -2.80154e-06 0
0.000685465 -2.71604e-06 0
0.000685465 -2.71604e-06 0
0.000690822 -2.63227e-06 0
0.000690822 -2.63227e-06 0
0.000696013 -2.55021e-06 0
0.000696013 -2.55021e-06 0
0.000701041 -2.46984e-06 0
0.000701041 -2.46984e-06 0
0.00070591 -2.39113e-06 0
0.00070591 -2.39113e-06 0
0.000710623 -2.31405e-06 0
0.000710623 -2.31405e-06 0
0.000715183 -2.23857e-06 0
0.000715183 -2.23857e-06 0
0.000719593 -2.16466e-06 0
0.000719593 -2.16466e-06 0
0.000723857 -2.09226e-06 0
0.000723857 -2.09226e-06 0
0.000727978 -2.02136e-06 0
0.000727978 -2.02136e-06 0
0.000731957 -1.9519e-06 0
0.000731957 -1.9519e-06 0
0.0007358 -1.88385e-06 0
0.0007358 -1.88385e-06 0
0.000739507 -1.81716e-06 0
0.000739507 -1.81716e-06 0
0.000743082 -1.75179e-06 0
0.000743082 -1.75179e-06 0
0.000746527 -1.68769e-06 0
0.000746527 -1.68769e-06 0
0.000749845 -1.62482e-06 0
0.000749845 -1.62482e-06 0
0.000753039 -1.56315e-06 0
0.000753039 -1.56315e-06 0
0.00075611 -1.50258e-06 0
0.00075611 -1.50258e-06 0
0.00075906 -1.44317e-06 0
0.00075906 -1.44317e-06 0
0.000761894 -1.3847e-06 0
0.000761894 -1.3847e-06 0
0.00076461 -1.32738e-06 0
0.00076461 -1.32738e-06 0
0.000767214 -1.27082e-06 0
0.000767214 -1.27082e-06 0
0.000769702 -1.21541e-06 0
0.000769702 -1.21541e-06 0
0.000772087 -1.16052e-06 0
0.000772087 -1.16052e-06 0
0.000774351 -1.107e-06 0
0.000774351 -1.107e-06 0
0.000776528 -1.05333e-06 0
0.000776528 -1.05333e-06 0
0.000778567 -1.00185e-06 0
0.000778567 -1.00185e-06 0
0.000780554 -9.48861e-07 0
0.000780554 -9.48861e-07 0
0.000782353 -8.99688e-07 0
0.000782353 -8.99688e-07 0
0.000784186 -8.46289e-07 0
0.000784186 -8.46289e-07 0
0.000785699 -8.00944e-07 0
0.000785699 -8.00944e-07 0
0.986637 -0.000875353 0
0.986637 -0.000875353 0
1.97249 -0.00174992 0
1.97249 -0.00174992 0
