/*--------------------------------*- C++ -*----------------------------------*\
| =========                 |                                                 |
| \\      /  F ield         | OpenFOAM: The Open Source CFD Toolbox           |
|  \\    /   O peration     | Version:  4.1                                   |
|   \\  /    A nd           | Web:      www.OpenFOAM.org                      |
|    \\/     M anipulation  |                                                 |
\*---------------------------------------------------------------------------*/
FoamFile
{
    version     2.0;
    format      ascii;
    class       volScalarField;
    location    "99";
    object      p;
}
// * * * * * * * * * * * * * * * * * * * * * * * * * * * * * * * * * * * * * //

dimensions      [0 2 -2 0 0 0 0];

internalField   nonuniform List<scalar> 
43750
(
0.000103874
9.51687e-05
8.90566e-05
8.61545e-05
8.40556e-05
8.19919e-05
8.02019e-05
7.88521e-05
7.78891e-05
7.72181e-05
7.67768e-05
7.65198e-05
7.64038e-05
7.63901e-05
7.64486e-05
7.65573e-05
7.67013e-05
7.68705e-05
7.70589e-05
7.72632e-05
7.7482e-05
7.77151e-05
7.79634e-05
7.82277e-05
7.85096e-05
7.88103e-05
7.91311e-05
7.94732e-05
7.98374e-05
8.02243e-05
8.06336e-05
8.10649e-05
8.15169e-05
8.19879e-05
8.2476e-05
8.2979e-05
8.34951e-05
8.40225e-05
8.456e-05
8.51067e-05
8.56624e-05
8.62272e-05
8.68013e-05
8.7385e-05
8.79788e-05
8.85827e-05
8.91966e-05
8.982e-05
9.0452e-05
9.10917e-05
9.17378e-05
9.23889e-05
9.30438e-05
9.37014e-05
9.43606e-05
9.50208e-05
9.56814e-05
9.63422e-05
9.70028e-05
9.76632e-05
9.83231e-05
9.89822e-05
9.96404e-05
0.000100297
0.000100953
0.000101606
0.000102256
0.000102904
0.000103547
0.000104187
0.000104821
0.000105449
0.000106071
0.000106685
0.000107291
0.000107888
0.000108474
0.000109049
0.000109611
0.00011016
0.000110694
0.000111212
0.000111713
0.000112195
0.000112657
0.000113098
0.000113516
0.00011391
0.000114279
0.000114621
0.000114934
0.000115218
0.000115471
0.000115691
0.00011588
0.000116035
0.000116158
0.00011625
0.000116311
0.000116337
9.0959e-05
8.93778e-05
8.71235e-05
8.52483e-05
8.35995e-05
8.194e-05
8.04072e-05
7.91682e-05
7.82416e-05
7.75755e-05
7.71204e-05
7.6837e-05
7.66885e-05
7.66405e-05
7.66656e-05
7.67433e-05
7.68598e-05
7.70053e-05
7.71736e-05
7.7361e-05
7.75659e-05
7.77875e-05
7.80261e-05
7.82824e-05
7.85574e-05
7.88522e-05
7.91681e-05
7.95059e-05
7.98666e-05
8.02507e-05
8.0658e-05
8.1088e-05
8.15394e-05
8.20104e-05
8.24991e-05
8.30029e-05
8.35198e-05
8.40477e-05
8.45854e-05
8.5132e-05
8.56871e-05
8.6251e-05
8.68241e-05
8.74071e-05
8.80003e-05
8.86039e-05
8.92179e-05
8.98417e-05
9.04744e-05
9.11151e-05
9.17622e-05
9.24144e-05
9.30704e-05
9.37289e-05
9.43889e-05
9.50497e-05
9.57108e-05
9.6372e-05
9.70329e-05
9.76935e-05
9.83536e-05
9.9013e-05
9.96714e-05
0.000100328
0.000100984
0.000101637
0.000102288
0.000102936
0.000103579
0.000104219
0.000104853
0.000105481
0.000106103
0.000106718
0.000107323
0.00010792
0.000108506
0.000109081
0.000109643
0.000110192
0.000110726
0.000111244
0.000111744
0.000112226
0.000112689
0.000113129
0.000113547
0.000113941
0.00011431
0.000114651
0.000114964
0.000115248
0.000115501
0.000115722
0.00011591
0.000116065
0.000116187
0.000116276
0.000116335
0.000116364
8.89342e-05
8.81966e-05
8.65585e-05
8.47727e-05
8.32396e-05
8.18836e-05
8.06524e-05
7.95981e-05
7.87523e-05
7.80995e-05
7.76127e-05
7.727e-05
7.70508e-05
7.6933e-05
7.68958e-05
7.69217e-05
7.69968e-05
7.71105e-05
7.72551e-05
7.74254e-05
7.76179e-05
7.78307e-05
7.80627e-05
7.8314e-05
7.8585e-05
7.88765e-05
7.91893e-05
7.95244e-05
7.98825e-05
8.02641e-05
8.06692e-05
8.10972e-05
8.15468e-05
8.20165e-05
8.25042e-05
8.30074e-05
8.35241e-05
8.40523e-05
8.45904e-05
8.51376e-05
8.56934e-05
8.62578e-05
8.68311e-05
8.74139e-05
8.80068e-05
8.86099e-05
8.92235e-05
8.98473e-05
9.04804e-05
9.11218e-05
9.17701e-05
9.24237e-05
9.30811e-05
9.37409e-05
9.4402e-05
9.50637e-05
9.57256e-05
9.63874e-05
9.7049e-05
9.77103e-05
9.83711e-05
9.90313e-05
9.96905e-05
0.000100349
0.000101005
0.000101659
0.000102311
0.00010296
0.000103605
0.000104246
0.000104882
0.000105511
0.000106135
0.00010675
0.000107358
0.000107956
0.000108543
0.00010912
0.000109684
0.000110234
0.000110769
0.000111289
0.000111791
0.000112274
0.000112738
0.00011318
0.0001136
0.000113995
0.000114365
0.000114708
0.000115022
0.000115307
0.00011556
0.000115782
0.00011597
0.000116124
0.000116244
0.000116332
0.000116391
0.000116427
8.647e-05
8.59533e-05
8.49094e-05
8.36774e-05
8.25294e-05
8.14848e-05
8.05111e-05
7.9638e-05
7.8905e-05
7.83188e-05
7.78664e-05
7.75327e-05
7.73037e-05
7.71646e-05
7.71001e-05
7.70966e-05
7.71428e-05
7.723e-05
7.73514e-05
7.75019e-05
7.7678e-05
7.78774e-05
7.80989e-05
7.83419e-05
7.86062e-05
7.88922e-05
7.92003e-05
7.95311e-05
7.98851e-05
8.02625e-05
8.06632e-05
8.10867e-05
8.15318e-05
8.19972e-05
8.24809e-05
8.2981e-05
8.34955e-05
8.40224e-05
8.45603e-05
8.51082e-05
8.56655e-05
8.62319e-05
8.68076e-05
8.73929e-05
8.79879e-05
8.85929e-05
8.92076e-05
8.98319e-05
9.04651e-05
9.11063e-05
9.17545e-05
9.24083e-05
9.3066e-05
9.37264e-05
9.43883e-05
9.50509e-05
9.57136e-05
9.63763e-05
9.70388e-05
9.7701e-05
9.8363e-05
9.90245e-05
9.96853e-05
0.000100345
0.000101003
0.00010166
0.000102314
0.000102965
0.000103613
0.000104256
0.000104895
0.000105527
0.000106154
0.000106773
0.000107383
0.000107985
0.000108576
0.000109156
0.000109723
0.000110277
0.000110816
0.000111339
0.000111844
0.000112331
0.000112798
0.000113244
0.000113667
0.000114065
0.000114438
0.000114783
0.0001151
0.000115387
0.000115642
0.000115865
0.000116054
0.000116208
0.000116327
0.000116412
0.000116472
0.000116514
8.46715e-05
8.43772e-05
8.37214e-05
8.28544e-05
8.19605e-05
8.11093e-05
8.03075e-05
7.95752e-05
7.8942e-05
7.84205e-05
7.80065e-05
7.76906e-05
7.74634e-05
7.73148e-05
7.7234e-05
7.7211e-05
7.7237e-05
7.73047e-05
7.74083e-05
7.75435e-05
7.77067e-05
7.78956e-05
7.81086e-05
7.83447e-05
7.86034e-05
7.88846e-05
7.91884e-05
7.95149e-05
7.98642e-05
8.02364e-05
8.06312e-05
8.10482e-05
8.14864e-05
8.19447e-05
8.24215e-05
8.29154e-05
8.34245e-05
8.39476e-05
8.44832e-05
8.50304e-05
8.55887e-05
8.61577e-05
8.67372e-05
8.7327e-05
8.79269e-05
8.85365e-05
8.91552e-05
8.97824e-05
9.04175e-05
9.10595e-05
9.17075e-05
9.23606e-05
9.30176e-05
9.36773e-05
9.43388e-05
9.50012e-05
9.56641e-05
9.63272e-05
9.69905e-05
9.76537e-05
9.8317e-05
9.898e-05
9.96426e-05
0.000100304
0.000100965
0.000101624
0.000102281
0.000102935
0.000103586
0.000104233
0.000104876
0.000105513
0.000106143
0.000106767
0.000107382
0.000107988
0.000108585
0.00010917
0.000109742
0.000110301
0.000110846
0.000111374
0.000111885
0.000112377
0.000112849
0.0001133
0.000113727
0.00011413
0.000114507
0.000114857
0.000115177
0.000115467
0.000115725
0.00011595
0.00011614
0.000116294
0.000116413
0.000116497
0.000116557
0.000116602
8.32807e-05
8.30924e-05
8.26452e-05
8.20122e-05
8.13188e-05
8.0637e-05
7.99878e-05
7.9386e-05
7.88521e-05
7.83996e-05
7.80307e-05
7.77416e-05
7.75269e-05
7.73801e-05
7.72943e-05
7.72621e-05
7.72767e-05
7.73324e-05
7.74244e-05
7.75486e-05
7.77021e-05
7.78824e-05
7.8088e-05
7.83177e-05
7.85708e-05
7.88468e-05
7.91456e-05
7.9467e-05
7.98109e-05
8.01771e-05
8.05653e-05
8.0975e-05
8.14054e-05
8.18555e-05
8.23242e-05
8.28102e-05
8.33123e-05
8.38294e-05
8.43604e-05
8.49047e-05
8.54616e-05
8.6031e-05
8.66125e-05
8.72058e-05
8.78106e-05
8.84261e-05
8.9051e-05
8.96842e-05
9.03242e-05
9.09697e-05
9.16197e-05
9.22733e-05
9.29298e-05
9.35885e-05
9.42488e-05
9.49103e-05
9.55727e-05
9.62356e-05
9.6899e-05
9.75628e-05
9.8227e-05
9.88913e-05
9.95555e-05
0.000100219
0.000100882
0.000101544
0.000102204
0.000102861
0.000103516
0.000104167
0.000104814
0.000105455
0.000106091
0.000106719
0.00010734
0.000107952
0.000108554
0.000109145
0.000109724
0.00011029
0.00011084
0.000111375
0.000111893
0.000112391
0.00011287
0.000113327
0.00011376
0.000114169
0.000114551
0.000114906
0.00011523
0.000115524
0.000115786
0.000116013
0.000116206
0.000116362
0.000116481
0.000116564
0.000116624
0.00011667
8.21394e-05
8.20066e-05
8.16875e-05
8.12218e-05
8.06913e-05
8.01524e-05
7.96289e-05
7.91351e-05
7.86876e-05
7.82993e-05
7.7976e-05
7.77175e-05
7.75213e-05
7.73838e-05
7.73002e-05
7.72655e-05
7.72748e-05
7.73234e-05
7.74075e-05
7.75238e-05
7.76696e-05
7.78427e-05
7.80416e-05
7.82651e-05
7.85123e-05
7.87828e-05
7.9076e-05
7.93917e-05
7.97296e-05
8.00894e-05
8.04706e-05
8.08727e-05
8.12951e-05
8.17368e-05
8.21971e-05
8.26748e-05
8.31691e-05
8.3679e-05
8.42038e-05
8.47429e-05
8.5296e-05
8.58627e-05
8.64429e-05
8.70366e-05
8.76433e-05
8.82623e-05
8.88922e-05
8.95313e-05
9.01774e-05
9.08286e-05
9.14829e-05
9.21393e-05
9.27971e-05
9.34559e-05
9.41156e-05
9.47762e-05
9.54377e-05
9.61e-05
9.67632e-05
9.74272e-05
9.80919e-05
9.87571e-05
9.94225e-05
0.000100088
0.000100753
0.000101417
0.000102079
0.00010274
0.000103398
0.000104053
0.000104703
0.000105349
0.000105989
0.000106623
0.000107249
0.000107867
0.000108475
0.000109072
0.000109658
0.00011023
0.000110787
0.000111329
0.000111854
0.000112359
0.000112844
0.000113308
0.000113748
0.000114163
0.000114551
0.000114911
0.000115241
0.00011554
0.000115805
0.000116036
0.000116232
0.00011639
0.00011651
0.000116594
0.000116653
0.0001167
8.11744e-05
8.10778e-05
8.08449e-05
8.04985e-05
8.00914e-05
7.96653e-05
7.92426e-05
7.8838e-05
7.84653e-05
7.81364e-05
7.78579e-05
7.76317e-05
7.74576e-05
7.73336e-05
7.72571e-05
7.72248e-05
7.72331e-05
7.72785e-05
7.73581e-05
7.74692e-05
7.76094e-05
7.77769e-05
7.79704e-05
7.81885e-05
7.84304e-05
7.86956e-05
7.89834e-05
7.92934e-05
7.96253e-05
7.99786e-05
8.03529e-05
8.07476e-05
8.11622e-05
8.15959e-05
8.2048e-05
8.25175e-05
8.30039e-05
8.35063e-05
8.40242e-05
8.4557e-05
8.51044e-05
8.56664e-05
8.62427e-05
8.68335e-05
8.74385e-05
8.80572e-05
8.86885e-05
8.93305e-05
8.99808e-05
9.06368e-05
9.12958e-05
9.19561e-05
9.26165e-05
9.32767e-05
9.39369e-05
9.45974e-05
9.52585e-05
9.59204e-05
9.65833e-05
9.72473e-05
9.79122e-05
9.85779e-05
9.92441e-05
9.99106e-05
0.000100577
0.000101243
0.000101907
0.00010257
0.000103231
0.000103889
0.000104543
0.000105193
0.000105838
0.000106476
0.000107107
0.00010773
0.000108343
0.000108947
0.000109538
0.000110116
0.00011068
0.000111229
0.00011176
0.000112272
0.000112764
0.000113234
0.000113681
0.000114102
0.000114496
0.000114862
0.000115197
0.0001155
0.00011577
0.000116005
0.000116203
0.000116364
0.000116487
0.000116572
0.000116631
0.000116677
8.03382e-05
8.02664e-05
8.00926e-05
7.98305e-05
7.95159e-05
7.9179e-05
7.88388e-05
7.85089e-05
7.82012e-05
7.79258e-05
7.76895e-05
7.74954e-05
7.73447e-05
7.72369e-05
7.71706e-05
7.7144e-05
7.71545e-05
7.71999e-05
7.72776e-05
7.73857e-05
7.75223e-05
7.76858e-05
7.78748e-05
7.80884e-05
7.83257e-05
7.85859e-05
7.88686e-05
7.91732e-05
7.94993e-05
7.98465e-05
8.02142e-05
8.0602e-05
8.10093e-05
8.14354e-05
8.18798e-05
8.23416e-05
8.28204e-05
8.33154e-05
8.38262e-05
8.43524e-05
8.48936e-05
8.54498e-05
8.60209e-05
8.66069e-05
8.72078e-05
8.78232e-05
8.84523e-05
8.90935e-05
8.97445e-05
9.04022e-05
9.10638e-05
9.17268e-05
9.23897e-05
9.30517e-05
9.3713e-05
9.43741e-05
9.50353e-05
9.56971e-05
9.63599e-05
9.70238e-05
9.76888e-05
9.83547e-05
9.90214e-05
9.96885e-05
0.000100356
0.000101023
0.000101689
0.000102354
0.000103017
0.000103677
0.000104334
0.000104987
0.000105635
0.000106277
0.000106913
0.00010754
0.000108158
0.000108766
0.000109363
0.000109947
0.000110517
0.000111071
0.000111608
0.000112126
0.000112624
0.0001131
0.000113553
0.000113979
0.000114379
0.00011475
0.00011509
0.000115398
0.000115672
0.000115911
0.000116112
0.000116276
0.000116401
0.000116487
0.000116547
0.000116593
7.95978e-05
7.95434e-05
7.94115e-05
7.92109e-05
7.89665e-05
7.87003e-05
7.84275e-05
7.81598e-05
7.79074e-05
7.76792e-05
7.74815e-05
7.7318e-05
7.71907e-05
7.71001e-05
7.7046e-05
7.70272e-05
7.70423e-05
7.70897e-05
7.71676e-05
7.72745e-05
7.74089e-05
7.75695e-05
7.77552e-05
7.7965e-05
7.81981e-05
7.84539e-05
7.87318e-05
7.90313e-05
7.93519e-05
7.96932e-05
8.00548e-05
8.0436e-05
8.08364e-05
8.12555e-05
8.16926e-05
8.21472e-05
8.26187e-05
8.31066e-05
8.36105e-05
8.413e-05
8.46649e-05
8.5215e-05
8.57802e-05
8.63606e-05
8.69562e-05
8.75666e-05
8.81913e-05
8.88289e-05
8.94772e-05
9.01334e-05
9.07945e-05
9.14579e-05
9.21215e-05
9.27844e-05
9.34465e-05
9.4108e-05
9.47694e-05
9.54313e-05
9.6094e-05
9.67577e-05
9.74225e-05
9.80883e-05
9.87551e-05
9.94225e-05
0.00010009
0.000100758
0.000101425
0.000102091
0.000102755
0.000103417
0.000104077
0.000104732
0.000105383
0.000106028
0.000106666
0.000107297
0.000107919
0.000108532
0.000109133
0.000109721
0.000110296
0.000110855
0.000111397
0.000111921
0.000112424
0.000112905
0.000113362
0.000113794
0.000114198
0.000114574
0.000114918
0.00011523
0.000115508
0.000115749
0.000115954
0.00011612
0.000116247
0.000116335
0.000116395
0.000116441
7.89299e-05
7.88882e-05
7.8787e-05
7.86322e-05
7.84416e-05
7.82313e-05
7.80132e-05
7.77971e-05
7.75916e-05
7.74045e-05
7.72415e-05
7.71065e-05
7.70019e-05
7.69288e-05
7.68876e-05
7.68779e-05
7.68991e-05
7.69501e-05
7.70297e-05
7.71368e-05
7.72701e-05
7.74288e-05
7.76119e-05
7.78185e-05
7.8048e-05
7.82998e-05
7.85732e-05
7.88679e-05
7.91833e-05
7.9519e-05
7.98746e-05
8.02496e-05
8.06434e-05
8.10557e-05
8.14859e-05
8.19335e-05
8.2398e-05
8.2879e-05
8.33762e-05
8.38891e-05
8.44175e-05
8.49613e-05
8.55205e-05
8.60949e-05
8.66846e-05
8.72892e-05
8.79082e-05
8.85404e-05
8.91837e-05
8.98358e-05
9.04937e-05
9.11548e-05
9.1817e-05
9.24792e-05
9.31408e-05
9.38019e-05
9.4463e-05
9.51245e-05
9.57867e-05
9.64499e-05
9.71142e-05
9.77795e-05
9.84459e-05
9.9113e-05
9.97805e-05
0.000100448
0.000101116
0.000101782
0.000102447
0.00010311
0.000103771
0.000104428
0.00010508
0.000105727
0.000106368
0.000107002
0.000107627
0.000108243
0.000108847
0.000109439
0.000110018
0.000110581
0.000111127
0.000111654
0.000112162
0.000112647
0.000113108
0.000113544
0.000113953
0.000114332
0.00011468
0.000114995
0.000115275
0.00011552
0.000115727
0.000115895
0.000116024
0.000116113
0.000116173
0.00011622
7.83175e-05
7.82853e-05
7.82071e-05
7.8087e-05
7.7938e-05
7.77721e-05
7.75985e-05
7.74251e-05
7.72594e-05
7.71079e-05
7.69757e-05
7.68668e-05
7.67834e-05
7.67274e-05
7.66993e-05
7.66995e-05
7.67277e-05
7.67832e-05
7.68655e-05
7.69737e-05
7.7107e-05
7.72646e-05
7.74457e-05
7.76497e-05
7.7876e-05
7.81241e-05
7.83933e-05
7.86834e-05
7.89938e-05
7.93241e-05
7.96739e-05
8.00428e-05
8.04303e-05
8.08361e-05
8.12595e-05
8.17003e-05
8.21579e-05
8.26321e-05
8.31224e-05
8.36287e-05
8.41505e-05
8.46879e-05
8.52407e-05
8.58088e-05
8.63922e-05
8.69905e-05
8.76031e-05
8.82288e-05
8.88658e-05
8.95119e-05
9.01646e-05
9.08213e-05
9.148e-05
9.21395e-05
9.2799e-05
9.34586e-05
9.41183e-05
9.47786e-05
9.54396e-05
9.61016e-05
9.67647e-05
9.7429e-05
9.80943e-05
9.87604e-05
9.94272e-05
0.000100094
0.000100761
0.000101427
0.000102093
0.000102756
0.000103417
0.000104074
0.000104728
0.000105376
0.000106019
0.000106654
0.000107281
0.000107899
0.000108506
0.000109101
0.000109682
0.000110248
0.000110797
0.000111328
0.000111838
0.000112327
0.000112791
0.00011323
0.000113642
0.000114023
0.000114374
0.000114692
0.000114975
0.000115221
0.00011543
0.0001156
0.000115729
0.000115819
0.00011588
0.000115927
7.7748e-05
7.7723e-05
7.76624e-05
7.7569e-05
7.74525e-05
7.73221e-05
7.71846e-05
7.70467e-05
7.69146e-05
7.67938e-05
7.66888e-05
7.66033e-05
7.65397e-05
7.64997e-05
7.64846e-05
7.64947e-05
7.65302e-05
7.6591e-05
7.66767e-05
7.67867e-05
7.69205e-05
7.70776e-05
7.72573e-05
7.74592e-05
7.76826e-05
7.79273e-05
7.81926e-05
7.84783e-05
7.87839e-05
7.91089e-05
7.94532e-05
7.98161e-05
8.01974e-05
8.05967e-05
8.10135e-05
8.14475e-05
8.18983e-05
8.23655e-05
8.2849e-05
8.33484e-05
8.38634e-05
8.43941e-05
8.49402e-05
8.55016e-05
8.60782e-05
8.66697e-05
8.72752e-05
8.78937e-05
8.85236e-05
8.91626e-05
8.98086e-05
9.04593e-05
9.11128e-05
9.17678e-05
9.24237e-05
9.30802e-05
9.37373e-05
9.43952e-05
9.5054e-05
9.57139e-05
9.6375e-05
9.70374e-05
9.77008e-05
9.83653e-05
9.90304e-05
9.9696e-05
0.000100362
0.000101027
0.000101691
0.000102354
0.000103014
0.000103671
0.000104325
0.000104974
0.000105617
0.000106253
0.000106881
0.0001075
0.000108108
0.000108705
0.000109287
0.000109855
0.000110407
0.000110939
0.000111452
0.000111943
0.00011241
0.000112851
0.000113265
0.000113649
0.000114001
0.000114321
0.000114605
0.000114853
0.000115063
0.000115234
0.000115364
0.000115454
0.000115516
0.000115563
7.72117e-05
7.71924e-05
7.71453e-05
7.70728e-05
7.69821e-05
7.688e-05
7.67722e-05
7.66637e-05
7.65599e-05
7.64654e-05
7.63843e-05
7.63196e-05
7.6274e-05
7.6249e-05
7.62461e-05
7.6266e-05
7.6309e-05
7.63753e-05
7.64647e-05
7.6577e-05
7.67118e-05
7.68688e-05
7.70475e-05
7.72475e-05
7.74685e-05
7.771e-05
7.79716e-05
7.8253e-05
7.85539e-05
7.88739e-05
7.92126e-05
7.95697e-05
7.99448e-05
8.03377e-05
8.07479e-05
8.11751e-05
8.1619e-05
8.20793e-05
8.25557e-05
8.3048e-05
8.3556e-05
8.40796e-05
8.46186e-05
8.51729e-05
8.57423e-05
8.63264e-05
8.69243e-05
8.7535e-05
8.81569e-05
8.8788e-05
8.94263e-05
9.00697e-05
9.07165e-05
9.13657e-05
9.20164e-05
9.26684e-05
9.33214e-05
9.39756e-05
9.46311e-05
9.52878e-05
9.59459e-05
9.66053e-05
9.7266e-05
9.79278e-05
9.85904e-05
9.92536e-05
9.9917e-05
0.00010058
0.000101242
0.000101903
0.000102562
0.000103219
0.000103871
0.000104519
0.000105162
0.000105797
0.000106426
0.000107045
0.000107653
0.00010825
0.000108834
0.000109403
0.000109955
0.000110489
0.000111003
0.000111495
0.000111964
0.000112406
0.000112821
0.000113206
0.00011356
0.000113881
0.000114166
0.000114415
0.000114625
0.000114797
0.000114927
0.000115018
0.000115079
0.000115127
7.67011e-05
7.66862e-05
7.66499e-05
7.65939e-05
7.65237e-05
7.64446e-05
7.6361e-05
7.6277e-05
7.61971e-05
7.61252e-05
7.60647e-05
7.60186e-05
7.5989e-05
7.59779e-05
7.59865e-05
7.60156e-05
7.60659e-05
7.61377e-05
7.6231e-05
7.63458e-05
7.64819e-05
7.6639e-05
7.6817e-05
7.70154e-05
7.72341e-05
7.74726e-05
7.77307e-05
7.8008e-05
7.83043e-05
7.86193e-05
7.89526e-05
7.93039e-05
7.96729e-05
8.00593e-05
8.04629e-05
8.08833e-05
8.13202e-05
8.17733e-05
8.22425e-05
8.27275e-05
8.32282e-05
8.37443e-05
8.42759e-05
8.48226e-05
8.53843e-05
8.59604e-05
8.65502e-05
8.71525e-05
8.77658e-05
8.83882e-05
8.90178e-05
8.96529e-05
9.0292e-05
9.0934e-05
9.15782e-05
9.22241e-05
9.28718e-05
9.3521e-05
9.41718e-05
9.48241e-05
9.54781e-05
9.61335e-05
9.67903e-05
9.74483e-05
9.81074e-05
9.87672e-05
9.94273e-05
0.000100087
0.000100747
0.000101405
0.000102062
0.000102715
0.000103366
0.000104012
0.000104653
0.000105288
0.000105915
0.000106533
0.000107141
0.000107737
0.000108321
0.00010889
0.000109442
0.000109976
0.000110491
0.000110983
0.000111452
0.000111895
0.00011231
0.000112696
0.00011305
0.000113371
0.000113657
0.000113906
0.000114117
0.000114288
0.000114419
0.000114509
0.00011457
0.000114618
7.62105e-05
7.6199e-05
7.61713e-05
7.61284e-05
7.60747e-05
7.60143e-05
7.59506e-05
7.58871e-05
7.58273e-05
7.57747e-05
7.57321e-05
7.57022e-05
7.56871e-05
7.56884e-05
7.57075e-05
7.57454e-05
7.58026e-05
7.58797e-05
7.59769e-05
7.60943e-05
7.62317e-05
7.63892e-05
7.65666e-05
7.67636e-05
7.69801e-05
7.72158e-05
7.74704e-05
7.77438e-05
7.80355e-05
7.83455e-05
7.86734e-05
7.90189e-05
7.93818e-05
7.97619e-05
8.01587e-05
8.05722e-05
8.10019e-05
8.14478e-05
8.19096e-05
8.23871e-05
8.28801e-05
8.33884e-05
8.39121e-05
8.44508e-05
8.50042e-05
8.55719e-05
8.6153e-05
8.67463e-05
8.73503e-05
8.79633e-05
8.85835e-05
8.92094e-05
8.98397e-05
9.04733e-05
9.11096e-05
9.17483e-05
9.23892e-05
9.30321e-05
9.3677e-05
9.43237e-05
9.49722e-05
9.56224e-05
9.62742e-05
9.69274e-05
9.75817e-05
9.8237e-05
9.88927e-05
9.95486e-05
0.000100204
0.000100859
0.000101511
0.000102162
0.000102809
0.000103452
0.000104091
0.000104723
0.000105347
0.000105964
0.00010657
0.000107165
0.000107747
0.000108314
0.000108866
0.000109399
0.000109913
0.000110405
0.000110873
0.000111316
0.000111731
0.000112116
0.00011247
0.000112791
0.000113076
0.000113325
0.000113536
0.000113706
0.000113837
0.000113926
0.000113987
0.000114035
7.5735e-05
7.57264e-05
7.57055e-05
7.56732e-05
7.56329e-05
7.55877e-05
7.55405e-05
7.54941e-05
7.54513e-05
7.54151e-05
7.5388e-05
7.53723e-05
7.537e-05
7.53825e-05
7.54111e-05
7.5457e-05
7.55207e-05
7.56028e-05
7.57037e-05
7.58235e-05
7.59624e-05
7.61202e-05
7.62971e-05
7.64927e-05
7.67071e-05
7.694e-05
7.71913e-05
7.74606e-05
7.77479e-05
7.8053e-05
7.83754e-05
7.87152e-05
7.90719e-05
7.94455e-05
7.98355e-05
8.0242e-05
8.06645e-05
8.11029e-05
8.1557e-05
8.20266e-05
8.25117e-05
8.30119e-05
8.35273e-05
8.40575e-05
8.46022e-05
8.51609e-05
8.57327e-05
8.63164e-05
8.69105e-05
8.75134e-05
8.81235e-05
8.87394e-05
8.93598e-05
8.99839e-05
9.06113e-05
9.12415e-05
9.18744e-05
9.25096e-05
9.31472e-05
9.3787e-05
9.44288e-05
9.50726e-05
9.57181e-05
9.63652e-05
9.70136e-05
9.76631e-05
9.83133e-05
9.89638e-05
9.9614e-05
0.000100263
0.000100911
0.000101557
0.0001022
0.000102839
0.000103473
0.000104102
0.000104723
0.000105336
0.000105939
0.000106531
0.000107111
0.000107676
0.000108226
0.000108757
0.000109269
0.000109759
0.000110226
0.000110668
0.000111081
0.000111466
0.000111819
0.000112139
0.000112423
0.000112671
0.000112881
0.00011305
0.00011318
0.000113268
0.000113328
0.000113377
7.5271e-05
7.52647e-05
7.52493e-05
7.52256e-05
7.51962e-05
7.51636e-05
7.513e-05
7.50978e-05
7.50694e-05
7.50473e-05
7.50335e-05
7.50302e-05
7.5039e-05
7.50614e-05
7.50986e-05
7.51517e-05
7.52213e-05
7.53081e-05
7.54124e-05
7.55345e-05
7.56747e-05
7.58329e-05
7.60092e-05
7.62035e-05
7.64158e-05
7.66459e-05
7.68938e-05
7.71592e-05
7.7442e-05
7.7742e-05
7.80591e-05
7.83929e-05
7.87435e-05
7.91104e-05
7.94936e-05
7.98928e-05
8.03079e-05
8.07386e-05
8.11849e-05
8.16464e-05
8.21232e-05
8.26149e-05
8.31216e-05
8.36429e-05
8.41785e-05
8.47277e-05
8.52896e-05
8.58631e-05
8.64467e-05
8.70388e-05
8.7638e-05
8.82429e-05
8.88526e-05
8.94663e-05
9.00836e-05
9.07041e-05
9.13277e-05
9.19541e-05
9.25831e-05
9.32147e-05
9.38485e-05
9.44845e-05
9.51225e-05
9.57622e-05
9.64035e-05
9.7046e-05
9.76893e-05
9.83331e-05
9.89768e-05
9.96199e-05
0.000100262
0.000100902
0.000101539
0.000102172
0.000102801
0.000103425
0.000104041
0.000104649
0.000105248
0.000105837
0.000106412
0.000106974
0.00010752
0.000108048
0.000108557
0.000109045
0.000109509
0.000109949
0.00011036
0.000110743
0.000111094
0.000111412
0.000111695
0.000111942
0.00011215
0.000112318
0.000112446
0.000112534
0.000112593
0.000112641
7.48155e-05
7.4811e-05
7.48001e-05
7.47835e-05
7.4763e-05
7.47407e-05
7.47185e-05
7.46982e-05
7.46819e-05
7.46717e-05
7.46694e-05
7.46767e-05
7.46953e-05
7.47264e-05
7.47713e-05
7.48308e-05
7.49057e-05
7.49967e-05
7.51041e-05
7.52283e-05
7.53695e-05
7.55279e-05
7.57036e-05
7.58965e-05
7.61066e-05
7.6334e-05
7.65784e-05
7.68398e-05
7.71181e-05
7.74131e-05
7.77246e-05
7.80526e-05
7.83968e-05
7.8757e-05
7.91332e-05
7.95251e-05
7.99325e-05
8.03553e-05
8.07934e-05
8.12466e-05
8.17147e-05
8.21976e-05
8.26952e-05
8.32072e-05
8.37331e-05
8.42723e-05
8.48239e-05
8.53866e-05
8.5959e-05
8.65397e-05
8.71272e-05
8.77204e-05
8.83184e-05
8.89207e-05
8.95268e-05
9.01366e-05
9.07496e-05
9.13659e-05
9.19851e-05
9.26071e-05
9.32317e-05
9.38586e-05
9.44877e-05
9.51187e-05
9.57515e-05
9.63856e-05
9.70208e-05
9.76565e-05
9.82924e-05
9.89278e-05
9.95622e-05
0.000100195
0.000100825
0.000101451
0.000102074
0.000102691
0.000103301
0.000103903
0.000104496
0.000105079
0.00010565
0.000106206
0.000106748
0.000107272
0.000107777
0.000108261
0.000108721
0.000109157
0.000109566
0.000109945
0.000110294
0.00011061
0.00011089
0.000111135
0.000111341
0.000111507
0.000111634
0.00011172
0.000111778
0.000111826
7.43659e-05
7.4363e-05
7.43558e-05
7.43449e-05
7.43318e-05
7.43181e-05
7.43053e-05
7.4295e-05
7.42889e-05
7.42888e-05
7.42962e-05
7.43128e-05
7.43398e-05
7.43786e-05
7.44301e-05
7.44953e-05
7.45749e-05
7.46695e-05
7.47796e-05
7.49056e-05
7.50477e-05
7.52061e-05
7.5381e-05
7.55724e-05
7.57803e-05
7.60047e-05
7.62457e-05
7.6503e-05
7.67766e-05
7.70665e-05
7.73725e-05
7.76944e-05
7.80321e-05
7.83856e-05
7.87545e-05
7.91389e-05
7.95385e-05
7.99532e-05
8.03828e-05
8.08273e-05
8.12865e-05
8.17602e-05
8.22483e-05
8.27505e-05
8.32663e-05
8.3795e-05
8.43357e-05
8.4887e-05
8.54477e-05
8.60162e-05
8.65913e-05
8.7172e-05
8.77575e-05
8.83474e-05
8.89413e-05
8.95391e-05
9.01406e-05
9.07455e-05
9.13536e-05
9.19648e-05
9.25787e-05
9.31952e-05
9.38141e-05
9.44351e-05
9.50579e-05
9.56823e-05
9.63079e-05
9.69342e-05
9.75607e-05
9.8187e-05
9.88124e-05
9.94362e-05
0.000100058
0.000100676
0.00010129
0.000101899
0.000102501
0.000103096
0.000103682
0.000104258
0.000104822
0.000105372
0.000105908
0.000106426
0.000106925
0.000107404
0.00010786
0.000108291
0.000108696
0.000109071
0.000109416
0.000109728
0.000110006
0.000110247
0.000110451
0.000110615
0.000110739
0.000110823
0.00011088
0.000110928
7.39204e-05
7.39186e-05
7.39145e-05
7.39083e-05
7.39013e-05
7.38947e-05
7.38898e-05
7.38878e-05
7.38904e-05
7.38988e-05
7.39146e-05
7.3939e-05
7.39733e-05
7.40186e-05
7.40759e-05
7.4146e-05
7.42297e-05
7.43275e-05
7.44398e-05
7.45672e-05
7.47099e-05
7.48681e-05
7.50421e-05
7.52318e-05
7.54373e-05
7.56588e-05
7.58961e-05
7.61492e-05
7.64182e-05
7.67028e-05
7.70031e-05
7.73188e-05
7.765e-05
7.79964e-05
7.8358e-05
7.87346e-05
7.91261e-05
7.95324e-05
7.99533e-05
8.03888e-05
8.08387e-05
8.13029e-05
8.17811e-05
8.22731e-05
8.27783e-05
8.3296e-05
8.38252e-05
8.43647e-05
8.49129e-05
8.54686e-05
8.60306e-05
8.6598e-05
8.71701e-05
8.77466e-05
8.83274e-05
8.89122e-05
8.95009e-05
9.00932e-05
9.0689e-05
9.1288e-05
9.189e-05
9.24948e-05
9.31021e-05
9.37116e-05
9.43231e-05
9.49363e-05
9.55508e-05
9.61661e-05
9.67819e-05
9.73975e-05
9.80124e-05
9.86258e-05
9.92371e-05
9.98453e-05
0.00010045
0.000101049
0.000101642
0.000102228
0.000102805
0.000103372
0.000103928
0.00010447
0.000104998
0.000105509
0.000106001
0.000106473
0.000106923
0.000107348
0.000107747
0.000108118
0.000108458
0.000108766
0.000109039
0.000109277
0.000109477
0.000109638
0.000109759
0.00010984
0.000109896
0.000109943
7.34771e-05
7.34764e-05
7.34748e-05
7.34725e-05
7.34705e-05
7.34698e-05
7.34714e-05
7.34765e-05
7.34862e-05
7.35019e-05
7.35247e-05
7.35558e-05
7.35964e-05
7.36473e-05
7.37095e-05
7.37838e-05
7.38709e-05
7.39713e-05
7.40855e-05
7.4214e-05
7.4357e-05
7.45147e-05
7.46874e-05
7.48753e-05
7.50783e-05
7.52966e-05
7.55302e-05
7.5779e-05
7.60431e-05
7.63224e-05
7.66167e-05
7.69262e-05
7.72506e-05
7.75898e-05
7.79438e-05
7.83125e-05
7.86957e-05
7.90934e-05
7.95053e-05
7.99315e-05
8.03717e-05
8.08259e-05
8.12939e-05
8.17752e-05
8.22694e-05
8.27756e-05
8.32928e-05
8.38197e-05
8.4355e-05
8.48972e-05
8.54453e-05
8.59986e-05
8.65565e-05
8.71187e-05
8.76853e-05
8.8256e-05
8.88308e-05
8.94094e-05
8.99917e-05
9.05773e-05
9.1166e-05
9.17577e-05
9.23519e-05
9.29486e-05
9.35473e-05
9.41478e-05
9.47497e-05
9.53526e-05
9.59559e-05
9.65593e-05
9.7162e-05
9.77634e-05
9.83628e-05
9.89593e-05
9.9552e-05
0.00010014
0.000100722
0.000101297
0.000101863
0.00010242
0.000102966
0.000103499
0.000104017
0.000104519
0.000105003
0.000105466
0.000105908
0.000106326
0.000106718
0.000107082
0.000107416
0.000107718
0.000107986
0.000108219
0.000108415
0.000108572
0.00010869
0.000108768
0.000108821
0.000108868
7.30348e-05
7.3035e-05
7.30354e-05
7.30364e-05
7.30386e-05
7.30427e-05
7.30497e-05
7.30606e-05
7.30764e-05
7.30981e-05
7.31269e-05
7.31637e-05
7.32095e-05
7.32651e-05
7.33315e-05
7.34093e-05
7.34992e-05
7.36018e-05
7.37174e-05
7.38465e-05
7.39894e-05
7.41464e-05
7.43177e-05
7.45035e-05
7.47038e-05
7.49188e-05
7.51484e-05
7.53928e-05
7.56519e-05
7.59256e-05
7.6214e-05
7.65169e-05
7.68344e-05
7.71663e-05
7.75125e-05
7.7873e-05
7.82476e-05
7.86363e-05
7.9039e-05
7.94555e-05
7.98858e-05
8.03297e-05
8.07869e-05
8.12572e-05
8.17398e-05
8.2234e-05
8.27387e-05
8.32525e-05
8.37741e-05
8.43022e-05
8.48358e-05
8.53741e-05
8.59169e-05
8.6464e-05
8.70154e-05
8.7571e-05
8.81308e-05
8.86945e-05
8.9262e-05
8.98329e-05
9.04071e-05
9.09842e-05
9.1564e-05
9.21463e-05
9.27308e-05
9.3317e-05
9.39048e-05
9.44935e-05
9.50829e-05
9.56723e-05
9.62612e-05
9.68488e-05
9.74345e-05
9.80175e-05
9.85969e-05
9.91716e-05
9.97406e-05
0.000100303
0.000100857
0.000101401
0.000101935
0.000102456
0.000102963
0.000103454
0.000103927
0.000104381
0.000104813
0.000105222
0.000105605
0.00010596
0.000106287
0.000106582
0.000106843
0.00010707
0.00010726
0.000107412
0.000107526
0.0001076
0.000107651
0.000107697
7.25923e-05
7.25932e-05
7.25953e-05
7.2599e-05
7.26046e-05
7.26128e-05
7.26243e-05
7.26401e-05
7.26609e-05
7.26877e-05
7.27214e-05
7.27629e-05
7.28131e-05
7.28727e-05
7.29425e-05
7.30232e-05
7.31153e-05
7.32194e-05
7.3336e-05
7.34654e-05
7.36079e-05
7.37639e-05
7.39335e-05
7.41169e-05
7.43143e-05
7.45258e-05
7.47513e-05
7.4991e-05
7.52449e-05
7.5513e-05
7.57951e-05
7.60914e-05
7.64017e-05
7.6726e-05
7.70643e-05
7.74163e-05
7.77822e-05
7.81616e-05
7.85547e-05
7.89613e-05
7.93812e-05
7.98144e-05
8.02606e-05
8.07193e-05
8.11899e-05
8.16716e-05
8.21632e-05
8.26634e-05
8.31707e-05
8.3684e-05
8.42023e-05
8.4725e-05
8.52518e-05
8.57828e-05
8.63181e-05
8.68576e-05
8.74012e-05
8.79489e-05
8.85004e-05
8.90553e-05
8.96135e-05
9.01748e-05
9.07388e-05
9.13052e-05
9.18738e-05
9.24443e-05
9.30163e-05
9.35893e-05
9.41629e-05
9.47366e-05
9.53098e-05
9.58818e-05
9.6452e-05
9.70195e-05
9.75835e-05
9.8143e-05
9.86969e-05
9.92441e-05
9.97835e-05
0.000100314
0.000100833
0.00010134
0.000101834
0.000102311
0.000102772
0.000103213
0.000103634
0.000104031
0.000104404
0.00010475
0.000105066
0.000105352
0.000105606
0.000105825
0.000106009
0.000106155
0.000106263
0.000106333
0.00010638
0.000106425
7.21488e-05
7.21502e-05
7.21537e-05
7.21596e-05
7.2168e-05
7.21796e-05
7.21948e-05
7.22146e-05
7.22395e-05
7.22705e-05
7.23083e-05
7.23537e-05
7.24075e-05
7.24703e-05
7.25429e-05
7.26258e-05
7.27196e-05
7.28249e-05
7.29419e-05
7.30712e-05
7.3213e-05
7.33677e-05
7.35353e-05
7.37162e-05
7.39104e-05
7.41181e-05
7.43394e-05
7.45742e-05
7.48227e-05
7.50849e-05
7.53607e-05
7.56501e-05
7.59531e-05
7.62696e-05
7.65996e-05
7.6943e-05
7.72997e-05
7.76697e-05
7.80529e-05
7.84492e-05
7.88584e-05
7.92805e-05
7.97151e-05
8.01619e-05
8.06201e-05
8.10888e-05
8.15668e-05
8.20527e-05
8.25452e-05
8.3043e-05
8.35452e-05
8.40514e-05
8.45615e-05
8.50756e-05