# vtk DataFile Version 2.0
sampleSurface
ASCII
DATASET POLYDATA
POINTS 652 double
0 0 0
0.02 0 0
0.02 0 0.1
0 0 0.1
0.04 0 0
0.04 0 0.1
0.06 0 0
0.06 0 0.1
0.08 0 0
0.08 0 0.1
0.1 0 0
0.1 0 0.1
0.12 0 0
0.12 0 0.1
0.14 0 0
0.14 0 0.1
0.16 0 0
0.16 0 0.1
0.18 0 0
0.18 0 0.1
0.2 0 0
0.2 0 0.1
0.22 0 0
0.22 0 0.1
0.24 0 0
0.24 0 0.1
0.26 0 0
0.26 0 0.1
0.28 0 0
0.28 0 0.1
0.3 0 0
0.3 0 0.1
0.32 0 0
0.32 0 0.1
0.34 0 0
0.34 0 0.1
0.36 0 0
0.36 0 0.1
0.38 0 0
0.38 0 0.1
0.4 0 0
0.4 0 0.1
0.42 0 0
0.42 0 0.1
0.44 0 0
0.44 0 0.1
0.46 0 0
0.46 0 0.1
0.48 0 0
0.48 0 0.1
0.5 0 0
0.5 0 0.1
0.52 0 0
0.52 0 0.1
0.54 0 0
0.54 0 0.1
0.56 0 0
0.56 0 0.1
0.58 0 0
0.58 0 0.1
0.6 0 0
0.6 0 0.1
0.62 0 0
0.62 0 0.1
0.64 0 0
0.64 0 0.1
0.66 0 0
0.66 0 0.1
0.68 0 0
0.68 0 0.1
0.7 0 0
0.7 0 0.1
0.72 0 0
0.72 0 0.1
0.74 0 0
0.74 0 0.1
0.76 0 0
0.76 0 0.1
0.78 0 0
0.78 0 0.1
0.8 0 0
0.8 0 0.1
0.82 0 0
0.82 0 0.1
0.84 0 0
0.84 0 0.1
0.86 0 0
0.86 0 0.1
0.88 0 0
0.88 0 0.1
0.9 0 0
0.9 0 0.1
0.92 0 0
0.92 0 0.1
0.94 0 0
0.94 0 0.1
0.96 0 0
0.96 0 0.1
0.98 0 0
0.98 0 0.1
1 0 0
1 0 0.1
1.02 0 0
1.02 0 0.1
1.04 0 0
1.04 0 0.1
1.06 0 0
1.06 0 0.1
1.08 0 0
1.08 0 0.1
1.1 0 0
1.1 0 0.1
1.12 0 0
1.12 0 0.1
1.14 0 0
1.14 0 0.1
1.16 0 0
1.16 0 0.1
1.18 0 0
1.18 0 0.1
1.2 0 0
1.2 0 0.1
1.22 0 0
1.22 0 0.1
1.24 0 0
1.24 0 0.1
1.26 0 0
1.26 0 0.1
1.28 0 0
1.28 0 0.1
1.3 0 0
1.3 0 0.1
1.32 0 0
1.32 0 0.1
1.34 0 0
1.34 0 0.1
1.36 0 0
1.36 0 0.1
1.38 0 0
1.38 0 0.1
1.4 0 0
1.4 0 0.1
1.42 0 0
1.42 0 0.1
1.44 0 0
1.44 0 0.1
1.46 0 0
1.46 0 0.1
1.48 0 0
1.48 0 0.1
1.5 0 0
1.5 0 0.1
1.52 0 0
1.52 0 0.1
1.54 0 0
1.54 0 0.1
1.56 0 0
1.56 0 0.1
1.58 0 0
1.58 0 0.1
1.6 0 0
1.6 0 0.1
1.62 0 0
1.62 0 0.1
1.64 0 0
1.64 0 0.1
1.66 0 0
1.66 0 0.1
1.68 0 0
1.68 0 0.1
1.7 0 0
1.7 0 0.1
1.72 0 0
1.72 0 0.1
1.74 0 0
1.74 0 0.1
1.76 0 0
1.76 0 0.1
1.78 0 0
1.78 0 0.1
1.8 0 0
1.8 0 0.1
1.82 0 0
1.82 0 0.1
1.84 0 0
1.84 0 0.1
1.86 0 0
1.86 0 0.1
1.88 0 0
1.88 0 0.1
1.9 0 0
1.9 0 0.1
1.92 0 0
1.92 0 0.1
1.94 0 0
1.94 0 0.1
1.96 0 0
1.96 0 0.1
1.98 0 0
1.98 0 0.1
2 0 0
2 0 0.1
2 0.02 0
2 0.02 0.1
2 0.04 0
2 0.04 0.1
2 0.06 0
2 0.06 0.1
2 0.08 0
2 0.08 0.1
2 0.1 0
2 0.1 0.1
2 0.12 0
2 0.12 0.1
2 0.14 0
2 0.14 0.1
2 0.16 0
2 0.16 0.1
2 0.18 0
2 0.18 0.1
2 0.2 0
2 0.2 0.1
2 0.22 0
2 0.22 0.1
2 0.24 0
2 0.24 0.1
2 0.26 0
2 0.26 0.1
2 0.28 0
2 0.28 0.1
2 0.3 0
2 0.3 0.1
2 0.32 0
2 0.32 0.1
2 0.34 0
2 0.34 0.1
2 0.36 0
2 0.36 0.1
2 0.38 0
2 0.38 0.1
2 0.4 0
2 0.4 0.1
2 0.42 0
2 0.42 0.1
2 0.44 0
2 0.44 0.1
2 0.46 0
2 0.46 0.1
2 0.48 0
2 0.48 0.1
2 0.5 0
2 0.5 0.1
2 0.52 0
2 0.52 0.1
2 0.54 0
2 0.54 0.1
2 0.56 0
2 0.56 0.1
2 0.58 0
2 0.58 0.1
2 0.6 0
2 0.6 0.1
2 0.62 0
2 0.62 0.1
2 0.64 0
2 0.64 0.1
2 0.66 0
2 0.66 0.1
2 0.68 0
2 0.68 0.1
2 0.7 0
2 0.7 0.1
2 0.72 0
2 0.72 0.1
2 0.74 0
2 0.74 0.1
2 0.76 0
2 0.76 0.1
2 0.78 0
2 0.78 0.1
2 0.8 0
2 0.8 0.1
2 0.82 0
2 0.82 0.1
2 0.84 0
2 0.84 0.1
2 0.86 0
2 0.86 0.1
2 0.88 0
2 0.88 0.1
2 0.9 0
2 0.9 0.1
2 0.92 0
2 0.92 0.1
2 0.94 0
2 0.94 0.1
2 0.96 0
2 0.96 0.1
2 0.98 0
2 0.98 0.1
2 1 0
2 1 0.1
2.02 1 0
2.02 1 0.1
2.04 1 0
2.04 1 0.1
2.06 1 0
2.06 1 0.1
2.08 1 0
2.08 1 0.1
2.1 1 0
2.1 1 0.1
2.12 1 0
2.12 1 0.1
2.14 1 0
2.14 1 0.1
2.16 1 0
2.16 1 0.1
2.18 1 0
2.18 1 0.1
2.2 1 0
2.2 1 0.1
2.22 1 0
2.22 1 0.1
2.24 1 0
2.24 1 0.1
2.26 1 0
2.26 1 0.1
2.28 1 0
2.28 1 0.1
2.3 1 0
2.3 1 0.1
2.32 1 0
2.32 1 0.1
2.34 1 0
2.34 1 0.1
2.36 1 0
2.36 1 0.1
2.38 1 0
2.38 1 0.1
2.4 1 0
2.4 1 0.1
2.42 1 0
2.42 1 0.1
2.44 1 0
2.44 1 0.1
2.46 1 0
2.46 1 0.1
2.48 1 0
2.48 1 0.1
2.5 1 0
2.5 1 0.1
2.5 0 0
2.5 0 0.1
2.5 0.02 0.1
2.5 0.02 0
2.5 0.04 0.1
2.5 0.04 0
2.5 0.06 0.1
2.5 0.06 0
2.5 0.08 0.1
2.5 0.08 0
2.5 0.1 0.1
2.5 0.1 0
2.5 0.12 0.1
2.5 0.12 0
2.5 0.14 0.1
2.5 0.14 0
2.5 0.16 0.1
2.5 0.16 0
2.5 0.18 0.1
2.5 0.18 0
2.5 0.2 0.1
2.5 0.2 0
2.5 0.22 0.1
2.5 0.22 0
2.5 0.24 0.1
2.5 0.24 0
2.5 0.26 0.1
2.5 0.26 0
2.5 0.28 0.1
2.5 0.28 0
2.5 0.3 0.1
2.5 0.3 0
2.5 0.32 0.1
2.5 0.32 0
2.5 0.34 0.1
2.5 0.34 0
2.5 0.36 0.1
2.5 0.36 0
2.5 0.38 0.1
2.5 0.38 0
2.5 0.4 0.1
2.5 0.4 0
2.5 0.42 0.1
2.5 0.42 0
2.5 0.44 0.1
2.5 0.44 0
2.5 0.46 0.1
2.5 0.46 0
2.5 0.48 0.1
2.5 0.48 0
2.5 0.5 0.1
2.5 0.5 0
2.5 0.52 0.1
2.5 0.52 0
2.5 0.54 0.1
2.5 0.54 0
2.5 0.56 0.1
2.5 0.56 0
2.5 0.58 0.1
2.5 0.58 0
2.5 0.6 0.1
2.5 0.6 0
2.5 0.62 0.1
2.5 0.62 0
2.5 0.64 0.1
2.5 0.64 0
2.5 0.66 0.1
2.5 0.66 0
2.5 0.68 0.1
2.5 0.68 0
2.5 0.7 0.1
2.5 0.7 0
2.5 0.72 0.1
2.5 0.72 0
2.5 0.74 0.1
2.5 0.74 0
2.5 0.76 0.1
2.5 0.76 0
2.5 0.78 0.1
2.5 0.78 0
2.5 0.8 0.1
2.5 0.8 0
2.5 0.82 0.1
2.5 0.82 0
2.5 0.84 0.1
2.5 0.84 0
2.5 0.86 0.1
2.5 0.86 0
2.5 0.88 0.1
2.5 0.88 0
2.5 0.9 0.1
2.5 0.9 0
2.5 0.92 0.1
2.5 0.92 0
2.5 0.94 0.1
2.5 0.94 0
2.5 0.96 0.1
2.5 0.96 0
2.5 0.98 0.1
2.5 0.98 0
2.52 0 0
2.52 0 0.1
2.54 0 0
2.54 0 0.1
2.56 0 0
2.56 0 0.1
2.58 0 0
2.58 0 0.1
2.6 0 0
2.6 0 0.1
2.62 0 0
2.62 0 0.1
2.64 0 0
2.64 0 0.1
2.66 0 0
2.66 0 0.1
2.68 0 0
2.68 0 0.1
2.7 0 0
2.7 0 0.1
2.72 0 0
2.72 0 0.1
2.74 0 0
2.74 0 0.1
2.76 0 0
2.76 0 0.1
2.78 0 0
2.78 0 0.1
2.8 0 0
2.8 0 0.1
2.82 0 0
2.82 0 0.1
2.84 0 0
2.84 0 0.1
2.86 0 0
2.86 0 0.1
2.88 0 0
2.88 0 0.1
2.9 0 0
2.9 0 0.1
2.92 0 0
2.92 0 0.1
2.94 0 0
2.94 0 0.1
2.96 0 0
2.96 0 0.1
2.98 0 0
2.98 0 0.1
3 0 0
3 0 0.1
3.02 0 0
3.02 0 0.1
3.04 0 0
3.04 0 0.1
3.06 0 0
3.06 0 0.1
3.08 0 0
3.08 0 0.1
3.1 0 0
3.1 0 0.1
3.12 0 0
3.12 0 0.1
3.14 0 0
3.14 0 0.1
3.16 0 0
3.16 0 0.1
3.18 0 0
3.18 0 0.1
3.2 0 0
3.2 0 0.1
3.22 0 0
3.22 0 0.1
3.24 0 0
3.24 0 0.1
3.26 0 0
3.26 0 0.1
3.28 0 0
3.28 0 0.1
3.3 0 0
3.3 0 0.1
3.32 0 0
3.32 0 0.1
3.34 0 0
3.34 0 0.1
3.36 0 0
3.36 0 0.1
3.38 0 0
3.38 0 0.1
3.4 0 0
3.4 0 0.1
3.42 0 0
3.42 0 0.1
3.44 0 0
3.44 0 0.1
3.46 0 0
3.46 0 0.1
3.48 0 0
3.48 0 0.1
3.5 0 0
3.5 0 0.1
3.52 0 0
3.52 0 0.1
3.54 0 0
3.54 0 0.1
3.56 0 0
3.56 0 0.1
3.58 0 0
3.58 0 0.1
3.6 0 0
3.6 0 0.1
3.62 0 0
3.62 0 0.1
3.64 0 0
3.64 0 0.1
3.66 0 0
3.66 0 0.1
3.68 0 0
3.68 0 0.1
3.7 0 0
3.7 0 0.1
3.72 0 0
3.72 0 0.1
3.74 0 0
3.74 0 0.1
3.76 0 0
3.76 0 0.1
3.78 0 0
3.78 0 0.1
3.8 0 0
3.8 0 0.1
3.82 0 0
3.82 0 0.1
3.84 0 0
3.84 0 0.1
3.86 0 0
3.86 0 0.1
3.88 0 0
3.88 0 0.1
3.9 0 0
3.9 0 0.1
3.92 0 0
3.92 0 0.1
3.94 0 0
3.94 0 0.1
3.96 0 0
3.96 0 0.1
3.98 0 0
3.98 0 0.1
4 0 0
4 0 0.1
4.02 0 0
4.02 0 0.1
4.04 0 0
4.04 0 0.1
4.06 0 0
4.06 0 0.1
4.08 0 0
4.08 0 0.1
4.1 0 0
4.1 0 0.1
4.12 0 0
4.12 0 0.1
4.14 0 0
4.14 0 0.1
4.16 0 0
4.16 0 0.1
4.18 0 0
4.18 0 0.1
4.2 0 0
4.2 0 0.1
4.22 0 0
4.22 0 0.1
4.24 0 0
4.24 0 0.1
4.26 0 0
4.26 0 0.1
4.28 0 0
4.28 0 0.1
4.3 0 0
4.3 0 0.1
4.32 0 0
4.32 0 0.1
4.34 0 0
4.34 0 0.1
4.36 0 0
4.36 0 0.1
4.38 0 0
4.38 0 0.1
4.4 0 0
4.4 0 0.1
4.42 0 0
4.42 0 0.1
4.44 0 0
4.44 0 0.1
4.46 0 0
4.46 0 0.1
4.48 0 0
4.48 0 0.1
4.5 0 0
4.5 0 0.1

POLYGONS 325 1625
4 0 1 2 3
4 1 4 5 2
4 4 6 7 5
4 6 8 9 7
4 8 10 11 9
4 10 12 13 11
4 12 14 15 13
4 14 16 17 15
4 16 18 19 17
4 18 20 21 19
4 20 22 23 21
4 22 24 25 23
4 24 26 27 25
4 26 28 29 27
4 28 30 31 29
4 30 32 33 31
4 32 34 35 33
4 34 36 37 35
4 36 38 39 37
4 38 40 41 39
4 40 42 43 41
4 42 44 45 43
4 44 46 47 45
4 46 48 49 47
4 48 50 51 49
4 50 52 53 51
4 52 54 55 53
4 54 56 57 55
4 56 58 59 57
4 58 60 61 59
4 60 62 63 61
4 62 64 65 63
4 64 66 67 65
4 66 68 69 67
4 68 70 71 69
4 70 72 73 71
4 72 74 75 73
4 74 76 77 75
4 76 78 79 77
4 78 80 81 79
4 80 82 83 81
4 82 84 85 83
4 84 86 87 85
4 86 88 89 87
4 88 90 91 89
4 90 92 93 91
4 92 94 95 93
4 94 96 97 95
4 96 98 99 97
4 98 100 101 99
4 100 102 103 101
4 102 104 105 103
4 104 106 107 105
4 106 108 109 107
4 108 110 111 109
4 110 112 113 111
4 112 114 115 113
4 114 116 117 115
4 116 118 119 117
4 118 120 121 119
4 120 122 123 121
4 122 124 125 123
4 124 126 127 125
4 126 128 129 127
4 128 130 131 129
4 130 132 133 131
4 132 134 135 133
4 134 136 137 135
4 136 138 139 137
4 138 140 141 139
4 140 142 143 141
4 142 144 145 143
4 144 146 147 145
4 146 148 149 147
4 148 150 151 149
4 150 152 153 151
4 152 154 155 153
4 154 156 157 155
4 156 158 159 157
4 158 160 161 159
4 160 162 163 161
4 162 164 165 163
4 164 166 167 165
4 166 168 169 167
4 168 170 171 169
4 170 172 173 171
4 172 174 175 173
4 174 176 177 175
4 176 178 179 177
4 178 180 181 179
4 180 182 183 181
4 182 184 185 183
4 184 186 187 185
4 186 188 189 187
4 188 190 191 189
4 190 192 193 191
4 192 194 195 193
4 194 196 197 195
4 196 198 199 197
4 198 200 201 199
4 200 202 203 201
4 202 204 205 203
4 204 206 207 205
4 206 208 209 207
4 208 210 211 209
4 210 212 213 211
4 212 214 215 213
4 214 216 217 215
4 216 218 219 217
4 218 220 221 219
4 220 222 223 221
4 222 224 225 223
4 224 226 227 225
4 226 228 229 227
4 228 230 231 229
4 230 232 233 231
4 232 234 235 233
4 234 236 237 235
4 236 238 239 237
4 238 240 241 239
4 240 242 243 241
4 242 244 245 243
4 244 246 247 245
4 246 248 249 247
4 248 250 251 249
4 250 252 253 251
4 252 254 255 253
4 254 256 257 255
4 256 258 259 257
4 258 260 261 259
4 260 262 263 261
4 262 264 265 263
4 264 266 267 265
4 266 268 269 267
4 268 270 271 269
4 270 272 273 271
4 272 274 275 273
4 274 276 277 275
4 276 278 279 277
4 278 280 281 279
4 280 282 283 281
4 282 284 285 283
4 284 286 287 285
4 286 288 289 287
4 288 290 291 289
4 290 292 293 291
4 292 294 295 293
4 294 296 297 295
4 296 298 299 297
4 298 300 301 299
4 300 302 303 301
4 302 304 305 303
4 304 306 307 305
4 306 308 309 307
4 308 310 311 309
4 310 312 313 311
4 312 314 315 313
4 314 316 317 315
4 316 318 319 317
4 318 320 321 319
4 320 322 323 321
4 322 324 325 323
4 324 326 327 325
4 326 328 329 327
4 328 330 331 329
4 330 332 333 331
4 332 334 335 333
4 334 336 337 335
4 336 338 339 337
4 338 340 341 339
4 340 342 343 341
4 342 344 345 343
4 344 346 347 345
4 346 348 349 347
4 348 350 351 349
4 352 353 354 355
4 355 354 356 357
4 357 356 358 359
4 359 358 360 361
4 361 360 362 363
4 363 362 364 365
4 365 364 366 367
4 367 366 368 369
4 369 368 370 371
4 371 370 372 373
4 373 372 374 375
4 375 374 376 377
4 377 376 378 379
4 379 378 380 381
4 381 380 382 383
4 383 382 384 385
4 385 384 386 387
4 387 386 388 389
4 389 388 390 391
4 391 390 392 393
4 393 392 394 395
4 395 394 396 397
4 397 396 398 399
4 399 398 400 401
4 401 400 402 403
4 403 402 404 405
4 405 404 406 407
4 407 406 408 409
4 409 408 410 411
4 411 410 412 413
4 413 412 414 415
4 415 414 416 417
4 417 416 418 419
4 419 418 420 421
4 421 420 422 423
4 423 422 424 425
4 425 424 426 427
4 427 426 428 429
4 429 428 430 431
4 431 430 432 433
4 433 432 434 435
4 435 434 436 437
4 437 436 438 439
4 439 438 440 441
4 441 440 442 443
4 443 442 444 445
4 445 444 446 447
4 447 446 448 449
4 449 448 450 451
4 451 450 351 350
4 352 452 453 353
4 452 454 455 453
4 454 456 457 455
4 456 458 459 457
4 458 460 461 459
4 460 462 463 461
4 462 464 465 463
4 464 466 467 465
4 466 468 469 467
4 468 470 471 469
4 470 472 473 471
4 472 474 475 473
4 474 476 477 475
4 476 478 479 477
4 478 480 481 479
4 480 482 483 481
4 482 484 485 483
4 484 486 487 485
4 486 488 489 487
4 488 490 491 489
4 490 492 493 491
4 492 494 495 493
4 494 496 497 495
4 496 498 499 497
4 498 500 501 499
4 500 502 503 501
4 502 504 505 503
4 504 506 507 505
4 506 508 509 507
4 508 510 511 509
4 510 512 513 511
4 512 514 515 513
4 514 516 517 515
4 516 518 519 517
4 518 520 521 519
4 520 522 523 521
4 522 524 525 523
4 524 526 527 525
4 526 528 529 527
4 528 530 531 529
4 530 532 533 531
4 532 534 535 533
4 534 536 537 535
4 536 538 539 537
4 538 540 541 539
4 540 542 543 541
4 542 544 545 543
4 544 546 547 545
4 546 548 549 547
4 548 550 551 549
4 550 552 553 551
4 552 554 555 553
4 554 556 557 555
4 556 558 559 557
4 558 560 561 559
4 560 562 563 561
4 562 564 565 563
4 564 566 567 565
4 566 568 569 567
4 568 570 571 569
4 570 572 573 571
4 572 574 575 573
4 574 576 577 575
4 576 578 579 577
4 578 580 581 579
4 580 582 583 581
4 582 584 585 583
4 584 586 587 585
4 586 588 589 587
4 588 590 591 589
4 590 592 593 591
4 592 594 595 593
4 594 596 597 595
4 596 598 599 597
4 598 600 601 599
4 600 602 603 601
4 602 604 605 603
4 604 606 607 605
4 606 608 609 607
4 608 610 611 609
4 610 612 613 611
4 612 614 615 613
4 614 616 617 615
4 616 618 619 617
4 618 620 621 619
4 620 622 623 621
4 622 624 625 623
4 624 626 627 625
4 626 628 629 627
4 628 630 631 629
4 630 632 633 631
4 632 634 635 633
4 634 636 637 635
4 636 638 639 637
4 638 640 641 639
4 640 642 643 641
4 642 644 645 643
4 644 646 647 645
4 646 648 649 647
4 648 650 651 649
POINT_DATA 652
FIELD attributes 1
U 3 652 float
2.49512 -0.0495242 -0.000401225
1.24806 -0.024762 -0.000200613
1.24806 -0.024762 -0.000200613
2.49512 -0.0495242 -0.000401225
0.000994314 -8.90177e-07 0
0.000994314 -8.90177e-07 0
0.000994105 -1.67243e-06 0
0.000994105 -1.67243e-06 0
0.000994117 -8.92883e-08 0
0.000994117 -8.92883e-08 0
0.000992207 2.07844e-06 0
0.000992207 2.07844e-06 0
0.000989503 2.30662e-06 0
0.000989503 2.30662e-06 0
0.000987902 8.367e-07 0
0.000987902 8.367e-07 0
0.000987653 9.68811e-09 0
0.000987653 9.68811e-09 0
0.00098752 1.24207e-06 0
0.00098752 1.24207e-06 0
0.000986275 3.58374e-06 0
0.000986275 3.58374e-06 0
0.000983704 4.85809e-06 0
0.000983704 4.85809e-06 0
0.000980501 3.79167e-06 0
0.000980501 3.79167e-06 0
0.000977692 1.11617e-06 0
0.000977692 1.11617e-06 0
0.000975869 -1.18645e-06 0
0.000975869 -1.18645e-06 0
0.000974677 -1.57204e-06 0
0.000974677 -1.57204e-06 0
0.000973079 3.33479e-08 0
0.000973079 3.33479e-08 0
0.00097013 2.51293e-06 0
0.00097013 2.51293e-06 0
0.000965477 4.5769e-06 0
0.000965477 4.5769e-06 0
0.000959346 5.55573e-06 0
0.000959346 5.55573e-06 0
0.000952304 5.52856e-06 0
0.000952304 5.52856e-06 0
0.000944948 4.96961e-06 0
0.000944948 4.96961e-06 0
0.000937658 4.33664e-06 0
0.000937658 4.33664e-06 0
0.000930535 3.87052e-06 0
0.000930535 3.87052e-06 0
0.000923533 3.61286e-06 0
0.000923533 3.61286e-06 0
0.000916578 3.50983e-06 0
0.000916578 3.50983e-06 0
0.000909617 3.49376e-06 0
0.000909617 3.49376e-06 0
0.000902612 3.51703e-06 0
0.000902612 3.51703e-06 0
0.000895544 3.55496e-06 0
0.000895544 3.55496e-06 0
0.000888403 3.59772e-06 0
0.000888403 3.59772e-06 0
0.000881186 3.64248e-06 0
0.000881186 3.64248e-06 0
0.00087389 3.68884e-06 0
0.00087389 3.68884e-06 0
0.00086651 3.73696e-06 0
0.00086651 3.73696e-06 0
0.000859042 3.78698e-06 0
0.000859042 3.78698e-06 0
0.000851482 3.839e-06 0
0.000851482 3.839e-06 0
0.000843826 3.8931e-06 0
0.000843826 3.8931e-06 0
0.00083607 3.94928e-06 0
0.00083607 3.94928e-06 0
0.00082821 4.00758e-06 0
0.00082821 4.00758e-06 0
0.00082024 4.068e-06 0
0.00082024 4.068e-06 0
0.000812157 4.13056e-06 0
0.000812157 4.13056e-06 0
0.000803956 4.19527e-06 0
0.000803956 4.19527e-06 0
0.000795633 4.26212e-06 0
0.000795633 4.26212e-06 0
0.000787182 4.33112e-06 0
0.000787182 4.33112e-06 0
0.000778601 4.40225e-06 0
0.000778601 4.40225e-06 0
0.000769883 4.47552e-06 0
0.000769883 4.47552e-06 0
0.000761024 4.55091e-06 0
0.000761024 4.55091e-06 0
0.00075202 4.6284e-06 0
0.00075202 4.6284e-06 0
0.000742866 4.70796e-06 0
0.000742866 4.70796e-06 0
0.000733557 4.78956e-06 0
0.000733557 4.78956e-06 0
0.000724089 4.87316e-06 0
0.000724089 4.87316e-06 0
0.000714457 4.95871e-06 0
0.000714457 4.95871e-06 0
0.000704657 5.04616e-06 0
0.000704657 5.04616e-06 0
0.000694684 5.13544e-06 0
0.000694684 5.13544e-06 0
0.000684534 5.22647e-06 0
0.000684534 5.22647e-06 0
0.000674203 5.31917e-06 0
0.000674203 5.31917e-06 0
0.000663686 5.41345e-06 0
0.000663686 5.41345e-06 0
0.00065298 5.50918e-06 0
0.00065298 5.50918e-06 0
0.000642081 5.60627e-06 0
0.000642081 5.60627e-06 0
0.000630984 5.70457e-06 0
0.000630984 5.70457e-06 0
0.000619687 5.80394e-06 0
0.000619687 5.80394e-06 0
0.000608187 5.90425e-06 0
0.000608187 5.90425e-06 0
0.000596479 6.00535e-06 0
0.000596479 6.00535e-06 0
0.000584563 6.10708e-06 0
0.000584563 6.10708e-06 0
0.000572434 6.20929e-06 0
0.000572434 6.20929e-06 0
0.000560092 6.31182e-06 0
0.000560092 6.31182e-06 0
0.000547535 6.41447e-06 0
0.000547535 6.41447e-06 0
0.000534761 6.5171e-06 0
0.000534761 6.5171e-06 0
0.00052177 6.61963e-06 0
0.00052177 6.61963e-06 0
0.000508562 6.72167e-06 0
0.000508562 6.72167e-06 0
0.00049514 6.82216e-06 0
0.00049514 6.82216e-06 0
0.000481502 6.91986e-06 0
0.000481502 6.91986e-06 0
0.00046765 7.01398e-06 0
0.00046765 7.01398e-06 0
0.000453586 7.10418e-06 0
0.000453586 7.10418e-06 0
0.000439312 7.19022e-06 0
0.000439312 7.19022e-06 0
0.000424833 7.27179e-06 0
0.000424833 7.27179e-06 0
0.000410152 7.34851e-06 0
0.000410152 7.34851e-06 0
0.000395274 7.42005e-06 0
0.000395274 7.42005e-06 0
0.000380205 7.48612e-06 0
0.000380205 7.48612e-06 0
0.000364951 7.54643e-06 0
0.000364951 7.54643e-06 0
0.000349518 7.60075e-06 0
0.000349518 7.60075e-06 0
0.000333915 7.6489e-06 0
0.000333915 7.6489e-06 0
0.00031815 7.69074e-06 0
0.00031815 7.69074e-06 0
0.00030223 7.72622e-06 0
0.00030223 7.72622e-06 0
0.000286166 7.75538e-06 0
0.000286166 7.75538e-06 0
0.000269966 7.77832e-06 0
0.000269966 7.77832e-06 0
0.00025364 7.79527e-06 0
0.00025364 7.79527e-06 0
0.000237197 7.80654e-06 0
0.000237197 7.80654e-06 0
0.000220649 7.81253e-06 0
0.000220649 7.81253e-06 0
0.000204005 7.81378e-06 0
0.000204005 7.81378e-06 0
0.000187274 7.81087e-06 0
0.000187274 7.81087e-06 0
0.000170467 7.80449e-06 0
0.000170467 7.80449e-06 0
0.000153592 7.79538e-06 0
0.000153592 7.79538e-06 0
0.000136659 7.78432e-06 0
0.000136659 7.78432e-06 0
0.000119675 7.77214e-06 0
0.000119675 7.77214e-06 0
0.000102649 7.75962e-06 0
0.000102649 7.75962e-06 0
8.55878e-05 7.74755e-06 0
8.55878e-05 7.74755e-06 0
6.84988e-05 7.73666e-06 0
6.84988e-05 7.73666e-06 0
5.1388e-05 7.72728e-06 0
5.1388e-05 7.72728e-06 0
3.42622e-05 7.71941e-06 0
3.42622e-05 7.71941e-06 0
1.71269e-05 7.71447e-06 0
1.71269e-05 7.71447e-06 0
8.55714e-06 7.71307e-06 0
8.55714e-06 7.71307e-06 0
9.22439e-06 1.72158e-05 0
9.22439e-06 1.72158e-05 0
9.73071e-06 3.68093e-05 0
9.73071e-06 3.68093e-05 0
9.49675e-06 5.61836e-05 0
9.49675e-06 5.61836e-05 0
9.42076e-06 7.49198e-05 0
9.42076e-06 7.49198e-05 0
9.43618e-06 9.38326e-05 0
9.43618e-06 9.38326e-05 0
9.47907e-06 0.000112781 0
9.47907e-06 0.000112781 0
9.53212e-06 0.000131812 0
9.53212e-06 0.000131812 0
9.59334e-06 0.000150958 0
9.59334e-06 0.000150958 0
9.66326e-06 0.000170237 0
9.66326e-06 0.000170237 0
9.74247e-06 0.000189665 0
9.74247e-06 0.000189665 0
9.83147e-06 0.00020926 0
9.83147e-06 0.00020926 0
9.93077e-06 0.000229043 0
9.93077e-06 0.000229043 0
1.00409e-05 0.000249036 0
1.00409e-05 0.000249036 0
1.01626e-05 0.00026926 0
1.01626e-05 0.00026926 0
1.02966e-05 0.000289739 0
1.02966e-05 0.000289739 0
1.04437e-05 0.000310498 0
1.04437e-05 0.000310498 0
1.06049e-05 0.000331566 0
1.06049e-05 0.000331566 0
1.07812e-05 0.00035297 0
1.07812e-05 0.00035297 0
1.09739e-05 0.000374742 0
1.09739e-05 0.000374742 0
1.11845e-05 0.000396917 0
1.11845e-05 0.000396917 0
1.14145e-05 0.000419531 0
1.14145e-05 0.000419531 0
1.16657e-05 0.000442626 0
1.16657e-05 0.000442626 0
1.19406e-05 0.000466245 0
1.19406e-05 0.000466245 0
1.22407e-05 0.000490438 0
1.22407e-05 0.000490438 0
1.25707e-05 0.000515259 0
1.25707e-05 0.000515259 0
1.29321e-05 0.00054077 0
1.29321e-05 0.00054077 0
1.33265e-05 0.000567033 0
1.33265e-05 0.000567033 0
1.37738e-05 0.000594138 0
1.37738e-05 0.000594138 0
1.42391e-05 0.000622144 0
1.42391e-05 0.000622144 0
1.4799e-05 0.000651194 0
1.4799e-05 0.000651194 0
1.53803e-05 0.000681337 0
1.53803e-05 0.000681337 0
1.60451e-05 0.000712774 0
1.60451e-05 0.000712774 0
1.68022e-05 0.000745597 0
1.68022e-05 0.000745597 0
1.76636e-05 0.000780018 0
1.76636e-05 0.000780018 0
1.85512e-05 0.000816167 0
1.85512e-05 0.000816167 0
1.98171e-05 0.000854557 0
1.98171e-05 0.000854557 0
2.07954e-05 0.000894963 0
2.07954e-05 0.000894963 0
2.26047e-05 0.000938423 0
2.26047e-05 0.000938423 0
2.40751e-05 0.000984606 0
2.40751e-05 0.000984606 0
2.66898e-05 0.0010354 0
2.66898e-05 0.0010354 0
2.78697e-05 0.00108928 0
2.78697e-05 0.00108928 0
3.307e-05 0.00115032 0
3.307e-05 0.00115032 0
3.44261e-05 0.00121593 0
3.44261e-05 0.00121593 0
4.41211e-05 0.0012938 0
4.41211e-05 0.0012938 0
4.47816e-05 0.00137918 0
4.47816e-05 0.00137918 0
6.65399e-05 0.00148661 0
6.65399e-05 0.00148661 0
6.9563e-05 0.00161359 0
6.9563e-05 0.00161359 0
0.000131526 0.0017855 0
0.000131526 0.0017855 0
0.000159901 0.00202057 0
0.000159901 0.00202057 0
0.000202245 0.00130236 0
0.000202245 0.00130236 0
-0.000201916 5.31388e-05 0
-0.000201916 5.31388e-05 0
-0.000177463 -0.000313289 0
-0.000177463 -0.000313289 0
-0.000191993 7.99859e-05 0
-0.000191993 7.99859e-05 0
-0.00108205 0.000479187 0
-0.00108205 0.000479187 0
-0.00193424 0.000498178 0
-0.00193424 0.000498178 0
-0.00274888 0.000396777 0
-0.00274888 0.000396777 0
-0.00327104 0.000246274 0
-0.00327104 0.000246274 0
-0.00352421 8.70154e-05 0
-0.00352421 8.70154e-05 0
-0.00348177 -6.00881e-05 0
-0.00348177 -6.00881e-05 0
-0.00321952 -0.000176421 0
-0.00321952 -0.000176421 0
-0.00277784 -0.000257479 0
-0.00277784 -0.000257479 0
-0.00222141 -0.000303077 0
-0.00222141 -0.000303077 0
-0.00161564 -0.000317587 0
-0.00161564 -0.000317587 0
-0.001012 -0.000304178 0
-0.001012 -0.000304178 0
-0.000451314 -0.000265909 0
-0.000451314 -0.000265909 0
2.75051e-05 -0.000223526 0
2.75051e-05 -0.000223526 0
0.000422094 -0.000184996 0
0.000422094 -0.000184996 0
0.000736605 -0.000146265 0
0.000736605 -0.000146265 0
0.000987572 -0.000116711 0
0.000987572 -0.000116711 0
0.00118414 -9.1433e-05 0
0.00118414 -9.1433e-05 0
0.00134317 -7.59792e-05 0
0.00134317 -7.59792e-05 0
0.0014749 -5.94064e-05 0
0.0014749 -5.94064e-05 0
0.00159361 -5.49378e-05 0
0.00159361 -5.49378e-05 0
0.00170181 -4.23031e-05 0
0.00170181 -4.23031e-05 0
0.000956275 -3.2184e-05 0
0.000956275 -3.2184e-05 0
2.96258e-06 -3.46592e-06 0
2.96258e-06 -3.46592e-06 0
2.95353e-06 -6.93515e-06 0
2.95353e-06 -6.93515e-06 0
2.92507e-06 -1.38464e-05 0
2.92507e-06 -1.38464e-05 0
2.87564e-06 -2.06835e-05 0
2.87564e-06 -2.06835e-05 0
2.80472e-06 -2.74067e-05 0
2.80472e-06 -2.74067e-05 0
2.71172e-06 -3.39751e-05 0
2.71172e-06 -3.39751e-05 0
2.59551e-06 -4.03456e-05 0
2.59551e-06 -4.03456e-05 0
2.45452e-06 -4.64718e-05 0
2.45452e-06 -4.64718e-05 0
2.2868e-06 -5.23035e-05 0
2.2868e-06 -5.23035e-05 0
2.08999e-06 -5.77861e-05 0
2.08999e-06 -5.77861e-05 0
1.86125e-06 -6.28588e-05 0
1.86125e-06 -6.28588e-05 0
1.59719e-06 -6.74545e-05 0
1.59719e-06 -6.74545e-05 0
1.2937e-06 -7.14976e-05 0
1.2937e-06 -7.14976e-05 0
9.45782e-07 -7.4903e-05 0
9.45782e-07 -7.4903e-05 0
5.47231e-07 -7.75739e-05 0
5.47231e-07 -7.75739e-05 0
9.02487e-08 -7.93998e-05 0
9.02487e-08 -7.93998e-05 0
-4.34436e-07 -8.02552e-05 0
-4.34436e-07 -8.02552e-05 0
-1.03308e-06 -7.99917e-05 0
-1.03308e-06 -7.99917e-05 0
-1.7137e-06 -7.84327e-05 0
-1.7137e-06 -7.84327e-05 0
-2.49274e-06 -7.53773e-05 0
-2.49274e-06 -7.53773e-05 0
-3.38798e-06 -7.05925e-05 0
-3.38798e-06 -7.05925e-05 0
-4.41828e-06 -6.38026e-05 0
-4.41828e-06 -6.38026e-05 0
-5.60786e-06 -5.46831e-05 0
-5.60786e-06 -5.46831e-05 0
-6.98596e-06 -4.28545e-05 0
-6.98596e-06 -4.28545e-05 0
-8.58568e-06 -2.78602e-05 0
-8.58568e-06 -2.78602e-05 0
-1.0452e-05 -9.20819e-06 0
-1.0452e-05 -9.20819e-06 0
-1.26129e-05 1.3801e-05 0
-1.26129e-05 1.3801e-05 0
-1.51626e-05 4.1893e-05 0
-1.51626e-05 4.1893e-05 0
-1.81928e-05 7.61179e-05 0
-1.81928e-05 7.61179e-05 0
-2.17566e-05 0.000117173 0
-2.17566e-05 0.000117173 0
-2.59026e-05 0.000166776 0
-2.59026e-05 0.000166776 0
-3.07902e-05 0.000225321 0
-3.07902e-05 0.000225321 0
-3.61409e-05 0.000295432 0
-3.61409e-05 0.000295432 0
-4.2671e-05 0.000376668 0
-4.2671e-05 0.000376668 0
-4.85303e-05 0.000472205 0
-4.85303e-05 0.000472205 0
-5.46195e-05 0.000579382 0
-5.46195e-05 0.000579382 0
-6.22301e-05 0.000699481 0
-6.22301e-05 0.000699481 0
-6.57709e-05 0.000832154 0
-6.57709e-05 0.000832154 0
-6.373e-05 0.000968646 0
-6.373e-05 0.000968646 0
-5.85936e-05 0.00110082 0
-5.85936e-05 0.00110082 0
-4.8986e-05 0.00122173 0
-4.8986e-05 0.00122173 0
-3.13993e-05 0.00131285 0
-3.13993e-05 0.00131285 0
-2.38892e-06 0.00136174 0
-2.38892e-06 0.00136174 0
3.80318e-05 0.00133906 0
3.80318e-05 0.00133906 0
8.79134e-05 0.00124251 0
8.79134e-05 0.00124251 0
0.00013103 0.00104073 0
0.00013103 0.00104073 0
0.000162435 0.000795252 0
0.000162435 0.000795252 0
0.000139575 0.00046757 0
0.000139575 0.00046757 0
5.09159e-05 0.000251069 0
5.09159e-05 0.000251069 0
8.22012e-05 0.000107661 0
8.22012e-05 0.000107661 0
6.97316e-06 -3.82333e-06 0
6.97316e-06 -3.82333e-06 0
1.52699e-05 -4.09217e-06 0
1.52699e-05 -4.09217e-06 0
2.34003e-05 -3.99279e-06 0
2.34003e-05 -3.99279e-06 0
3.13056e-05 -4.012e-06 0
3.13056e-05 -4.012e-06 0
3.94628e-05 -4.08518e-06 0
3.94628e-05 -4.08518e-06 0
4.77446e-05 -4.17853e-06 0
4.77446e-05 -4.17853e-06 0
5.62252e-05 -4.28481e-06 0
5.62252e-05 -4.28481e-06 0
6.49327e-05 -4.40221e-06 0
6.49327e-05 -4.40221e-06 0
7.38854e-05 -4.52907e-06 0
7.38854e-05 -4.52907e-06 0
8.31004e-05 -4.66343e-06 0
8.31004e-05 -4.66343e-06 0
9.25908e-05 -4.80326e-06 0
9.25908e-05 -4.80326e-06 0
0.000102365 -4.94649e-06 0
0.000102365 -4.94649e-06 0
0.000112429 -5.09106e-06 0
0.000112429 -5.09106e-06 0
0.000122781 -5.23498e-06 0
0.000122781 -5.23498e-06 0
0.00013342 -5.37634e-06 0
0.00013342 -5.37634e-06 0
0.000144337 -5.51335e-06 0
0.000144337 -5.51335e-06 0
0.000155524 -5.6444e-06 0
0.000155524 -5.6444e-06 0
0.000166965 -5.76803e-06 0
0.000166965 -5.76803e-06 0
0.000178646 -5.88297e-06 0
0.000178646 -5.88297e-06 0
0.000190546 -5.98815e-06 0
0.000190546 -5.98815e-06 0
0.000202647 -6.08265e-06 0
0.000202647 -6.08265e-06 0
0.000214926 -6.16577e-06 0
0.000214926 -6.16577e-06 0
0.000227359 -6.23699e-06 0
0.000227359 -6.23699e-06 0
0.000239922 -6.29596e-06 0
0.000239922 -6.29596e-06 0
0.000252591 -6.34252e-06 0
0.000252591 -6.34252e-06 0
0.000265341 -6.37663e-06 0
0.000265341 -6.37663e-06 0
0.000278146 -6.39843e-06 0
0.000278146 -6.39843e-06 0
0.000290983 -6.40815e-06 0
0.000290983 -6.40815e-06 0
0.000303827 -6.40613e-06 0
0.000303827 -6.40613e-06 0
0.000316656 -6.39283e-06 0
0.000316656 -6.39283e-06 0
0.000329446 -6.36876e-06 0
0.000329446 -6.36876e-06 0
0.000342179 -6.33449e-06 0
0.000342179 -6.33449e-06 0
0.000354832 -6.29065e-06 0
0.000354832 -6.29065e-06 0
0.000367389 -6.23788e-06 0
0.000367389 -6.23788e-06 0
0.000379831 -6.17687e-06 0
0.000379831 -6.17687e-06 0
0.000392144 -6.10829e-06 0
0.000392144 -6.10829e-06 0
0.000404311 -6.03284e-06 0
0.000404311 -6.03284e-06 0
0.000416321 -5.95118e-06 0
0.000416321 -5.95118e-06 0
0.000428162 -5.86399e-06 0
0.000428162 -5.86399e-06 0
0.000439822 -5.77189e-06 0
0.000439822 -5.77189e-06 0
0.000451294 -5.67551e-06 0
0.000451294 -5.67551e-06 0
0.000462568 -5.57543e-06 0
0.000462568 -5.57543e-06 0
0.000473638 -5.4722e-06 0
0.000473638 -5.4722e-06 0
0.000484499 -5.36636e-06 0
0.000484499 -5.36636e-06 0
0.000495145 -5.25839e-06 0
0.000495145 -5.25839e-06 0
0.000505573 -5.14874e-06 0
0.000505573 -5.14874e-06 0
0.00051578 -5.03784e-06 0
0.00051578 -5.03784e-06 0
0.000525763 -4.92607e-06 0
0.000525763 -4.92607e-06 0
0.000535522 -4.81378e-06 0
0.000535522 -4.81378e-06 0
0.000545056 -4.70129e-06 0
0.000545056 -4.70129e-06 0
0.000554364 -4.5889e-06 0
0.000554364 -4.5889e-06 0
0.000563447 -4.47687e-06 0
0.000563447 -4.47687e-06 0
0.000572306 -4.36542e-06 0
0.000572306 -4.36542e-06 0
0.000580942 -4.25476e-06 0
0.000580942 -4.25476e-06 0
0.000589358 -4.14508e-06 0
0.000589358 -4.14508e-06 0
0.000597555 -4.03654e-06 0
0.000597555 -4.03654e-06 0
0.000605536 -3.92926e-06 0
0.000605536 -3.92926e-06 0
0.000613303 -3.82339e-06 0
0.000613303 -3.82339e-06 0
0.000620859 -3.719e-06 0
0.000620859 -3.719e-06 0
0.000628208 -3.61619e-06 0
0.000628208 -3.61619e-06 0
0.000635352 -3.51502e-06 0
0.000635352 -3.51502e-06 0
0.000642296 -3.41556e-06 0
0.000642296 -3.41556e-06 0
0.000649041 -3.31784e-06 0
0.000649041 -3.31784e-06 0
0.000655593 -3.2219e-06 0
0.000655593 -3.2219e-06 0
0.000661955 -3.12775e-06 0
0.000661955 -3.12775e-06 0
0.000668129 -3.03542e-06 0
0.000668129 -3.03542e-06 0
0.000674121 -2.9449e-06 0
0.000674121 -2.9449e-06 0
0.000679932 -2.85619e-06 0
0.000679932 -2.85619e-06 0
0.000685568 -2.76929e-06 0
0.000685568 -2.76929e-06 0
0.000691032 -2.68417e-06 0
0.000691032 -2.68417e-06 0
0.000696327 -2.60082e-06 0
0.000696327 -2.60082e-06 0
0.000701456 -2.51922e-06 0
0.000701456 -2.51922e-06 0
0.000706424 -2.43933e-06 0
0.000706424 -2.43933e-06 0
0.000711233 -2.36112e-06 0
0.000711233 -2.36112e-06 0
0.000715888 -2.28457e-06 0
0.000715888 -2.28457e-06 0
0.000720391 -2.20963e-06 0
0.000720391 -2.20963e-06 0
0.000724745 -2.13626e-06 0
0.000724745 -2.13626e-06 0
0.000728953 -2.06443e-06 0
0.000728953 -2.06443e-06 0
0.00073302 -1.99408e-06 0
0.00073302 -1.99408e-06 0
0.000736946 -1.92519e-06 0
0.000736946 -1.92519e-06 0
0.000740737 -1.85769e-06 0
0.000740737 -1.85769e-06 0
0.000744393 -1.79156e-06 0
0.000744393 -1.79156e-06 0
0.000747918 -1.72672e-06 0
0.000747918 -1.72672e-06 0
0.000751315 -1.66318e-06 0
0.000751315 -1.66318e-06 0
0.000754585 -1.60081e-06 0
0.000754585 -1.60081e-06 0
0.000757732 -1.53967e-06 0
0.000757732 -1.53967e-06 0
0.000760758 -1.47957e-06 0
0.000760758 -1.47957e-06 0
0.000763663 -1.42065e-06 0
0.000763663 -1.42065e-06 0
0.000766454 -1.36262e-06 0
0.000766454 -1.36262e-06 0
0.000769124 -1.30578e-06 0
0.000769124 -1.30578e-06 0
0.00077169 -1.2495e-06 0
0.00077169 -1.2495e-06 0
0.000774131 -1.19474e-06 0
0.000774131 -1.19474e-06 0
0.000776485 -1.13984e-06 0
0.000776485 -1.13984e-06 0
0.000778693 -1.08714e-06 0
0.000778693 -1.08714e-06 0
0.000780855 -1.0331e-06 0
0.000780855 -1.0331e-06 0
0.000782816 -9.82959e-07 0
0.000782816 -9.82959e-07 0
0.000784825 -9.28458e-07 0
0.000784825 -9.28458e-07 0
0.000786486 -8.82254e-07 0
0.000786486 -8.82254e-07 0
0.988039 -0.000975138 0
0.988039 -0.000975138 0
1.97529 -0.00194941 0
1.97529 -0.00194941 0
