/*--------------------------------*- C++ -*----------------------------------*\
| =========                 |                                                 |
| \\      /  F ield         | OpenFOAM: The Open Source CFD Toolbox           |
|  \\    /   O peration     | Version:  4.1                                   |
|   \\  /    A nd           | Web:      www.OpenFOAM.org                      |
|    \\/     M anipulation  |                                                 |
\*---------------------------------------------------------------------------*/
FoamFile
{
    version     2.0;
    format      ascii;
    class       volScalarField;
    location    "0.16";
    object      k;
}
// * * * * * * * * * * * * * * * * * * * * * * * * * * * * * * * * * * * * * //

dimensions      [0 2 -2 0 0 0 0];

internalField   nonuniform List<scalar> 
43750
(
0.384097
0.392935
0.401494
0.409758
0.417718
0.425365
0.432692
0.43969
0.446349
0.45266
0.458614
0.464202
0.469415
0.474245
0.478684
0.482726
0.486362
0.489587
0.492394
0.494779
0.496734
0.498255
0.499338
0.499977
0.500168
0.499906
0.499188
0.498009
0.496365
0.494253
0.491671
0.488615
0.485084
0.481078
0.476599
0.47165
0.466239
0.460376
0.454076
0.447359
0.440254
0.432794
0.425024
0.416993
0.408763
0.400397
0.391969
0.383548
0.375203
0.366995
0.358971
0.351162
0.343587
0.336245
0.329133
0.32224
0.315562
0.309095
0.302838
0.296781
0.290897
0.285139
0.279436
0.273702
0.267848
0.261795
0.255483
0.248886
0.242013
0.234897
0.227594
0.22016
0.212641
0.205068
0.197452
0.189791
0.182075
0.174293
0.166435
0.158493
0.150468
0.142368
0.134215
0.12603
0.118058
0.110396
0.103023
0.0959446
0.0891974
0.0828335
0.0769079
0.0714915
0.0669551
0.0633247
0.0600016
0.0568217
0.0538213
0.051035
0.0485027
0.0453204
0.349405
0.327118
0.307712
0.290755
0.275902
0.262865
0.251405
0.241325
0.232458
0.224667
0.217833
0.211856
0.206651
0.202143
0.19827
0.194978
0.192221
0.189958
0.188157
0.18679
0.185834
0.185269
0.185083
0.185265
0.185808
0.186709
0.187971
0.189598
0.191599
0.193987
0.196779
0.199995
0.203663
0.207811
0.212476
0.217698
0.223522
0.229999
0.237185
0.245139
0.253924
0.263607
0.274252
0.285926
0.298687
0.312586
0.327664
0.343945
0.361435
0.380122
0.39997
0.420929
0.44293
0.465895
0.489737
0.514369
0.539695
0.565604
0.591958
0.618573
0.645202
0.671515
0.69709
0.721408
0.743859
0.763779
0.780519
0.79354
0.802519
0.807421
0.808494
0.806177
0.80095
0.79318
0.783044
0.770541
0.755568
0.738005
0.717755
0.694762
0.668999
0.640471
0.60923
0.575388
0.539129
0.500714
0.460517
0.418974
0.376653
0.334237
0.292483
0.252227
0.214066
0.178657
0.147248
0.120646
0.0992804
0.0830734
0.0704991
0.0512152
0.349122
0.326223
0.30592
0.287815
0.271586
0.25697
0.243754
0.231759
0.220837
0.210863
0.201733
0.193356
0.185657
0.178572
0.172043
0.166023
0.160469
0.155345
0.15062
0.146266
0.142258
0.138576
0.135201
0.132117
0.129311
0.126771
0.124487
0.122452
0.120657
0.1191
0.117775
0.116681
0.115818
0.115187
0.114789
0.114629
0.114712
0.115043
0.115631
0.116484
0.117612
0.119025
0.120736
0.122756
0.125099
0.12778
0.130816
0.134229
0.138042
0.142289
0.147006
0.152238
0.158034
0.164446
0.171518
0.179288
0.187784
0.19702
0.20701
0.217767
0.229313
0.241668
0.254831
0.268738
0.283225
0.297992
0.312617
0.32661
0.339508
0.350982
0.360904
0.369339
0.376475
0.38251
0.387567
0.391657
0.394692
0.396523
0.396976
0.395867
0.393009
0.388212
0.381292
0.372085
0.360463
0.346356
0.329771
0.310815
0.289712
0.26683
0.242675
0.217891
0.193229
0.169491
0.147468
0.127874
0.111262
0.0979062
0.0862523
0.0590234
0.349121
0.326216
0.3059
0.287772
0.271508
0.256843
0.24356
0.231478
0.220446
0.210338
0.201044
0.192474
0.184549
0.177202
0.170374
0.164015
0.158081
0.152534
0.147341
0.142471
0.137899
0.133603
0.129563
0.12576
0.122181
0.118811
0.11564
0.112656
0.109852
0.10722
0.104755
0.102452
0.100307
0.0983175
0.0964819
0.0947993
0.0932696
0.0918935
0.090672
0.0896066
0.0886986
0.0879497
0.0873611
0.0869338
0.0866683
0.086565
0.0866241
0.0868464
0.0872338
0.0877902
0.0885223
0.0894404
0.0905582
0.0918932
0.0934648
0.0952936
0.0973997
0.0998025
0.102521
0.105578
0.108998
0.112812
0.117051
0.121735
0.12686
0.132383
0.138204
0.144175
0.150117
0.155858
0.161267
0.166288
0.170937
0.175277
0.179377
0.183271
0.186947
0.190351
0.193407
0.196025
0.19811
0.19956
0.200264
0.200102
0.198958
0.196722
0.193308
0.188657
0.18276
0.175665
0.167493
0.158441
0.148782
0.138851
0.129029
0.119715
0.111281
0.104036
0.0961902
0.064979
0.349121
0.326216
0.305898
0.287768
0.271501
0.256833
0.243547
0.231461
0.220425
0.21031
0.201009
0.19243
0.184494
0.177132
0.170286
0.163905
0.157944
0.152364
0.14713
0.142211
0.137582
0.133218
0.129098
0.125203
0.121516
0.118022
0.114707
0.111561
0.108571
0.105728
0.103024
0.100451
0.0980036
0.0956748
0.0934603
0.0913558
0.089358
0.0874643
0.0856726
0.0839817
0.0823907
0.0808993
0.0795079
0.0782169
0.0770273
0.07594
0.0749565
0.0740781
0.0733066
0.0726442
0.0720937
0.0716588
0.0713444
0.0711566
0.0711028
0.0711916
0.0714323
0.0718347
0.0724093
0.0731672
0.0741209
0.0752845
0.0766742
0.0783067
0.0801969
0.0823527
0.0847672
0.0874107
0.0902271
0.0931368
0.096049
0.098881
0.101577
0.104117
0.106515
0.108802
0.111002
0.113128
0.115171
0.11711
0.11892
0.120567
0.122016
0.123226
0.124156
0.124761
0.125002
0.124846
0.12427
0.12327
0.121857
0.12007
0.117965
0.115621
0.113129
0.110587
0.108082
0.105695
0.101294
0.0689788
0.349121
0.326216
0.305897
0.287766
0.271498
0.25683
0.243543
0.231457
0.220419
0.210304
0.201003
0.192423
0.184487
0.177124
0.170278
0.163896
0.157933
0.152351
0.147114
0.142193
0.137559
0.133189
0.129062
0.125158
0.12146
0.117952
0.114621
0.111453
0.108439
0.105566
0.102827
0.100212
0.097715
0.0953278
0.0930448
0.0908603
0.0887694
0.0867678
0.0848516
0.0830174
0.0812624
0.0795841
0.0779806
0.0764503
0.0749922
0.0736053
0.0722892
0.071044
0.0698698
0.0687673
0.0677378
0.066783
0.0659055
0.0651086
0.0643971
0.0637767
0.0632544
0.0628386
0.0625388
0.0623658
0.0623319
0.0624509
0.0627388
0.0632137
0.0638957
0.0648045
0.0659549
0.0673494
0.0689697
0.0707713
0.0726855
0.0746306
0.0765308
0.0783351
0.0800268
0.0816188
0.083139
0.0846139
0.0860595
0.0874797
0.0888698
0.0902209
0.0915219
0.0927613
0.0939276
0.0950115
0.096007
0.0969137
0.0977381
0.0984953
0.0992088
0.0999083
0.100625
0.101384
0.102188
0.103009
0.103765
0.104329
0.102327
0.0713764
0.349121
0.326216
0.305897
0.287766
0.271497
0.256828
0.24354
0.231453
0.220416
0.2103
0.200998
0.192418
0.184481
0.177119
0.170272
0.16389
0.157927
0.152344
0.147108
0.142186
0.137552
0.133182
0.129055
0.12515
0.121451
0.117942
0.114609
0.111439
0.108422
0.105545
0.102802
0.100181
0.0976761
0.0952796
0.0929852
0.0907867
0.0886789
0.0866567
0.0847159
0.0828522
0.0810623
0.0793427
0.0776908
0.076104
0.0745801
0.0731174
0.0717143
0.0703697
0.0690827
0.0678527
0.0666795
0.0655636
0.0645057
0.0635075
0.0625714
0.0617009
0.0609008
0.0601771
0.0595377
0.0589919
0.0585513
0.0582301
0.0580448
0.0580143
0.058158
0.0584934
0.0590323
0.0597775
0.060718
0.0618273
0.0630627
0.0643705
0.0656961
0.0669968
0.0682507
0.0694585
0.0706355
0.0718015
0.0729723
0.0741564
0.0753551
0.0765655
0.0777821
0.0789984
0.0802087
0.0814089
0.082599
0.0837853
0.0849826
0.0862162
0.0875229
0.0889484
0.0905419
0.0923433
0.0943627
0.096557
0.0987878
0.100836
0.100281
0.0726425
0.349121
0.326216
0.305897
0.287765
0.271497
0.256827
0.243539
0.231452
0.220414
0.210298
0.200996
0.192416
0.184479
0.177117
0.17027
0.163888
0.157926
0.152343
0.147107
0.142186
0.137552
0.133183
0.129055
0.125151
0.121452
0.117943
0.11461
0.111441
0.108423
0.105547
0.102802
0.100181
0.0976754
0.0952776
0.0929813
0.0907804
0.0886694
0.0866432
0.0846973
0.0828273
0.0810293
0.0793
0.0776361
0.0760349
0.0744936
0.0730102
0.0715825
0.0702091
0.0688885
0.0676196
0.0664019
0.065235
0.0641194
0.0630558
0.0620461
0.0610929
0.0602001
0.0593729
0.0586179
0.0579439
0.0573618
0.0568857
0.0565321
0.0563197
0.0562658
0.0563822
0.0566708
0.0571202
0.0577077
0.0584036
0.0591781
0.0600048
0.0608627
0.0617367
0.0626182
0.0635062
0.0644054
0.0653242
0.0662712
0.0672534
0.0682745
0.0693355
0.0704351
0.0715701
0.0727369
0.073932
0.0751543
0.0764066
0.0776994
0.0790532
0.0805018
0.0820921
0.0838806
0.0859221
0.0882468
0.0908317
0.0935422
0.0961471
0.0963573
0.0732723
0.349121
0.326216
0.305898
0.287766
0.271497
0.256827
0.243539
0.231451
0.220413
0.210297
0.200995
0.192415
0.184478
0.177116
0.17027
0.163888
0.157925
0.152344
0.147107
0.142186
0.137553
0.133184
0.129057
0.125153
0.121454
0.117946
0.114614
0.111445
0.108427
0.105552
0.102808
0.100187
0.0976811
0.0952836
0.0929874
0.0907865
0.0886754
0.0866489
0.0847023
0.0828313
0.081032
0.0793007
0.0776342
0.0760294
0.0744836
0.0729943
0.0715595
0.0701771
0.0688456
0.0675636
0.0663303
0.0651452
0.0640082
0.0629201
0.0618823
0.0608974
0.0599687
0.0591014
0.058302
0.0575789
0.0569433
0.056409
0.0559929
0.0557134
0.0555877
0.0556263
0.0558266
0.0561694
0.0566203
0.0571396
0.0576939
0.0582658
0.0588527
0.0594609
0.0600975
0.0607667
0.0614699
0.0622078
0.0629823
0.0637964
0.0646535
0.0655565
0.0665067
0.0675045
0.0685492
0.0696395
0.0707751
0.0719578
0.0731941
0.0744985
0.0758967
0.0774279
0.0791432
0.0810985
0.083333
0.0858421
0.0885116
0.0911406
0.0916779
0.0736785
0.349121
0.326217
0.305898
0.287766
0.271497
0.256827
0.243539
0.231452
0.220414
0.210298
0.200996
0.192416
0.184479
0.177117
0.170271
0.163889
0.157927
0.152346
0.14711
0.142189
0.137557
0.133188
0.129061
0.125158
0.12146
0.117952
0.11462
0.111451
0.108435
0.105559
0.102816
0.100196
0.0976905
0.0952934
0.0929978
0.0907974
0.0886867
0.0866606
0.0847144
0.0828437
0.0810445
0.0793132
0.0776465
0.0760412
0.0744946
0.0730042
0.0715675
0.0701827
0.0688479
0.0675618
0.0663232
0.0651315
0.0639865
0.0628888
0.0618397
0.0608414
0.0598973
0.0590121
0.0581923
0.0574462
0.0567845
0.0562207
0.055771
0.0554534
0.055285
0.055277
0.0554281
0.0557195
0.0561154
0.0565716
0.0570496
0.0575287
0.0580089
0.0585031
0.0590267
0.0595894
0.0601939
0.0608389
0.0615223
0.0622438
0.0630045
0.063806
0.0646496
0.0655356
0.0664642
0.0674347
0.068447
0.0695026
0.0706062
0.0717683
0.073009
0.0743598
0.0758643
0.0775732
0.0795262
0.0817305
0.0840928
0.0864586
0.0870637
0.0741464
0.349122
0.326217
0.305898
0.287766
0.271498
0.256828
0.24354
0.231452
0.220414
0.210299
0.200997
0.192417
0.184481
0.177119
0.170273
0.163892
0.15793
0.152349
0.147114
0.142194
0.137562
0.133193
0.129067
0.125164
0.121467
0.117959
0.114628
0.11146
0.108444
0.105569
0.102826
0.100206
0.0977017
0.0953052
0.0930101
0.0908103
0.0887002
0.0866747
0.084729
0.0828589
0.0810603
0.0793295
0.0776632
0.0760583
0.074512
0.0730216
0.0715849
0.0701998
0.0688644
0.0675773
0.0663374
0.0651438
0.0639964
0.0628955
0.0618423
0.0608389
0.0598886
0.0589958
0.0581667
0.0574092
0.0567334
0.0561521
0.0556803
0.0553349
0.0551321
0.0550833
0.0551893
0.0554355
0.0557904
0.0562128
0.0566638
0.0571188
0.057573
0.0580369
0.0585263
0.0590538
0.0596248
0.0602391
0.0608943
0.0615884
0.0623205
0.0630903
0.0638968
0.0647386
0.0656131
0.0665173
0.0674482
0.0684036
0.0693842
0.0703959
0.0714527
0.07258
0.0738148
0.0752029
0.0767838
0.0785742
0.0805019
0.0824646
0.0829945
0.0748379
0.349122
0.326217
0.305899
0.287767
0.271498
0.256829
0.243541
0.231454
0.220416
0.2103
0.200999
0.192419
0.184483
0.177122
0.170276
0.163896
0.157934
0.152354
0.147119
0.142199
0.137568
0.1332
0.129074
0.125172
0.121475
0.117968
0.114637
0.11147
0.108455
0.10558
0.102838
0.100219
0.0977149
0.095319
0.0930245
0.0908253
0.0887158
0.0866909
0.0847458
0.0828763
0.0810783
0.0793481
0.0776824
0.076078
0.0745322
0.0730423
0.0716059
0.0702211
0.068886
0.067599
0.066359
0.0651653
0.0640175
0.062916
0.0618618
0.0608571
0.0599049
0.0590094
0.0581767
0.0574141
0.0567313
0.0561401
0.0556546
0.05529
0.0550612
0.0549791
0.0550455
0.0552488
0.0555632
0.0559533
0.0563837
0.0568292
0.0572804
0.0577422
0.0582274
0.0587484
0.0593126
0.0599224
0.0605768
0.0612743
0.0620135
0.0627931
0.0636106
0.0644624
0.0653431
0.0662455
0.0671615
0.0680825
0.0690017
0.069916
0.0708305
0.0717613
0.0727378
0.0738014
0.074992
0.0763377
0.0777893
0.0792996
0.0796857
0.0758205
0.349122
0.326218
0.305899
0.287768
0.271499
0.25683
0.243542
0.231455
0.220418
0.210302
0.201001
0.192422
0.184486
0.177125
0.17028
0.1639
0.15794
0.15236
0.147125
0.142206
0.137575
0.133208
0.129083
0.125181
0.121485
0.117979
0.114649
0.111482
0.108467
0.105593
0.102852
0.100233
0.0977297
0.0953345
0.0930406
0.0908421
0.0887332
0.0867089
0.0847645
0.0828956
0.0810982
0.0793686
0.0777035
0.0760998
0.0745545
0.0730652
0.0716294
0.070245
0.0689103
0.0676238
0.0663841
0.0651907
0.0640431
0.0629418
0.0618879
0.0608831
0.0599307
0.0590347
0.0582009
0.0574365
0.0567506
0.0561545
0.0556612
0.0552852
0.0550399
0.0549349
0.0549718
0.0551406
0.055419
0.0557771
0.0561843
0.0566173
0.0570645
0.0575265
0.058012
0.0585317
0.059094
0.0597031
0.0603602
0.0610654
0.0618182
0.0626176
0.0634613
0.064345
0.0652618
0.0662017
0.0671518
0.0680969
0.0690208
0.0699093
0.0707543
0.0715585
0.0723392
0.0731298
0.0739699
0.0748993
0.0758938
0.0769615
0.0771839
0.0771016
0.349122
0.326218
0.3059
0.287769
0.2715
0.256831
0.243544
0.231457
0.22042
0.210305
0.201004
0.192426
0.18449
0.17713
0.170285
0.163905
0.157946
0.152366
0.147132
0.142214
0.137584
0.133217
0.129093
0.125191
0.121496
0.11799
0.114661
0.111495
0.108481
0.105608
0.102867
0.100249
0.0977462
0.0953517
0.0930585
0.0908606
0.0887524
0.0867288
0.084785
0.0829168
0.0811201
0.0793912
0.0777267
0.0761236
0.0745789
0.0730902
0.0716549
0.0702711
0.068937
0.0676509
0.0664117
0.0652187
0.0640716
0.0629708
0.0619172
0.0609128
0.0599607
0.0590648
0.0582309
0.0574658
0.0567787
0.0561802
0.0556831
0.055301
0.0550465
0.0549282
0.0549467
0.055092
0.0553433
0.0556741
0.0560579
0.0564744
0.0569124
0.0573698
0.0578522
0.0583684
0.0589262
0.059531
0.0601856
0.0608917
0.0616504
0.062462
0.0633257
0.0642379
0.0651923
0.0661782
0.0671806
0.0681795
0.0691515
0.0700713
0.0709165
0.0716732
0.0723421
0.0729437
0.0735122
0.074096
0.0746951
0.0753704
0.0754414
0.0786586
0.349122
0.326218
0.305901
0.287769
0.271501
0.256833
0.243545
0.231459
0.220422
0.210308
0.201007
0.192429
0.184494
0.177135
0.170291
0.163912
0.157952
0.152373
0.14714
0.142223
0.137593
0.133227
0.129103
0.125203
0.121508
0.118003
0.114675
0.111509
0.108496
0.105624
0.102883
0.100266
0.0977642
0.0953704
0.0930779
0.0908807
0.0887733
0.0867504
0.0848073
0.0829398
0.0811438
0.0794156
0.0777518
0.0761493
0.0746053
0.0731172
0.0716826
0.0702994
0.0689658
0.0676803
0.0664417
0.0652492
0.0641026
0.0630022
0.0619491
0.0609451
0.0599933
0.0590977
0.0582638
0.0574985
0.0568107
0.056211
0.0557119
0.0553267
0.0550677
0.0549427
0.0549514
0.0550829
0.0553165
0.0556271
0.055991
0.0563906
0.0568162
0.0572653
0.0577414
0.0582514
0.0588023
0.0593995
0.0600465
0.0607463
0.0615013
0.0623133
0.0631832
0.0641095
0.0650875
0.0661082
0.0671568
0.0682122
0.0692467
0.0702274
0.0711197
0.0718935
0.0725308
0.0730347
0.073428
0.0737613
0.0740532
0.0744114
0.0743652
0.0804583
0.349123
0.326219
0.305901
0.28777
0.271503
0.256834
0.243547
0.231461
0.220425
0.210311
0.201011
0.192434
0.184499
0.17714
0.170297
0.163918
0.15796
0.152382
0.147149
0.142232
0.137603
0.133238
0.129115
0.125215
0.121521
0.118017
0.114689
0.111525
0.108512
0.105641
0.102901
0.100285
0.0977837
0.0953906
0.0930989
0.0909025
0.0887958
0.0867736
0.0848314
0.0829646
0.0811693
0.0794418
0.0777787
0.076177
0.0746337
0.0731463
0.0717124
0.0703298
0.0689969
0.067712
0.0664739
0.065282
0.064136
0.0630361
0.0619834
0.0609799
0.0600284
0.059133
0.058299
0.0575335
0.0568452
0.0562446
0.0557443
0.0553575
0.0550964
0.0549683
0.0549724
0.0550969
0.0553202
0.0556173
0.055966
0.056351
0.0567642
0.0572038
0.0576726
0.0581759
0.0587196
0.0593085
0.0599462
0.060636
0.0613812
0.0621847
0.063049
0.0639746
0.0649592
0.0659962
0.0670734
0.068171
0.0692612
0.0703075
0.0712676
0.0720986
0.0727653
0.0732515
0.0735638
0.0737476
0.0738319
0.0739609
0.0738453
0.0824689
0.349123
0.326219
0.305902
0.287771
0.271504
0.256836
0.243549
0.231464
0.220428
0.210314
0.201015
0.192438
0.184505
0.177146
0.170303
0.163926
0.157968
0.15239
0.147159
0.142242
0.137614
0.13325
0.129128
0.125229
0.121536
0.118032
0.114705
0.111542
0.10853
0.105659
0.10292
0.100305
0.0978045
0.0954123
0.0931214
0.0909258
0.0888199
0.0867985
0.084857
0.082991
0.0811965
0.0794698
0.0778076
0.0762066
0.074664
0.0731773
0.0717441
0.0703623
0.06903
0.0677458
0.0665084
0.0653172
0.0641717
0.0630723
0.0620202
0.061017
0.0600658
0.0591705
0.0583366
0.0575708
0.056882
0.0562806
0.0557794
0.0553915
0.0551292
0.0549998
0.0550021
0.0551232
0.055341
0.0556295
0.0559673
0.0563406
0.0567431
0.057174
0.0576361
0.0581338
0.058672
0.0592543
0.0598838
0.0605638
0.0612977
0.0620891
0.0629413
0.0638564
0.0648343
0.0658712
0.066958
0.0680784
0.0692068
0.0703076
0.0713357
0.0722404
0.0729734
0.0735008
0.0738113
0.0739385
0.0739123
0.0739016
0.07377
0.0846645
0.349123
0.32622
0.305903
0.287772
0.271505
0.256838
0.243551
0.231466
0.220431
0.210318
0.201019
0.192443
0.18451
0.177152
0.17031
0.163933
0.157976
0.1524
0.147169
0.142254
0.137626
0.133263
0.129142
0.125243
0.121551
0.118049
0.114722
0.11156
0.108548
0.105679
0.102941
0.100326
0.0978268
0.0954354
0.0931454
0.0909506
0.0888456
0.0868251
0.0848844
0.0830192
0.0812256
0.0794997
0.0778382
0.076238
0.0746963
0.0732104
0.0717779
0.0703969
0.0690653
0.0677818
0.0665451
0.0653545
0.0642097
0.0631109
0.0620592
0.0610565
0.0601055
0.0592104
0.0583764
0.0576103
0.0569209
0.0563188
0.0558166
0.0554279
0.0551648
0.0550349
0.0550365
0.0551562
0.0553708
0.0556537
0.0559834
0.0563474
0.0567411
0.0571649
0.0576217
0.0581156
0.0586505
0.0592291
0.0598536
0.0605266
0.0612513
0.0620313
0.0628702
0.0637711
0.0647354
0.0657616
0.0668438
0.0679696
0.0691176
0.0702556
0.07134
0.0723178
0.0731328
0.0737378
0.074104
0.0742499
0.0741982
0.07413
0.0740359
0.0870257
0.349123
0.32622
0.305904
0.287774
0.271507
0.256839
0.243554
0.231469
0.220434
0.210322
0.201024
0.192448
0.184516
0.177159
0.170318
0.163942
0.157985
0.15241
0.14718
0.142265
0.137639
0.133276
0.129156
0.125259
0.121567
0.118066
0.114741
0.111579
0.108568
0.1057
0.102963
0.100349
0.0978504
0.0954599
0.0931708
0.0909769
0.0888728
0.0868532
0.0849134
0.0830491
0.0812563
0.0795313
0.0778706
0.0762713
0.0747304
0.0732453
0.0718137
0.0704334
0.0691027
0.06782
0.066584
0.0653941
0.0642499
0.0631517
0.0621006
0.0610983
0.0601476
0.0592526
0.0584185
0.0576521
0.0569621
0.0563592
0.0558561
0.0554664
0.0552027
0.0550725
0.0550739
0.0551931
0.0554056
0.0556843
0.0560075
0.0563637
0.0567498
0.0571676
0.0576205
0.0581125
0.0586464
0.0592243
0.0598473
0.0605173
0.0612367
0.0620089
0.0628374
0.0637254
0.0646751
0.0656866
0.0667566
0.0678764
0.0690291
0.0701877
0.0713129
0.0723537
0.0732514
0.0739507
0.0744087
0.0746275
0.0746171
0.0745602
0.0745519
0.0895389
0.349124
0.326221
0.305904
0.287775
0.271508
0.256841
0.243556
0.231472
0.220438
0.210326
0.201029
0.192454
0.184522
0.177166
0.170326
0.16395
0.157995
0.15242
0.147191
0.142278
0.137652
0.13329
0.129171
0.125275
0.121584
0.118084
0.11476
0.111599
0.108589
0.105722
0.102986
0.100373
0.0978753
0.0954858
0.0931976
0.0910047
0.0889015
0.0868828
0.0849439
0.0830806
0.0812887
0.0795646
0.0779049
0.0763064
0.0747664
0.0732822
0.0718514
0.070472
0.0691421
0.0678602
0.066625
0.0654359
0.0642924
0.0631948
0.0621442
0.0611423
0.060192
0.059297
0.0584628
0.057696
0.0570054
0.0564017
0.0558976
0.0555071
0.0552427
0.0551123
0.0551138
0.0552327
0.0554439
0.055719
0.0560363
0.0563852
0.0567643
0.0571767
0.0576265
0.0581175
0.0586524
0.059232
0.0598568
0.0605277
0.0612464
0.0620157
0.0628386
0.063718
0.0646564
0.0656546
0.0667112
0.0678201
0.068969
0.0701362
0.071288
0.0723787
0.0733514
0.0741475
0.0747147
0.0750403
0.0751186
0.0751257
0.0752431
0.0921942
0.349124
0.326222
0.305905
0.287776
0.27151
0.256843
0.243559
0.231475
0.220442
0.210331
0.201034
0.19246
0.184529
0.177174
0.170334
0.16396
0.158005
0.152431
0.147203
0.142291
0.137666
0.133305
0.129187
0.125292
0.121602
0.118103
0.11478
0.11162
0.108611
0.105745
0.10301
0.100398
0.0979014
0.0955129
0.0932257
0.0910338
0.0889316
0.0869139
0.084976
0.0831136
0.0813227
0.0795996
0.0779408
0.0763433
0.0748042
0.0733209
0.0718911
0.0705126
0.0691836
0.0679025
0.0666682
0.0654798
0.064337
0.0632401
0.0621901
0.0611887
0.0602386
0.0593438
0.0585094
0.0577422
0.0570509
0.0564462
0.0559411
0.0555496
0.0552846
0.055154
0.0551558
0.0552749
0.055485
0.055757
0.0560687
0.0564103
0.0567822
0.057189
0.0576358
0.0581265
0.0586632
0.0592464
0.0598755
0.0605506
0.0612728
0.0620441
0.0628669
0.0637436
0.0646764
0.0656663
0.0667128
0.0678119
0.0689545
0.0701238
0.0712925
0.0724212
0.0734579
0.0743453
0.0750256
0.0754747
0.0756707
0.075778
0.0760512
0.0949851
0.349124
0.326222
0.305906
0.287777
0.271512
0.256845
0.243561
0.231478
0.220445
0.210335
0.201039
0.192466
0.184536
0.177181
0.170343
0.163969
0.158016
0.152443
0.147216
0.142304
0.137681
0.133321
0.129204
0.12531
0.121621
0.118123
0.114801
0.111642
0.108635
0.105769
0.103035
0.100424
0.0979287
0.0955413
0.0932551
0.0910643
0.0889631
0.0869464
0.0850096
0.0831482
0.0813583
0.0796362
0.0779784
0.0763819
0.0748438
0.0733615
0.0719326
0.0705551
0.069227
0.0679468
0.0667134
0.0655258
0.0643838
0.0632877
0.0622382
0.0612373
0.0602875
0.0593928
0.0585582
0.0577906
0.0570985
0.0564928
0.0559866
0.055594
0.0553283
0.0551975
0.0551996
0.0553192
0.0555289
0.0557982
0.0561044
0.0564385
0.0568026
0.0572033
0.0576466
0.0581369
0.0586761
0.0592637
0.0598989
0.0605807
0.0613097
0.0620873
0.0629151
0.0637952
0.064729
0.0657174
0.0667601
0.0678542
0.068993
0.0701638
0.0713447
0.0725031
0.0735936
0.0745627
0.0753518
0.0759284
0.0762561
0.0764851
0.0769344
0.097907
0.349125
0.326223
0.305907
0.287778
0.271513
0.256848
0.243564
0.231482
0.220449
0.21034
0.201045
0.192472
0.184543
0.177189
0.170352
0.163979
0.158027
0.152455
0.147229
0.142318
0.137696
0.133337
0.129221
0.125328
0.121641
0.118144
0.114822
0.111665
0.108659
0.105794
0.103061
0.100452
0.0979573
0.0955709
0.0932859
0.0910961
0.088996
0.0869804
0.0850447
0.0831844
0.0813955
0.0796744
0.0780177
0.0764223
0.0748852
0.0734039
0.0719761
0.0705995
0.0692724
0.0679932
0.0667607
0.065574
0.0644328
0.0633374
0.0622886
0.0612881
0.0603386
0.059444
0.0586093
0.0578412
0.0571483
0.0565415
0.0560339
0.0556401
0.0553735
0.0552425
0.0552451
0.0553656
0.0555754
0.0558425
0.0561435
0.05647
0.0568257
0.0572194
0.0576585
0.0581479
0.0586893
0.059282
0.0599242
0.0606146
0.0613529
0.0621401
0.0629774
0.0638662
0.0648075
0.0658017
0.0668481
0.0679446
0.0690856
0.0702613
0.0714545
0.0726386
0.0737753
0.0748167
0.0757059
0.076406
0.0768682
0.0772285
0.0778653
0.100957
0.349125
0.326223
0.305908
0.28778
0.271515
0.25685
0.243567
0.231485
0.220453
0.210345
0.20105
0.192479
0.184551
0.177198
0.170361
0.16399
0.158038
0.152468
0.147243
0.142333
0.137712
0.133354
0.129239
0.125347
0.121661
0.118165
0.114845
0.111689
0.108684
0.10582
0.103089
0.10048
0.097987
0.0956017
0.0933178
0.0911292
0.0890303
0.0870158
0.0850812
0.083222
0.0814343
0.0797143
0.0780587
0.0764643
0.0749284
0.0734482
0.0720214
0.0706458
0.0693198
0.0680415
0.06681
0.0656242
0.0644839
0.0633893
0.0623411
0.0613411
0.060392
0.0594975
0.0586626
0.0578939
0.0572002
0.0565922
0.0560832
0.0556879
0.0554202
0.0552889
0.0552921
0.0554138
0.0556243
0.0558901
0.0561864
0.0565051
0.0568519
0.0572375
0.0576715
0.0581593
0.0587026
0.0593004
0.0599502
0.0606502
0.0613997
0.0621991
0.0630494
0.0639515
0.0649059
0.0659126
0.0669706
0.0680776
0.0692287
0.0704159
0.0716253
0.0728354
0.0740141
0.0751201
0.0761001
0.0769154
0.0775079
0.0780003
0.078829
0.104133
0.349125
0.326224
0.305909
0.287781
0.271517
0.256852
0.24357
0.231489
0.220458
0.21035
0.201056
0.192486
0.184558
0.177207
0.170371
0.164001
0.15805
0.15248
0.147257
0.142348
0.137728
0.133372
0.129258
0.125367
0.121682
0.118187
0.114869
0.111713
0.10871
0.105847
0.103117
0.10051
0.0980177
0.0956337
0.093351
0.0911636
0.0890658
0.0870526
0.0851191
0.0832611
0.0814746
0.0797557
0.0781013
0.0765081
0.0749732
0.0734941
0.0720685
0.070694
0.069369
0.0680919
0.0668613
0.0656765
0.0645371
0.0634432
0.0623958
0.0613963
0.0604476
0.0595531
0.058718
0.0579488
0.0572541
0.0566448
0.0561342
0.0557373
0.0554684
0.0553365
0.0553404
0.0554636
0.0556756
0.0559409
0.0562332
0.0565442
0.0568815
0.0572582
0.0576859
0.0581711
0.0587158
0.0593185
0.0599764
0.0606868
0.0614487
0.0622623
0.0631282
0.0640473
0.0650196
0.0660448
0.0671216
0.0682472
0.069417
0.0706238
0.071856
0.0730957
0.0743163
0.0754822
0.0765447
0.0774658
0.0781804
0.0788006
0.0798202
0.107436
0.349125
0.326224
0.30591
0.287782
0.271518
0.256854
0.243573
0.231492
0.220462
0.210355
0.201062
0.192493
0.184566
0.177215
0.170381
0.164012
0.158062
0.152494
0.147271
0.142364
0.137745
0.13339
0.129278
0.125388
0.121704
0.118211
0.114893
0.111739
0.108736
0.105875
0.103146
0.10054
0.0980496
0.0956668
0.0933854
0.0911992
0.0891027
0.0870907
0.0851585
0.0833017
0.0815163
0.0797987
0.0781455
0.0765534
0.0750198
0.0735419
0.0721173
0.0707441
0.0694202
0.0681441
0.0669146
0.0657308
0.0645924
0.0634993
0.0624526
0.0614537
0.0605053
0.0596109
0.0587756
0.0580059
0.0573102
0.0566994
0.0561871
0.0557883
0.0555178
0.0553852
0.0553897
0.0555148
0.0557289
0.0559947
0.0562838
0.0565877
0.056915
0.0572819
0.0577022
0.0581838
0.0587292
0.0593365
0.0600025
0.0607239
0.0614993
0.0623286
0.0632124
0.0641513
0.0651454
0.0661942
0.067296
0.0684478
0.0696448
0.0708801
0.0721432
0.0734188
0.074684
0.0759085
0.077048
0.0780664
0.078894
0.0796346
0.0808408
0.110864
0.349126
0.326225
0.305911
0.287784
0.27152
0.256857
0.243576
0.231496
0.220467
0.21036
0.201069
0.1925
0.184574
0.177225
0.170391
0.164023
0.158075
0.152508
0.147286
0.14238
0.137763
0.133409
0.129297
0.125409
0.121727
0.118234
0.114918
0.111765
0.108764
0.105904
0.103177
0.100572
0.0980825
0.095701
0.0934209
0.091236
0.0891408
0.0871301
0.0851991
0.0833436
0.0815595
0.0798432
0.0781912
0.0766004
0.075068
0.0735913
0.072168
0.0707959
0.0694732
0.0681982
0.0669698
0.0657871
0.0646496
0.0635575
0.0625115
0.0615132
0.0605652
0.0596709
0.0588354
0.058065
0.0573682
0.0567559
0.0562416
0.0558407
0.0555684
0.0554349
0.0554399
0.0555671
0.055784
0.0560513
0.0563385
0.0566356
0.0569528
0.057309
0.0577207
0.0581977
0.0587428
0.0593544
0.0600285
0.0607614
0.0615511
0.0623974
0.0633008
0.0642621
0.0652813
0.066358
0.0674902
0.0686749
0.0699071
0.0711797
0.0724826
0.0738019
0.0751172
0.0764021
0.0776163
0.0787257
0.0796582
0.0805113
0.081898
0.114419
0.349126
0.326226
0.305912
0.287785
0.271522
0.256859
0.243579
0.2315
0.220471
0.210365
0.201075
0.192507
0.184583
0.177234
0.170402
0.164035
0.158088
0.152522
0.147302
0.142397
0.13778
0.133428
0.129318
0.125431
0.12175
0.118259
0.114944
0.111792
0.108793
0.105934
0.103208
0.100605
0.0981164
0.0957363
0.0934575
0.091274
0.0891801
0.0871707
0.0852411
0.0833869
0.0816041
0.0798891
0.0782384
0.0766489
0.0751177
0.0736423
0.0722203
0.0708494
0.0695279
0.0682542
0.067027
0.0658453
0.0647089
0.0636177
0.0625725
0.0615748
0.0606271
0.059733
0.0588972
0.0581262
0.0574283
0.0568143
0.0562979
0.0558946
0.0556201
0.0554853
0.0554906
0.0556201
0.0558406
0.0561106
0.056397
0.0566882
0.0569954
0.0573401
0.057742
0.0582129
0.058757
0.0593723
0.0600544
0.0607991
0.061604
0.0624684
0.0633931
0.0643789
0.0654261
0.0665342
0.0677017
0.0689253
0.0701998
0.0715181
0.07287
0.0742419
0.0756149
0.0769649
0.0782545
0.0794519
0.0804832
0.0814418
0.0830023
0.118102
0.349126
0.326226
0.305913
0.287786
0.271524
0.256862
0.243582
0.231503
0.220476
0.210371
0.201081
0.192514
0.184591
0.177244
0.170413
0.164047
0.158101
0.152536
0.147317
0.142414
0.137799
0.133448
0.129339
0.125453
0.121774
0.118284
0.11497
0.11182
0.108822
0.105965
0.10324
0.100638
0.0981513
0.0957726
0.0934952
0.0913131
0.0892205
0.0872125
0.0852843
0.0834315
0.0816501
0.0799364
0.078287
0.0766989
0.0751691
0.073695
0.0722743
0.0709047
0.0695845
0.068312
0.067086
0.0659055
0.0647701
0.0636798
0.0626355
0.0616384
0.0606912
0.0597972
0.0589612
0.0581895
0.0574903
0.0568746
0.0563558
0.0559499
0.0556728
0.0555364
0.0555418
0.0556737
0.0558983
0.0561723
0.0564592
0.0567457
0.057043
0.0573754
0.0577663
0.05823
0.0587717
0.0593901
0.0600801
0.060837
0.0616576
0.0625414
0.0634889
0.0645012
0.0655789
0.0667219
0.0679289
0.0691967
0.0705203
0.0718922
0.073302
0.074736
0.0761756
0.0775978
0.0789668
0.0802526
0.0813796
0.0824391
0.084167
0.121916
0.349127
0.326227
0.305914
0.287788
0.271526
0.256864
0.243585
0.231507
0.22048
0.210377
0.201088
0.192522
0.1846
0.177253
0.170424
0.164059
0.158114
0.152551
0.147333
0.142431
0.137818
0.133468
0.12936
0.125476
0.121798
0.11831
0.114998
0.111849
0.108852
0.105997
0.103273
0.100672
0.0981871
0.0958098
0.0935339
0.0913532
0.0892621
0.0872555
0.0853287
0.0834773
0.0816973
0.0799851
0.0783371
0.0767504
0.0752219
0.0737492
0.0723298
0.0709616
0.0696427
0.0683715
0.0671467
0.0659675
0.0648332
0.0637439
0.0627004
0.0617041
0.0607573
0.0598634
0.0590271
0.0582547
0.0575543
0.0569367
0.0564154
0.0560065
0.0557264
0.0555879
0.0555931
0.0557274
0.0559568
0.0562359
0.0565251
0.0568081
0.0570959
0.0574156
0.0577942
0.058249
0.0587873
0.0594078
0.0601054
0.0608746
0.0617117
0.0626159
0.0635877
0.0646285
0.0657393
0.0669204
0.0681708
0.0694879
0.0708667
0.0722998
0.0737764
0.0752824
0.0767986
0.0783021
0.0797575
0.0811353
0.0823587
0.083517
0.0854069
0.125864
0.349127
0.326228
0.305915
0.287789
0.271528
0.256867
0.243588
0.231511
0.220485
0.210382
0.201094
0.19253
0.184609
0.177263
0.170435
0.164071
0.158128
0.152566
0.14735
0.142449
0.137837
0.133488
0.129382
0.1255
0.121823
0.118336
0.115025
0.111878
0.108883
0.106029
0.103307
0.100708
0.0982238
0.095848
0.0935736
0.0913943
0.0893047
0.0872996
0.0853743
0.0835244
0.0817459
0.080035
0.0783885
0.0768032
0.0752763
0.073805
0.072387
0.0710202
0.0697027
0.0684328
0.0672093
0.0660312
0.0648981
0.0638099
0.0627673
0.0617717
0.0608253
0.0599316
0.0590951
0.058322
0.0576202
0.0570005
0.0564765
0.0560643
0.055781
0.0556399
0.0556444
0.055781
0.0560157
0.0563012
0.0565943
0.0568753
0.0571545