/*--------------------------------*- C++ -*----------------------------------*\
| =========                 |                                                 |
| \\      /  F ield         | OpenFOAM: The Open Source CFD Toolbox           |
|  \\    /   O peration     | Version:  4.1                                   |
|   \\  /    A nd           | Web:      www.OpenFOAM.org                      |
|    \\/     M anipulation  |                                                 |
\*---------------------------------------------------------------------------*/
FoamFile
{
    version     2.0;
    format      ascii;
    class       volScalarField;
    location    "0.16";
    object      p;
}
// * * * * * * * * * * * * * * * * * * * * * * * * * * * * * * * * * * * * * //

dimensions      [0 2 -2 0 0 0 0];

internalField   nonuniform List<scalar> 
43750
(
101.207
101.102
101.048
101.065
101.112
101.171
101.243
101.333
101.443
101.57
101.714
101.873
102.049
102.242
102.45
102.674
102.914
103.17
103.442
103.73
104.033
104.353
104.687
105.038
105.404
105.785
106.182
106.593
107.02
107.461
107.917
108.387
108.871
109.369
109.879
110.403
110.938
111.486
112.045
112.616
113.198
113.792
114.398
115.016
115.648
116.293
116.953
117.629
118.321
119.029
119.753
120.493
121.246
122.01
122.784
123.565
124.352
125.145
125.943
126.747
127.557
128.371
129.188
130.004
130.818
131.627
132.431
133.229
134.022
134.81
135.594
136.371
137.14
137.898
138.643
139.374
140.089
140.788
141.469
142.134
142.782
143.412
144.025
144.62
145.199
145.76
146.305
146.831
147.34
147.83
148.3
148.747
149.166
149.558
149.915
150.229
150.493
150.699
150.84
150.913
101.037
101.009
100.989
101.004
101.049
101.112
101.189
101.283
101.395
101.523
101.668
101.829
102.006
102.199
102.407
102.632
102.872
103.128
103.4
103.687
103.99
104.309
104.643
104.992
105.357
105.738
106.134
106.544
106.97
107.411
107.866
108.336
108.82
109.318
109.83
110.355
110.892
111.443
112.005
112.58
113.167
113.765
114.376
114.999
115.635
116.285
116.949
117.628
118.322
119.032
119.758
120.498
121.252
122.018
122.793
123.576
124.365
125.16
125.961
126.767
127.578
128.395
129.214
130.034
130.851
131.663
132.468
133.266
134.058
134.845
135.627
136.404
137.174
137.934
138.681
139.413
140.129
140.827
141.508
142.172
142.818
143.447
144.058
144.652
145.229
145.788
146.33
146.856
147.364
147.853
148.324
148.772
149.198
149.594
149.953
150.269
150.537
150.745
150.885
150.967
100.954
100.953
100.956
100.978
101.023
101.085
101.163
101.257
101.367
101.494
101.637
101.796
101.97
102.161
102.367
102.589
102.826
103.08
103.348
103.633
103.932
104.247
104.578
104.924
105.285
105.661
106.053
106.459
106.88
107.316
107.767
108.231
108.71
109.203
109.709
110.229
110.762
111.309
111.868
112.44
113.025
113.623
114.234
114.859
115.497
116.149
116.815
117.497
118.193
118.903
119.628
120.367
121.118
121.88
122.652
123.433
124.222
125.017
125.819
126.626
127.439
128.256
129.076
129.895
130.713
131.526
132.335
133.139
133.938
134.733
135.524
136.308
137.084
137.85
138.603
139.341
140.063
140.769
141.457
142.128
142.782
143.419
144.038
144.64
145.226
145.795
146.347
146.883
147.402
147.904
148.387
148.848
149.285
149.691
150.06
150.385
150.653
150.865
151.01
151.096
100.865
100.868
100.88
100.907
100.952
101.015
101.094
101.189
101.299
101.427
101.57
101.729
101.904
102.094
102.301
102.523
102.76
103.013
103.281
103.565
103.864
104.179
104.509
104.854
105.214
105.589
105.979
106.384
106.804
107.238
107.686
108.149
108.626
109.117
109.622
110.139
110.671
111.215
111.772
112.343
112.926
113.522
114.132
114.754
115.39
116.04
116.704
117.382
118.073
118.779
119.498
120.23
120.974
121.729
122.495
123.269
124.052
124.842
125.638
126.441
127.249
128.061
128.876
129.692
130.507
131.322
132.134
132.943
133.75
134.553
135.352
136.144
136.927
137.7
138.46
139.205
139.935
140.648
141.346
142.027
142.692
143.34
143.972
144.588
145.187
145.77
146.338
146.89
147.426
147.945
148.445
148.923
149.375
149.796
150.178
150.514
150.794
151.014
151.167
151.263
100.77
100.777
100.795
100.828
100.877
100.942
101.023
101.119
101.23
101.357
101.5
101.659
101.833
102.023
102.228
102.448
102.684
102.936
103.202
103.484
103.781
104.094
104.421
104.764
105.122
105.495
105.882
106.285
106.702
107.133
107.579
108.039
108.513
109.001
109.503
110.019
110.548
111.09
111.646
112.214
112.796
113.391
114
114.621
115.257
115.905
116.568
117.244
117.934
118.637
119.353
120.082
120.822
121.573
122.334
123.104
123.883
124.668
125.461
126.26
127.063
127.871
128.682
129.495
130.308
131.12
131.931
132.74
133.548
134.353
135.156
135.953
136.742
137.519
138.284
139.034
139.769
140.488
141.192
141.88
142.553
143.211
143.852
144.478
145.089
145.684
146.264
146.83
147.38
147.913
148.429
148.923
149.391
149.828
150.225
150.575
150.868
151.098
151.258
151.359
100.666
100.675
100.697
100.733
100.783
100.849
100.93
101.026
101.137
101.264
101.407
101.565
101.738
101.927
102.131
102.35
102.585
102.835
103.101
103.381
103.677
103.988
104.314
104.655
105.01
105.381
105.766
106.167
106.581
107.011
107.454
107.912
108.384
108.87
109.369
109.883
110.409
110.95
111.504
112.071
112.651
113.245
113.852
114.473
115.107
115.754
116.415
117.09
117.778
118.478
119.192
119.917
120.654
121.402
122.159
122.926
123.701
124.484
125.274
126.069
126.87
127.676
128.484
129.295
130.107
130.918
131.729
132.538
133.345
134.15
134.952
135.75
136.54
137.32
138.087
138.84
139.578
140.3
141.008
141.7
142.377
143.038
143.684
144.315
144.93
145.53
146.116
146.687
147.243
147.784
148.307
148.81
149.288
149.736
150.146
150.508
150.814
151.053
151.22
151.327
100.551
100.561
100.584
100.622
100.675
100.741
100.823
100.92
101.032
101.159
101.301
101.458
101.631
101.819
102.022
102.241
102.474
102.723
102.986
103.265
103.559
103.868
104.191
104.53
104.883
105.252
105.635
106.032
106.444
106.87
107.311
107.766
108.235
108.718
109.215
109.725
110.25
110.787
111.339
111.904
112.482
113.074
113.679
114.297
114.93
115.575
116.234
116.907
117.592
118.29
119.001
119.724
120.458
121.202
121.957
122.721
123.494
124.275
125.062
125.857
126.656
127.461
128.269
129.08
129.892
130.705
131.518
132.329
133.138
133.944
134.745
135.542
136.331
137.11
137.877
138.631
139.371
140.095
140.804
141.498
142.176
142.838
143.485
144.115
144.729
145.328
145.911
146.479
147.031
147.568
148.088
148.589
149.066
149.516
149.929
150.297
150.609
150.855
151.026
151.137
100.424
100.434
100.459
100.498
100.551
100.619
100.701
100.798
100.91
101.036
101.178
101.335
101.507
101.694
101.896
102.113
102.345
102.591
102.853
103.13
103.422
103.729
104.05
104.386
104.737
105.103
105.483
105.878
106.287
106.711
107.148
107.6
108.066
108.546
109.04
109.548
110.069
110.604
111.153
111.715
112.291
112.88
113.483
114.099
114.728
115.371
116.028
116.697
117.38
118.075
118.782
119.502
120.233
120.974
121.726
122.487
123.258
124.036
124.822
125.614
126.413
127.217
128.025
128.837
129.652
130.468
131.284
132.099
132.912
133.72
134.522
135.318
136.105
136.883
137.65
138.404
139.145
139.87
140.581
141.276
141.954
142.617
143.262
143.89
144.5
145.094
145.669
146.228
146.77
147.294
147.8
148.287
148.752
149.191
149.595
149.957
150.266
150.511
150.682
150.792
100.284
100.294
100.32
100.36
100.414
100.482
100.564
100.661
100.773
100.899
101.04
101.196
101.367
101.553
101.754
101.969
102.2
102.445
102.705
102.98
103.269
103.574
103.893
104.227
104.575
104.938
105.315
105.707
106.113
106.533
106.968
107.417
107.88
108.356
108.847
109.351
109.869
110.401
110.947
111.506
112.078
112.664
113.264
113.877
114.503
115.143
115.796
116.462
117.141
117.833
118.537
119.252
119.98
120.717
121.466
122.224
122.991
123.766
124.55
125.34
126.137
126.94
127.749
128.561
129.377
130.196
131.015
131.834
132.65
133.462
134.266
135.063
135.85
136.628
137.394
138.149
138.89
139.618
140.33
141.026
141.706
142.368
143.012
143.638
144.244
144.831
145.398
145.945
146.472
146.98
147.467
147.933
148.376
148.793
149.178
149.523
149.819
150.054
150.218
150.323
100.131
100.141
100.167
100.207
100.262
100.33
100.413
100.509
100.621
100.747
100.887
101.042
101.212
101.397
101.596
101.81
102.038
102.282
102.54
102.813
103.1
103.402
103.718
104.049
104.395
104.755
105.129
105.518
105.92
106.338
106.769
107.214
107.673
108.146
108.634
109.134
109.649
110.177
110.719
111.275
111.844
112.426
113.022
113.632
114.255
114.891
115.54
116.202
116.877
117.565
118.264
118.976
119.699
120.433
121.177
121.931
122.694
123.466
124.247
125.035
125.83
126.631
127.438
128.25
129.066
129.885
130.706
131.528
132.346
133.16
133.967
134.765
135.554
136.332
137.099
137.855
138.598
139.327
140.041
140.739
141.42
142.083
142.727
143.351
143.953
144.534
145.093
145.629
146.142
146.632
147.098
147.54
147.957
148.346
148.704
149.024
149.298
149.517
149.669
149.765
99.9641
99.9748
100
100.041
100.096
100.164
100.247
100.343
100.454
100.579
100.719
100.873
101.042
101.225
101.422
101.635
101.862
102.103
102.359
102.629
102.914
103.213
103.527
103.855
104.198
104.554
104.925
105.311
105.71
106.124
106.551
106.993
107.448
107.918
108.401
108.898
109.409
109.933
110.471
111.022
111.588
112.166
112.758
113.363
113.982
114.614
115.259
115.917
116.587
117.27
117.965
118.672
119.39
120.12
120.859
121.609
122.368
123.137
123.913
124.698
125.49
126.288
127.093
127.903
128.718
129.536
130.357
131.178
131.998
132.813
133.621
134.42
135.21
135.989
136.758
137.514
138.259
138.99
139.706
140.405
141.088
141.752
142.396
143.018
143.619
144.196
144.748
145.274
145.774
146.247
146.693
147.112
147.502
147.862
148.19
148.481
148.729
148.926
149.062
149.148
99.784
99.7948
99.8204
99.8612
99.9159
99.9842
100.066
100.162
100.272
100.397
100.536
100.689
100.856
101.038
101.234
101.444
101.669
101.908
102.162
102.429
102.712
103.008
103.319
103.644
103.983
104.337
104.704
105.086
105.482
105.892
106.315
106.753
107.204
107.67
108.149
108.642
109.148
109.668
110.202
110.749
111.31
111.884
112.471
113.072
113.686
114.313
114.953
115.606
116.272
116.95
117.64
118.341
119.054
119.779
120.513
121.258
122.013
122.777
123.549
124.329
125.117
125.912
126.714
127.521
128.333
129.149
129.968
130.787
131.605
132.42
133.228
134.028
134.818
135.598
136.367
137.124
137.869
138.601
139.318
140.019
140.702
141.367
142.011
142.633
143.231
143.805
144.351
144.87
145.36
145.819
146.247
146.644
147.01
147.342
147.641
147.902
148.122
148.297
148.416
148.491
99.5904
99.6011
99.6267
99.6674
99.722
99.7899
99.8715
99.967
100.077
100.2
100.338
100.489
100.655
100.835
101.03
101.238
101.461
101.698
101.949
102.214
102.493
102.787
103.095
103.416
103.752
104.102
104.466
104.844
105.236
105.642
106.061
106.495
106.942
107.403
107.877
108.366
108.867
109.383
109.912
110.454
111.01
111.579
112.161
112.757
113.366
113.988
114.623
115.27
115.93
116.603
117.287
117.983
118.691
119.409
120.139
120.878
121.627
122.386
123.153
123.929
124.712
125.503
126.3
127.103
127.911
128.724
129.539
130.356
131.171
131.983
132.79
133.588
134.377
135.156
135.925
136.682
137.426
138.158
138.874
139.575
140.258
140.923
141.566
142.187
142.784
143.355
143.897
144.41
144.89
145.338
145.752
146.131
146.475
146.784
147.056
147.291
147.485
147.637
147.74
147.805
99.3832
99.3939
99.4194
99.46
99.5142
99.5818
99.6628
99.7576
99.8663
99.9888
100.125
100.276
100.44
100.618
100.811
101.017
101.237
101.472
101.72
101.983
102.259
102.55
102.854
103.172
103.505
103.851
104.211
104.585
104.972
105.374
105.789
106.218
106.661
107.117
107.587
108.07
108.567
109.077
109.601
110.138
110.689
111.252
111.829
112.419
113.023
113.639
114.268
114.909
115.563
116.23
116.908
117.598
118.299
119.012
119.735
120.468
121.212
121.964
122.726
123.496
124.274
125.059
125.852
126.65
127.453
128.261
129.072
129.884
130.695
131.504
132.307
133.102
133.889
134.666
135.432
136.187
136.93
137.659
138.374
139.073
139.755
140.418
141.06
141.679
142.273
142.841
143.379
143.886
144.36
144.799
145.201
145.566
145.893
146.181
146.431
146.643
146.816
146.949
147.037
147.093
99.1627
99.1733
99.1986
99.2389
99.2928
99.3598
99.4402
99.5342
99.6419
99.7633
99.8984
100.047
100.21
100.386
100.577
100.781
100.999
101.231
101.476
101.736
102.009
102.296
102.597
102.912
103.24
103.583
103.939
104.308
104.692
105.089
105.499
105.923
106.361
106.812
107.277
107.755
108.246
108.751
109.269
109.801
110.346
110.904
111.475
112.059
112.656
113.266
113.888
114.523
115.171
115.831
116.502
117.186
117.88
118.586
119.302
120.029
120.766
121.512
122.267
123.031
123.803
124.582
125.368
126.16
126.958
127.76
128.565
129.372
130.178
130.982
131.78
132.571
133.354
134.127
134.89
135.641
136.38
137.106
137.818
138.514
139.192
139.852
140.49
141.106
141.697
142.26
142.794
143.296
143.764
144.195
144.589
144.942
145.256
145.529
145.762
145.956
146.111
146.228
146.304
146.353
98.9288
98.9393
98.9644
99.0044
99.0578
99.1242
99.2038
99.2969
99.4035
99.5237
99.6573
99.8046
99.9654
100.14
100.328
100.53
100.745
100.974
101.217
101.473
101.743
102.027
102.324
102.635
102.96
103.298
103.65
104.015
104.393
104.786
105.191
105.61
106.043
106.489
106.948
107.42
107.906
108.405
108.918
109.443
109.982
110.533
111.098
111.675
112.266
112.869
113.485
114.113
114.753
115.406
116.07
116.746
117.433
118.132
118.841
119.56
120.289
121.028
121.776
122.532
123.297
124.069
124.849
125.634
126.425
127.221
128.02
128.82
129.62
130.417
131.21
131.995
132.772
133.54
134.297
135.043
135.777
136.498
137.205
137.896
138.569
139.224
139.858
140.468
141.054
141.613
142.142
142.638
143.1
143.525
143.911
144.256
144.56
144.822
145.043
145.223
145.365
145.471
145.538
145.582
98.6816
98.6921
98.7169
98.7565
98.8094
98.8751
98.9539
99.046
99.1514
99.2702
99.4023
99.5478
99.7067
99.879
100.065
100.264
100.477
100.703
100.943
101.196
101.462
101.742
102.036
102.343
102.663
102.997
103.344
103.704
104.078
104.465
104.866
105.28
105.707
106.147
106.6
107.067
107.547
108.039
108.545
109.064
109.596
110.141
110.699
111.269
111.853
112.448
113.057
113.677
114.31
114.955
115.611
116.279
116.959
117.649
118.35
119.061
119.782
120.513
121.253
122.001
122.758
123.522
124.293
125.071
125.855
126.643
127.434
128.227
129.02
129.81
130.595
131.373
132.143
132.904
133.654
134.394
135.122
135.836
136.536
137.22
137.887
138.535
139.162
139.767
140.346
140.899
141.421
141.912
142.368
142.787
143.167
143.505
143.802
144.056
144.268
144.44
144.573
144.671
144.732
144.773
98.4214
98.4317
98.4563
98.4954
98.5477
98.6127
98.6905
98.7815
98.8856
99.003
99.1334
99.2771
99.434
99.6041
99.7874
99.984
100.194
100.417
100.653
100.903
101.166
101.442
101.732
102.035
102.35
102.68
103.022
103.378
103.746
104.128
104.523
104.931
105.352
105.787
106.234
106.694
107.168
107.654
108.153
108.665
109.19
109.727
110.278
110.841
111.416
112.004
112.605
113.217
113.842
114.478
115.126
115.786
116.456
117.138
117.83
118.532
119.244
119.966
120.697
121.437
122.185
122.94
123.702
124.471
125.246
126.026
126.808
127.593
128.377
129.159
129.935
130.705
131.467
132.219
132.962
133.693
134.412
135.119
135.811
136.487
137.146
137.786
138.405
139.002
139.573
140.118
140.634
141.117
141.567
141.98
142.354
142.687
142.979
143.228
143.434
143.601
143.729
143.822
143.879
143.918
98.1481
98.1583
98.1826
98.2212
98.2729
98.3371
98.4139
98.5037
98.6065
98.7222
98.8509
98.9927
99.1474
99.3151
99.4959
99.6898
99.8967
100.117
100.35
100.596
100.855
101.127
101.412
101.711
102.022
102.346
102.684
103.034
103.398
103.774
104.163
104.565
104.98
105.408
105.849
106.303
106.769
107.249
107.741
108.245
108.763
109.293
109.835
110.39
110.957
111.537
112.129
112.733
113.348
113.976
114.615
115.265
115.926
116.598
117.281
117.974
118.676
119.388
120.109
120.839
121.577
122.323
123.075
123.834
124.599
125.369
126.142
126.917
127.692
128.464
129.23
129.991
130.743
131.485
132.218
132.94
133.65
134.346
135.029
135.696
136.345
136.976
137.585
138.173
138.735
139.271
139.779
140.254
140.697
141.103
141.472
141.8
142.087
142.333
142.537
142.701
142.826
142.917
142.973
143.011
97.8621
97.8721
97.8961
97.9342
97.9851
98.0484
98.1242
98.2128
98.3141
98.4282
98.5551
98.6947
98.8472
99.0124
99.1905
99.3815
99.5853
99.8019
100.031
100.274
100.529
100.797
101.078
101.372
101.678
101.998
102.33
102.675
103.032
103.403
103.786
104.182
104.591
105.012
105.446
105.893
106.352
106.824
107.308
107.805
108.315
108.837
109.371
109.917
110.476
111.047
111.629
112.224
112.83
113.448
114.077
114.718
115.369
116.031
116.703
117.385
118.077
118.779
119.489
120.208
120.936
121.67
122.412
123.16
123.914
124.673
125.435
126.2
126.963
127.724
128.48
129.229
129.97
130.701
131.423
132.133
132.832
133.518
134.19
134.846
135.484
136.104
136.703
137.28
137.832
138.358
138.856
139.323
139.757
140.157
140.519
140.843
141.126
141.369
141.572
141.734
141.859
141.95
142.005
142.044
97.5634
97.5733
97.5969
97.6344
97.6847
97.747
97.8217
97.9089
98.0087
98.121
98.246
98.3834
98.5335
98.6962
98.8715
99.0594
99.26
99.4732
99.699
99.9374
100.189
100.452
100.729
101.017
101.319
101.633
101.96
102.299
102.651
103.015
103.392
103.782
104.184
104.598
105.025
105.464
105.916
106.38
106.857
107.346
107.847
108.36
108.885
109.423
109.972
110.533
111.106
111.691
112.287
112.895
113.514
114.144
114.784
115.435
116.096
116.767
117.448
118.138
118.837
119.545
120.26
120.983
121.713
122.449
123.191
123.938
124.688
125.44
126.191
126.94
127.683
128.42
129.148
129.867
130.575
131.274
131.96
132.633
133.292
133.936
134.562
135.17
135.757
136.322
136.863
137.377
137.865
138.322
138.747
139.139
139.494
139.813
140.093
140.333
140.534
140.697
140.822
140.913
140.969
141.008
97.2522
97.262
97.2853
97.3222
97.3716
97.433
97.5064
97.5923
97.6904
97.801
97.9239
98.0591
98.2067
98.3667
98.5391
98.7238
98.921
99.1306
99.3526
99.587
99.8338
100.093
100.365
100.648
100.945
101.254
101.575
101.908
102.254
102.612
102.982
103.365
103.76
104.167
104.586
105.018
105.462
105.918
106.386
106.866
107.358
107.863
108.379
108.907
109.446
109.998
110.56
111.135
111.72
112.317
112.925
113.543
114.172
114.812
115.461
116.12
116.789
117.466
118.153
118.847
119.55
120.26
120.977
121.7
122.429
123.162
123.899
124.638
125.376
126.111
126.84
127.563
128.276
128.981
129.675
130.359
131.031
131.69
132.335
132.965
133.577
134.171
134.745
135.297
135.825
136.328
136.803
137.249
137.664
138.047
138.395
138.708
138.983
139.221
139.421
139.583
139.708
139.801
139.858
139.898
96.9288
96.9385
96.9613
96.9976
97.0462
97.1065
97.1788
97.2631
97.3596
97.4683
97.589
97.7219
97.8669
98.0241
98.1934
98.3749
98.5686
98.7745
98.9925
99.2226
99.465
99.7195
99.9861
100.265
100.556
100.859
101.174
101.501
101.841
102.192
102.556
102.931
103.319
103.719
104.13
104.554
104.989
105.437
105.896
106.367
106.85
107.345
107.851
108.369
108.899
109.439
109.992
110.555
111.129
111.714
112.31
112.917
113.534
114.161
114.797
115.444
116.099
116.764
117.436
118.117
118.806
119.502
120.205
120.914
121.628
122.347
123.069
123.793
124.516
125.236
125.95
126.657
127.355
128.043
128.722
129.39
130.046
130.689
131.318
131.932
132.529
133.108
133.666
134.204
134.717
135.206
135.669
136.103
136.507
136.879
137.219
137.524
137.794
138.028
138.226
138.387
138.513
138.606
138.664
138.705
96.5934
96.6028
96.6253
96.6609
96.7087
96.7679
96.8388
96.9217
97.0164
97.1231
97.2416
97.3721
97.5144
97.6687
97.8349
98.013
98.203
98.405
98.6189
98.8447
99.0824
99.3321
99.5936
99.8671
100.152
100.45
100.759
101.08
101.412
101.757
102.114
102.482
102.862
103.254
103.657
104.072
104.499
104.938
105.388
105.85
106.323
106.807
107.303
107.811
108.329
108.859
109.4
109.952
110.514
111.087
111.671
112.265
112.869
113.482
114.106
114.738
115.38
116.03
116.688
117.355
118.029
118.709
119.397
120.09
120.789
121.492
122.198
122.906
123.613
124.316
125.013
125.703
126.383
127.054
127.714
128.364
129.002
129.628
130.239
130.836
131.415
131.977
132.519
133.04
133.538
134.011
134.459
134.879
135.271
135.632
135.961
136.258
136.521
136.75
136.944
137.104
137.229
137.323
137.38
137.422
96.2461
96.2554
96.2774
96.3124
96.3592
96.4173
96.4869
96.5681
96.6611
96.7657
96.8819
97.0098
97.1494
97.3007
97.4636
97.6382
97.8245
98.0225
98.2321
98.4534
98.6864
98.931
99.1873
99.4552
99.7347
100.026
100.329
100.643
100.969
101.307
101.656
102.016
102.388
102.772
103.167
103.573
103.991
104.421
104.861
105.313
105.776
106.25
106.736
107.232
107.739
108.258
108.786
109.326
109.876
110.436
111.007
111.587
112.177
112.777
113.386
114.004
114.631
115.266
115.909
116.559
117.217
117.882
118.553
119.229
119.911
120.597
121.286
121.976
122.665
123.35
124.029
124.699
125.36
126.011
126.652
127.282
127.9
128.506
129.097
129.674
130.234
130.777
131.3
131.802
132.283
132.739
133.171
133.575
133.952
134.3
134.618
134.904
135.159
135.381
135.57
135.727
135.849
135.942
136
136.042
95.8872
95.8963
95.9178
95.9521
95.998
96.055
96.1231
96.2027
96.2938
96.3963
96.5102
96.6355
96.7722
96.9203
97.0799
97.2509
97.4333
97.6271
97.8324
98.049
98.2771
98.5165
98.7674
99.0296
99.3031
99.588
99.8843
100.192
100.511
100.841
101.182
101.535
101.899
102.274
102.66
103.058
103.466
103.886
104.316
104.758
105.211
105.674
106.148
106.633
107.129
107.635
108.151
108.678
109.215
109.761
110.318
110.884
111.46
112.045
112.639
113.241
113.852
114.471
115.098
115.732
116.372
117.02
117.673
118.332
118.995
119.662
120.333
121.004
121.673
122.338
122.997
123.646
124.286
124.915
125.534
126.142
126.738
127.321
127.891
128.446
128.985
129.505
130.007
130.489
130.949
131.387
131.799
132.186
132.547
132.879
133.183
133.457
133.701
133.914
134.097
134.248
134.367
134.458
134.514
134.556
95.5169
95.5258
95.5469
95.5805
95.6254
95.6811
95.7479
95.8258
95.9149
96.0152
96.1266
96.2492
96.383
96.5279
96.684
96.8513
97.0297
97.2193
97.42
97.6319
97.8549
98.089
98.3342
98.5905
98.8579
99.1364
99.4259
99.7264
100.038
100.361
100.694
101.039
101.394
101.76
102.138
102.526
102.924
103.334
103.754
104.185
104.627
105.079
105.541
106.014
106.497
106.991
107.494
108.007
108.531
109.063
109.605
110.157
110.717
111.287
111.865
112.451
113.045
113.647
114.256
114.872
115.495
116.123
116.758
117.397
118.041
118.688
119.338
119.988
120.637
121.28
121.917
122.544
123.16
123.766
124.36
124.944
125.515
126.074
126.619
127.15
127.664
128.161
128.639
129.097
129.535
129.95
130.341
130.708
131.049
131.364
131.651
131.911
132.141
132.344
132.517
132.661
132.775
132.862
132.916
132.956
95.1355
95.1441
95.1648
95.1976
95.2415
95.296
95.3613
95.4374
95.5246
95.6226
95.7316
95.8514
95.9821
96.1238
96.2763
96.4397
96.614
96.7992
96.9953
97.2022
97.42
97.6486
97.8881
98.1383
98.3994
98.6712
98.9538
99.2471
99.5511
99.8659
100.191
100.527
100.874
101.231
101.599
101.977
102.366
102.765
103.175
103.595
104.025
104.465
104.916
105.376
105.846
106.326
106.816
107.316
107.824
108.342
108.869
109.405
109.95
110.503
111.064
111.633
112.209
112.793
113.384
113.981
114.584
115.193
115.807
116.426
117.049
117.675
118.302
118.93
119.556
120.177
120.789
121.391
121.983
122.562
123.13
123.686
124.231
124.762
125.28
125.783
126.27
126.74
127.191
127.623
128.035
128.424
128.792
129.135
129.454
129.748
130.016
130.257
130.472
130.66
130.821
130.956
131.062
131.144
131.194
131.233
94.7431
94.7516
94.7718
94.8038
94.8467
94.8999
94.9637
95.038
95.1231
95.2188
95.3252
95.4422
95.5698
95.708
95.8569
96.0164
96.1865
96.3672
96.5585
96.7604
96.9728
97.1958
97.4293
97.6733
97.9278
98.1928
98.4683
98.7542
99.0505
99.3572
99.6742
100.002
100.339
100.687
101.045
101.413
101.792
102.18
102.579
102.987
103.406
103.834
104.272
104.719
105.176
105.642
106.118
106.603
107.097
107.599
108.11
108.63
109.158
109.694
110.237
110.788
111.346
111.911
112.482
113.059
113.642
114.229
114.822
115.419
116.019
116.622
117.226
117.83
118.431
119.027
119.613
120.189
120.753
121.304
121.843
122.369
122.884
123.385
123.873
124.345
124.801
125.241
125.662
126.064
126.446
126.806
127.145
127.462
127.755
128.024
128.268
128.489
128.684
128.855
129.001
129.123
129.219
129.293
129.339
129.376
94.3401
94.3484
94.3681
94.3994
94.4412
94.4931
94.5553
94.6278
94.7108
94.8041
94.9078
95.0219
95.1463
95.2811
95.4262
95.5817
95.7475
95.9236
96.1099
96.3066
96.5136
96.7308
96.9582
97.1958
97.4437
97.7017
97.9698
98.2481
98.5364
98.8348
99.1432
99.4616
99.79
100.128
100.476
100.834
101.202
101.579
101.966
102.363
102.769
103.185
103.61
104.044
104.487
104.939
105.4
105.869
106.348
106.834
107.329
107.832
108.342
108.86
109.385
109.917
110.455
111
111.55
112.106
112.667
113.233
113.803
114.376
114.952
115.53
116.11
116.688
117.263
117.831
118.39
118.937
119.471
119.991
120.498
120.992
121.473
121.941
122.395
122.834
123.256
123.661
124.047
124.415
124.763
125.091
125.398
125.682
125.945
126.185
126.402
126.596
126.768
126.917
127.044
127.151
127.234
127.298
127.337
127.371
93.9268
93.9348
93.954
93.9845
94.0252
94.0758
94.1363
94.207
94.2878
94.3787
94.4797
94.5908
94.712
94.8432
94.9845
95.1358
95.2972
95.4686
95.6499
95.8413
96.0426
96.2539
96.4751
96.7062
96.9472
97.198
97.4587
97.7291
98.0092
98.2991
98.5987
98.9079
99.2267
99.5551
99.893
100.24
100.597
100.963
101.338
101.723
102.116
102.519
102.93
103.35
103.779
104.216
104.662
105.116
105.578
106.048
106.526
107.01
107.503
108.002
108.507
109.019
109.537
110.061
110.59
111.124
111.662
112.204
112.749
113.298
113.849
114.401
114.953
115.504
116.051
116.59
117.119
117.635
118.136
118.623
119.095
119.554
119.999
120.43
120.846
121.247
121.631
121.997
122.345
122.674
122.984
123.273
123.542
123.79
124.017
124.222
124.406
124.57
124.713
124.836
124.94
125.026
125.093
125.145
125.175
125.206
93.5033
93.5111
93.5298
93.5594
93.5991
93.6483
93.7072
93.7759
93.8545
93.943
94.0412
94.1492
94.2671
94.3947
94.532
94.6791
94.836
95.0025
95.1788
95.3648
95.5604
95.7656
95.9804
96.2048
96.4388
96.6823
96.9352
97.1976
97.4694
97.7506
98.0411
98.3409
98.65
98.9682
99.2955
99.6319
99.9772
100.332
100.695
101.067
101.447
101.836
102.234
102.64
103.054
103.476
103.906
104.343
104.789
105.241
105.701
106.168
106.641
107.12
107.606
108.097
108.594
109.095
109.602
110.112
110.626
111.143
111.663
112.186
112.709
113.234
113.758
114.28
114.796
115.304
115.801
116.283
116.75
117.2
117.635
118.054
118.46
118.85
119.225
119.583
119.925
120.248
120.552
120.837
121.103
121.348
121.573
121.778
121.963
122.127
122.272
122.398
122.506
122.598
122.673
122.734
122.781
122.817
122.836
122.862
93.07
93.0776
93.0957
93.1245
93.1631
93.2109
93.2681
93.3349
93.4112
93.4971
93.5925
93.6975
93.8119
93.9358
94.0691
94.2119
94.3642
94.5258
94.6969
94.8773
95.067
95.2661
95.4744
95.692
95.9188
96.1548
96.3999
96.6541
96.9174
97.1896
97.4709
97.761
98.06
98.3678
98.6844
99.0095
99.3433
99.6855
100.036
100.395
100.762
101.138
101.521
101.912
102.311
102.717
103.131
103.552
103.98
104.415
104.856
105.303
105.757
106.216
106.681
107.15
107.625
108.103
108.586
109.072
109.561
110.052
110.545
111.04
111.535
112.03
112.524
113.014
113.499
113.974
114.436
114.883
115.312
115.723
116.116
116.494
116.855
117.201
117.53
117.842
118.135
118.41
118.665
118.9
119.116
119.31
119.485
119.639
119.774
119.89
119.988
120.069
120.135
120.187
120.227
120.258
120.278
120.295
120.301
120.319
92.6271
92.6345
92.6521
92.68
92.7174
92.7638
92.8193
92.8841
92.9582
93.0415
93.134
93.2358
93.3467
93.4668
93.5961
93.7346
93.8821
94.0388
94.2045
94.3792
94.563
94.7558
94.9575
95.1681
95.3876
95.6159
95.853
96.0989
96.3534
96.6166
96.8884
97.1687
97.4574
97.7546
98.06
98.3738
98.6956
99.0256
99.3635
99.7092
100.063
100.424
100.793
101.168
101.552
101.942
102.339
102.742
103.152
103.569
103.991
104.419
104.852
105.29
105.733
106.18
106.631
107.086
107.544
108.004
108.467
108.931
109.396
109.861
110.326
110.79
111.252
111.709
112.16
112.6
113.025
113.434
113.822
114.191
114.54
114.872
115.186
115.482
115.761
116.021
116.261
116.482
116.681
116.86
117.018
117.154
117.27
117.366
117.443
117.501
117.543
117.57
117.584
117.588
117.584
117.577
117.565
117.557
117.545
117.556
92.1749
92.1821
92.1992
92.2262
92.2624
92.3074
92.3611
92.4239
92.4957
92.5764
92.666
92.7645
92.8719
92.9882
93.1133
93.2473
93.3901
93.5416
93.7019
93.871
94.0487
94.235
94.43
94.6335
94.8456
95.0661
95.295
95.5324
95.778
96.0319
96.294
96.5643
96.8426
97.1289
97.4231
97.7251
98.0348
98.3521
98.677
99.0092
99.3487
99.6953
100.049
100.409
100.776
101.15
101.53
101.916
102.307
102.704
103.107
103.514
103.926
104.343
104.763
105.187
105.614
106.044
106.476
106.91
107.345
107.78
108.216
108.65
109.084
109.515
109.943
110.366
110.78
111.182
111.569
111.937
112.282
112.606
112.907
113.189
113.451
113.694
113.917
114.12
114.301
114.461
114.598
114.713
114.805
114.875
114.923
114.951
114.959
114.949
114.923
114.884
114.836
114.781
114.723
114.667
114.615
114.575
114.541
114.542
91.7138
91.7207
91.7372
91.7634
91.7984
91.8419
91.8939
91.9546
92.024
92.102
92.1887
92.2839
92.3877
92.5001
92.6211
92.7505
92.8884
93.0348
93.1896
93.3528
93.5244
93.7042
93.8923
94.0886
94.2931
94.5057
94.7264
94.955
95.1916
95.4361
95.6884
95.9484
96.216
96.4912
96.7739
97.0639
97.3613
97.6657
97.9772
98.2956
98.6208
98.9526
99.2908
99.6353
99.9859
100.342
100.704
101.072
101.445
101.822
102.205
102.591
102.981
103.375
103.773
104.172
104.575
104.979
105.384
105.79
106.196
106.602
107.006
107.409
107.81
108.207
108.599
108.985
109.361
109.724
110.069
110.393
110.693
110.968
111.218
111.446
111.651
111.836
111.998
112.138
112.254
112.346
112.413
112.456
112.473
112.467
112.437
112.385
112.312
112.221
112.114
111.996
111.871
111.743
111.618
111.502
111.398
111.318
111.257
111.243
91.2439
91.2506
91.2666
91.2919
91.3257
91.3677
91.4179
91.4765
91.5435
91.6188
91.7024
91.7944
91.8946
92.003
92.1197
92.2445
92.3775
92.5187
92.6679
92.8252
92.9904
93.1637
93.3448
93.5338
93.7306
93.9352
94.1474
94.3672
94.5946
94.8295
95.0718
95.3214
95.5782
95.8421
96.1131
96.3909
96.6756
96.967
97.2649
97.5692
97.8797
98.1963
98.5188
98.8471
99.1808
99.5198
99.8638
100.213
100.566
100.923
101.285
101.65
102.018
102.389
102.762
103.137
103.513
103.891
104.268
104.646
105.022
105.397
105.769
106.139
106.504
106.865
107.22
107.567
107.903
108.224
108.526
108.804
109.055
109.278
109.474
109.643
109.788
109.908
110.004
110.075
110.119
110.136
110.125
110.086
110.019
109.925
109.805
109.66
109.492
109.305
109.102
108.888
108.668
108.45
108.24
108.048
107.88
107.748
107.65