/*--------------------------------*- C++ -*----------------------------------*\
| =========                 |                                                 |
| \\      /  F ield         | OpenFOAM: The Open Source CFD Toolbox           |
|  \\    /   O peration     | Version:  4.1                                   |
|   \\  /    A nd           | Web:      www.OpenFOAM.org                      |
|    \\/     M anipulation  |                                                 |
\*---------------------------------------------------------------------------*/
FoamFile
{
    version     2.0;
    format      ascii;
    class       surfaceScalarField;
    location    "0.16";
    object      phi;
}
// * * * * * * * * * * * * * * * * * * * * * * * * * * * * * * * * * * * * * //

dimensions      [0 3 -1 0 0 0 0];

internalField   nonuniform List<scalar> 
87025
(
0.0199666
3.3384e-05
0.0199106
5.60444e-05
0.0198434
6.71635e-05
0.0197671
7.62902e-05
0.0196823
8.48526e-05
0.0195896
9.26559e-05
0.0194899
9.97577e-05
0.0193834
0.000106444
0.0192705
0.000112917
0.0191512
0.000119249
0.0190258
0.000125467
0.0188942
0.000131599
0.0187565
0.000137677
0.0186128
0.000143727
0.018463
0.00014977
0.0183072
0.000155825
0.0181453
0.000161911
0.0179772
0.000168049
0.017803
0.000174257
0.0176224
0.000180557
0.0174354
0.000186967
0.0172419
0.000193503
0.0170417
0.000200184
0.0168347
0.000207024
0.0166207
0.000214034
0.0163995
0.000221225
0.0161709
0.000228598
0.0159347
0.000236155
0.0156908
0.000243887
0.015439
0.000251777
0.0151793
0.000259794
0.0149114
0.000267897
0.0146353
0.000276032
0.0143512
0.000284126
0.0140591
0.000292086
0.0137593
0.000299801
0.0134522
0.00030714
0.0131382
0.000313951
0.0128181
0.000320071
0.0124928
0.000325325
0.0121633
0.000329543
0.0118307
0.000332563
0.0114965
0.000334255
0.0111619
0.000334535
0.0108285
0.000333383
0.0104977
0.000330865
0.0101705
0.000327148
0.00984803
0.000322504
0.00953072
0.00031731
0.0092187
0.000312022
0.00891156
0.000307137
0.00860844
0.000303122
0.0083081
0.000300333
0.00800919
0.000298916
0.00771045
0.000298739
0.00741106
0.000299393
0.00711077
0.000300288
0.00680992
0.000300845
0.00650921
0.000300709
0.00620933
0.000299888
0.00591059
0.000298736
0.00561281
0.000297778
0.00531536
0.000297451
0.00501747
0.00029789
0.00471864
0.000298833
0.00441893
0.00029971
0.00411907
0.000299859
0.00382028
0.000298792
0.00352392
0.000296364
0.00323115
0.000292766
0.00294279
0.000288358
0.00265933
0.000283457
0.00238112
0.000278215
0.0021085
0.000272619
0.00184193
0.000266571
0.00158197
0.00025996
0.00132928
0.00025269
0.0010846
0.00024468
0.000848739
0.00023586
0.000622565
0.000226174
0.000406982
0.000215583
0.000202945
0.000204038
1.148e-05
0.000191465
-0.000166293
0.000177773
-0.000329151
0.000162858
-0.000475701
0.00014655
-0.0006043
0.0001286
-0.000713242
0.000108942
-0.000800487
8.72452e-05
-0.000863886
6.33985e-05
-0.000901363
3.74775e-05
-0.000909557
8.19359e-06
-0.000886343
-2.32138e-05
-0.000831805
-5.45384e-05
-0.000747786
-8.40186e-05
-0.000637655
-0.000110131
-0.000505772
-0.000131883
-0.000358081
-0.000147691
-0.000194199
-0.000163881
-0.000194199
0.0200238
9.62674e-06
0.0200531
2.67059e-05
0.0200818
3.84111e-05
0.0201101
4.80374e-05
0.0201374
5.75041e-05
0.0201633
6.68357e-05
0.0201872
7.5852e-05
0.020209
8.46688e-05
0.0202284
9.34646e-05
0.0202453
0.000102327
0.0202595
0.000111284
0.0202707
0.000120359
0.0202788
0.000129577
0.0202836
0.000138964
0.0202848
0.000148537
0.0202824
0.000158313
0.020276
0.000168307
0.0202655
0.000178535
0.0202507
0.000189014
0.0202315
0.000199765
0.0202077
0.000210807
0.020179
0.000222157
0.0201454
0.000233842
0.0201065
0.000245884
0.0200622
0.00025831
0.0200123
0.000271144
0.0199565
0.000284411
0.0198945
0.000298131
0.0198261
0.000312322
0.0197509
0.000326994
0.0196685
0.000342148
0.0195786
0.000357775
0.0194808
0.000373849
0.0193746
0.000390328
0.0192596
0.000407144
0.0191352
0.000424205
0.0190009
0.000441392
0.0188563
0.000458554
0.0187009
0.000475512
0.0185341
0.000492064
0.0183557
0.000507986
0.0181652
0.000523051
0.0179624
0.00053704
0.0177472
0.000549766
0.0175195
0.000561098
0.0172793
0.000570983
0.017027
0.000579473
0.0167628
0.00058673
0.0164871
0.000593036
0.0162003
0.000598768
0.0159031
0.000604358
0.015596
0.000610238
0.0152796
0.00061675
0.0149544
0.000624079
0.0146209
0.000632189
0.0142795
0.000640822
0.0139302
0.000649563
0.0135731
0.000657975
0.0132081
0.000665754
0.0128351
0.00067286
0.0124543
0.000679543
0.0120658
0.00068623
0.01167
0.000693292
0.0112671
0.000700745
0.0108579
0.000708045
0.0104435
0.000714094
0.0100258
0.000717564
0.0096072
0.000717428
0.0091901
0.000713465
0.00877643
0.000706437
0.00836699
0.000697798
0.00796136
0.000689083
0.0075583
0.000681279
0.0071564
0.000674522
0.00675477
0.0006682
0.00635338
0.000661344
0.00595303
0.000653047
0.005555
0.000642706
0.00516081
0.000630047
0.00477197
0.000615012
0.00438995
0.000597609
0.00401617
0.000577821
0.00365206
0.000555574
0.00329909
0.000530743
0.00295878
0.000503165
0.00263262
0.000472713
0.00232204
0.000439174
0.00202858
0.0004024
0.00175357
0.000362262
0.00149823
0.000318739
0.00126365
0.000272053
0.00104914
0.000222706
0.000854066
0.000171858
0.000678846
0.000120682
0.000523725
7.11023e-05
0.000387869
2.57247e-05
0.000269119
-1.31326e-05
0.000166943
-4.55154e-05
7.49762e-05
-7.19145e-05
-0.000119223
0.0200005
9.12749e-06
0.0200006
2.65791e-05
0.0199976
4.14234e-05
0.0199913
5.43822e-05
0.0199821
6.67039e-05
0.0199701
7.87654e-05
0.0199555
9.05086e-05
0.0199382
0.000101974
0.0199183
0.0001133
0.0198961
0.00012459
0.0198715
0.000135887
0.0198446
0.00014722
0.0198156
0.000158616
0.0197844
0.000170104
0.0197513
0.000181706
0.0197161
0.000193445
0.0196791
0.000205337
0.0196402
0.000217401
0.0195996
0.000229655
0.0195572
0.000242118
0.0195132
0.000254811
0.0194676
0.000267755
0.0194205
0.000280973
0.0193719
0.00029449
0.0193219
0.000308334
0.0192705
0.000322531
0.0192178
0.000337107
0.0191638
0.000352089
0.0191087
0.000367501
0.0190523
0.000383365
0.0189947
0.000399697
0.018936
0.000416509
0.0188761
0.000433805
0.0188148
0.000451576
0.0187521
0.000469804
0.0186879
0.00048845
0.0186218
0.000507463
0.0185536
0.00052677
0.0184828
0.000546282
0.018409
0.000565889
0.0183315
0.000585469
0.0182497
0.00060489
0.0181627
0.00062402
0.0180697
0.000642741
0.0179699
0.000660963
0.0178622
0.000678637
0.0177459
0.000695778
0.0176202
0.000712468
0.0174844
0.000728863
0.0173379
0.000745181
0.0171806
0.000761681
0.0170122
0.00077862
0.0168328
0.000796211
0.0166423
0.000814564
0.0164408
0.000833655
0.0162283
0.000853319
0.0160046
0.000873284
0.0157693
0.000893247
0.0155221
0.000912962
0.0152627
0.000932321
0.0149908
0.000951385
0.0147067
0.000970342
0.0144106
0.00098941
0.0141027
0.00100868
0.0137828
0.00102792
0.0134504
0.00104646
0.0131048
0.00106314
0.0127458
0.0010765
0.012374
0.00108524
0.0119916
0.00108878
0.0116018
0.00108763
0.0112075
0.00108341
0.0108105
0.00107825
0.0104111
0.0010739
0.0100083
0.001071
0.00960074
0.00106893
0.00918747
0.00106632
0.00876845
0.00106173
0.00834433
0.00105417
0.00791614
0.0010432
0.00748502
0.00102873
0.00705208
0.00101075
0.00661842
0.000989234
0.0061851
0.000964068
0.00575314
0.000935124
0.00532358
0.000902274
0.00489737
0.000865379
0.00447544
0.000824335
0.00405861
0.000779087
0.00364767
0.000729677
0.00324338
0.000676352
0.00284644
0.000619641
0.00245777
0.000560531
0.00207805
0.000500402
0.00170808
0.000441066
0.00134896
0.000384847
0.00100149
0.000334336
0.000663478
0.0002925
0.000331675
0.000259889
0.000212452
0.0199997
9.47555e-06
0.019998
2.82055e-05
0.0199937
4.57278e-05
0.0199861
6.19968e-05
0.0199752
7.75743e-05
0.0199612
9.28303e-05
0.0199439
0.000107824
0.0199233
0.000122577
0.0198994
0.000137175
0.0198723
0.000151709
0.0198419
0.000166233
0.0198084
0.000180781
0.0197716
0.000195379
0.0197316
0.000210055
0.0196885
0.00022483
0.0196422
0.000239725
0.0195928
0.000254753
0.0195403
0.000269929
0.0194847
0.000285267
0.019426
0.000300779
0.0193643
0.00031648
0.0192997
0.000332384
0.0192322
0.000348507
0.0191618
0.000364866
0.0190887
0.000381478
0.0190128
0.00039836
0.0189344
0.000415529
0.0188535
0.000432998
0.0187702
0.000450782
0.0186847
0.000468888
0.0185971
0.000487323
0.0185075
0.000506086
0.0184161
0.000525173
0.0183231
0.000544568
0.0182287
0.000564251
0.018133
0.000584188
0.0180361
0.000604336
0.0179382
0.000624644
0.0178394
0.000645052
0.0177398
0.000665495
0.0176394
0.000685905
0.0175381
0.000706216
0.0174357
0.000726372
0.0173321
0.000746331
0.017227
0.00076608
0.01712
0.000785635
0.0170107
0.000805055
0.0168988
0.000824444
0.0167837
0.000843944
0.0166651
0.000863733
0.0165428
0.000884007
0.0164165
0.000904951
0.016286
0.000926716
0.0161511
0.000949386
0.0160118
0.000972961
0.0158678
0.000997351
0.0157187
0.0010224
0.015564
0.00104793
0.0154032
0.00107376
0.0152358
0.00109977
0.0150613
0.00112585
0.0148797
0.00115193
0.0146911
0.00117798
0.0144958
0.00120404
0.0142934
0.00123033
0.0140827
0.00125714
0.0138612
0.00128459
0.0136255
0.00131222
0.013372
0.00133881
0.0130982
0.0013625
0.0128043
0.00138152
0.0124926
0.00139511
0.0121669
0.00140395
0.011831
0.00140985
0.0114872
0.00141477
0.0111363
0.00141987
0.0107776
0.00142504
0.01041
0.00142932
0.0100326
0.00143153
0.00964503
0.00143079
0.00924705
0.00142671
0.00883868
0.00141913
0.00841991
0.001408
0.00799073
0.00139325
0.0075511
0.00137475
0.00710102
0.00135235
0.00664048
0.00132592
0.00616949
0.00129532
0.00568815
0.00126043
0.00519667
0.00122116
0.00469552
0.0011775
0.00418552
0.00112963
0.00366805
0.001078
0.003145
0.00102346
0.00261869
0.000967368
0.00209172
0.000911822
0.00156626
0.000859798
0.00104381
0.000814949
0.000522772
0.000780923
0.000735224
0.0199991
1.03477e-05
0.0199963
3.10049e-05
0.019991
5.10387e-05
0.0199827
7.02732e-05
0.0199714
8.8912e-05
0.019957
0.00010721
0.0199396
0.000125274
0.019919
0.000143141
0.0198953
0.000160871
0.0198685
0.000178536
0.0198385
0.000196197
0.0198054
0.000213892
0.0197691
0.000231649
0.0197297
0.000249498
0.0196871
0.00026746
0.0196412
0.000285558
0.0195922
0.000303806
0.0195399
0.00032222
0.0194843
0.000340811
0.0194255
0.000359593
0.0193634
0.000378578
0.019298
0.000397779
0.0192293
0.000417209
0.0191573
0.000436884
0.019082
0.000456817
0.0190033
0.000477023
0.0189213
0.000497515
0.018836
0.000518304
0.0187474
0.000539396
0.0186555
0.000560797
0.0185603
0.000582505
0.0184619
0.000604513
0.0183603
0.000626808
0.0182555
0.000649371
0.0181475
0.00067217
0.0180366
0.000695169
0.0179226
0.000718319
0.0178056
0.000741567
0.0176858
0.000764853
0.0175632
0.000788113
0.0174378
0.000811286
0.0173098
0.000834313
0.017179
0.000857149
0.0170455
0.000879763
0.0169095
0.000902151
0.0167708
0.000924334
0.0166295
0.000946367
0.0164856
0.000968339
0.0163391
0.000990367
0.0161903
0.00101259
0.0160391
0.00103516
0.0158859
0.00105822
0.0157307
0.00108188
0.0155739
0.00110621
0.0154156
0.00113124
0.015256
0.00115691
0.0150953
0.00118317
0.0149333
0.00120991
0.01477
0.00123703
0.0146054
0.0012644
0.0144394
0.00129182
0.0142723
0.00131901
0.0141046
0.00134566
0.013937
0.00137168
0.0137698
0.00139753
0.0136026
0.0014244
0.0134332
0.00145397
0.0132578
0.00148762
0.0130711
0.00152546
0.012868
0.00156559
0.012645
0.00160459
0.0124013
0.00163881
0.0121392
0.001666
0.0118628
0.00168625
0.0115761
0.00170148
0.0112818
0.00171416
0.0109808
0.00172603
0.0106726
0.00173755
0.0103559
0.00174823
0.0100293
0.00175734
0.00969174
0.00176431
0.00934194
0.00176893
0.00897879
0.00177115
0.00860109
0.00177095
0.00820754
0.0017683
0.00779676
0.00176313
0.00736736
0.00175533
0.00691793
0.00174475
0.00644719
0.00173117
0.00595404
0.0017143
0.00543779
0.00169376
0.00489832
0.0016691
0.00433634
0.00163998
0.00375356
0.00160624
0.0031527
0.00156823
0.00253732
0.0015272
0.00191147
0.00148565
0.00127918
0.00144725
0.000642069
0.00141803
0.00137729
0.0199989
1.14694e-05
0.0199955
3.43692e-05
0.0199897
5.69012e-05
0.019981
7.89218e-05
0.0199694
0.00010049
0.0199549
0.000121755
0.0199373
0.000142818
0.0199168
0.000163725
0.0198931
0.000184525
0.0198664
0.000205274
0.0198365
0.000226026
0.0198036
0.000246821
0.0197676
0.000267689
0.0197284
0.000288657
0.0196861
0.000309749
0.0196407
0.000330986
0.0195921
0.000352384
0.0195404
0.00037396
0.0194855
0.000395724
0.0194274
0.000417691
0.0193661
0.000439871
0.0193016
0.000462279
0.0192338
0.000484929
0.0191629
0.000507835
0.0190887
0.000531013
0.0190112
0.000554479
0.0189305
0.000578245
0.0188465
0.000602325
0.0187592
0.000626727
0.0186685
0.000651457
0.0185745
0.000676517
0.0184771
0.000701901
0.0183763
0.000727601
0.0182721
0.000753599
0.0181644
0.00077987
0.0180532
0.000806384
0.0179384
0.000833099
0.01782
0.000859969
0.0176979
0.000886943
0.017572
0.000913968
0.0174423
0.000940988
0.0173087
0.000967955
0.017171
0.000994825
0.0170292
0.00102157
0.0168832
0.00104818
0.0167329
0.00107465
0.0165782
0.00110103
0.0164192
0.00112736
0.0162558
0.00115371
0.0160882
0.00118018
0.0159166
0.00120684
0.015741
0.00123378
0.0155618
0.00126106
0.0153794
0.0012887
0.0151939
0.00131671
0.0150057
0.00134504
0.0148153
0.00137362
0.0146228
0.00140237
0.0144287
0.00143118
0.0142332
0.00145988
0.0140368
0.00148819
0.0138401
0.00151571
0.0136438
0.00154201
0.0134484
0.00156699
0.0132547
0.00159128
0.0130625
0.00161655
0.0128711
0.0016454
0.0126783
0.00168044
0.0124808
0.00172294
0.0122748
0.00177161
0.0120568
0.00182256
0.0118251
0.00187055
0.0115799
0.00191123
0.0113232
0.00194288
0.0110581
0.00196663
0.0107869
0.0019853
0.0105113
0.00200171
0.0102313
0.00201752
0.00994638
0.00203314
0.00965543
0.00204828
0.00935713
0.00206262
0.00905004
0.00207602
0.0087326
0.00208859
0.00840305
0.0021005
0.00805941
0.00211195
0.00769946
0.00212308
0.00732078
0.002134
0.00692078
0.00214475
0.00649677
0.00215518
0.00604612
0.00216496
0.00556641
0.00217346
0.00505578
0.00217974
0.00451315
0.00218261
0.00393865
0.00218073
0.00333384
0.00217305
0.00270182
0.00215922
0.00204712
0.00214034
0.00137535
0.00211902
0.000691283
0.0021021
0.00206858
0.0199988
1.26981e-05
0.0199951
3.80365e-05
0.0199889
6.31325e-05
0.0199799
8.78917e-05
0.0199681
0.000112323
0.0199533
0.000136506
0.0199356
0.000160518
0.0199149
0.000184409
0.0198912
0.000208222
0.0198645
0.000232004
0.0198347
0.000255802
0.0198019
0.000279654
0.019766
0.000303591
0.019727
0.00032764
0.0196849
0.000351824
0.0196398
0.000376165
0.0195915
0.000400678
0.01954
0.00042538
0.0194855
0.00045028
0.0194278
0.000475392
0.0193669
0.000500727
0.0193029
0.000526298
0.0192357
0.000552119
0.0191654
0.000578205
0.0190918
0.00060457
0.019015
0.000631232
0.0189351
0.000658206
0.0188519
0.000685503
0.0187655
0.000713136
0.0186758
0.000741113
0.0185829
0.000769437
0.0184867
0.000798109
0.0183872
0.000827123
0.0182843
0.000856469
0.0181781
0.00088613
0.0180684
0.000916083
0.0179552
0.0009463
0.0178384
0.000976748
0.0177179
0.00100739
0.0175937
0.00103818
0.0174656
0.0010691
0.0173335
0.00110009
0.0171971
0.00113114
0.0170565
0.00116223
0.0169113
0.00119334
0.0167615
0.00122449
0.0166068
0.00125569
0.0164472
0.00128698
0.0162825
0.0013184
0.0161127
0.00135
0.0159377
0.00138182
0.0157576
0.0014139
0.0155724
0.00144625
0.0153822
0.00147887
0.0151872
0.00151172
0.0149875
0.00154473
0.0147834
0.0015778
0.0145749
0.00161082
0.0143625
0.00164364
0.0141463
0.00167601
0.0139269
0.00170761
0.0137046
0.00173799
0.0134798
0.00176681
0.0132527
0.00179414
0.0130231
0.00182088
0.0127907
0.00184893
0.0125551
0.00188101
0.0123158
0.00191975
0.0120723
0.00196641
0.0118242
0.00201975
0.0115708
0.00207594
0.0113117
0.00212967
0.0110466
0.00217627
0.010776
0.00221348
0.0105007
0.00224198
0.0102216
0.00226439
0.00993965
0.00228366
0.00965535
0.00230182
0.00936874
0.00231975
0.00907941
0.00233761
0.00878666
0.00235537
0.00848951
0.00237317
0.00818676
0.00239134
0.00787691
0.00241035
0.00755817
0.00243069
0.00722834
0.0024529
0.00688489
0.00247746
0.00652486
0.00250478
0.00614493
0.00253511
0.00574152
0.00256837
0.00531093
0.00260405
0.0048496
0.00264108
0.0043545
0.0026777
0.00382361
0.00271162
0.0032564
0.00274026
0.00265431
0.00276131
0.00202098
0.00277368
0.00136228
0.00277771
0.00068514
0.00277923
0.00275372
0.0199987
1.39844e-05
0.0199949
4.18828e-05
0.0199884
6.96017e-05
0.0199792
9.70843e-05
0.0199672
0.000124328
0.0199523
0.000151378
0.0199346
0.000178292
0.0199138
0.000205117
0.0198902
0.000231894
0.0198635
0.000258664
0.0198338
0.000285467
0.0198012
0.000312341
0.0197654
0.000339315
0.0197267
0.000366416
0.0196848
0.000393667
0.0196399
0.000421087
0.0195919
0.000448692
0.0195408
0.000476497
0.0194865
0.000504512
0.0194292
0.000532749
0.0193687
0.000561218
0.0193051
0.000589932
0.0192383
0.000618904
0.0191683
0.00064815
0.0190952
0.000677685
0.0190189
0.000707525
0.0189394
0.000737687
0.0188568
0.000768185
0.0187709
0.000799031
0.0186817
0.000830236
0.0185894
0.000861805
0.0184937
0.000893743
0.0183948
0.000926048
0.0182926
0.000958715
0.018187
0.000991732
0.018078
0.00102509
0.0179655
0.00105876
0.0178495
0.00109272
0.01773
0.00112696
0.0176067
0.00116144
0.0174797
0.00119614
0.0173487
0.00123104
0.0172137
0.00126613
0.0170746
0.00130139
0.0169311
0.00133684
0.0167831
0.00137247
0.0166305
0.00140832
0.016473
0.00144441
0.0163107
0.00148076
0.0161433
0.00151743
0.0159706
0.00155442
0.0157928
0.00159176
0.0156096
0.00162945
0.015421
0.00166747
0.015227
0.00170575
0.0150275
0.00174422
0.0148225
0.00178279
0.014612
0.00182132
0.014396
0.00185962
0.0141746
0.00189743
0.0139478
0.00193437
0.0137157
0.00197008
0.0134781
0.00200437
0.0132346
0.00203768
0.0129842
0.00207127
0.0127258
0.00210729
0.0124587
0.0021482
0.0121826
0.00219578
0.0118989
0.00225016
0.0116094
0.00230919
0.0113166
0.00236882
0.0110219
0.00242434
0.0107261
0.0024721
0.0104288
0.00251073
0.0101295
0.00254124
0.00982789
0.00256605
0.00952386
0.00258769
0.00921778
0.0026079
0.00891003
0.0026275
0.00860082
0.00264681
0.00829014
0.00266605
0.00797771
0.0026856
0.00766304
0.00270601
0.00734537
0.00272801
0.00702365
0.00275242
0.00669643
0.00278012
0.0063618
0.00281208
0.00601737
0.00284922
0.00566015
0.00289233
0.0052866
0.00294191
0.0048927
0.00299795
0.00447413
0.00305965
0.00402659
0.00312524
0.00354632
0.00319189
0.00303077
0.00325581
0.00247931
0.00331277
0.00189385
0.00335913
0.00127936
0.0033922
0.000643354
0.00341525
0.00339707
0.0199987
1.53046e-05
0.0199947
4.58322e-05
0.0199881
7.62127e-05
0.0199788
0.000106416
0.0199667
0.000136442
0.0199517
0.000166324
0.0199339
0.000196103
0.0199132
0.000225824
0.0198896
0.000255524
0.019863
0.000285242
0.0198335
0.000315015
0.0198009
0.000344876
0.0197654
0.000374854
0.0197268
0.000404974
0.0196852
0.00043526
0.0196406
0.000465728
0.0195929
0.000496397
0.0195421
0.000527277
0.0194882
0.000558381
0.0194313
0.000589717
0.0193712
0.000621296
0.019308
0.000653131
0.0192417
0.000685235
0.0191722
0.000717622
0.0190996
0.00075031
0.0190238
0.000783315
0.0189448
0.000816655
0.0188626
0.000850345
0.0187773
0.0008844
0.0186887
0.000918833
0.0185968
0.000953651
0.0185017
0.000988863
0.0184033
0.00102447
0.0183015
0.00106047
0.0181964
0.00109686
0.0180879
0.00113364
0.0179758
0.00117078
0.0178603
0.00120828
0.0177411
0.00124611
0.0176183
0.00128428
0.0174917
0.00132275
0.0173612
0.00136152
0.0172267
0.00140059
0.0170882
0.00143995
0.0169454
0.00147962
0.0167983
0.00151961
0.0166466
0.00155993
0.0164904
0.00160062
0.0163295
0.0016417
0.0161637
0.00168319
0.015993
0.00172513
0.0158173
0.00176751
0.0156364
0.00181033
0.0154503
0.00185357
0.0152589
0.00189718
0.015062
0.0019411
0.0148596
0.00198522
0.0146514
0.00202945
0.0144375
0.00207359
0.0142175
0.00211739
0.0139914
0.00216051
0.0137588
0.00220265
0.0135193
0.00224387
0.013272
0.00228495
0.0130156
0.00232766
0.0127485
0.00237446
0.0124691
0.0024276
0.0121769
0.0024879
0.0118732
0.00255388
0.0115606
0.00262177
0.0112428
0.0026867
0.0109227
0.00274441
0.0106021
0.00279266
0.0102812
0.0028317
0.00995884
0.00286355
0.00963411
0.00289078
0.00930637
0.00291543
0.00897563
0.00293864
0.00864228
0.00296085
0.00830683
0.00298227
0.00796967
0.0030032
0.00763112
0.00302415
0.00729132
0.00304581
0.00695031
0.00306902
0.0066079
0.00309483
0.00626362
0.0031244
0.00591662
0.00315908
0.00556555
0.00320028
0.00520848
0.00324941
0.00484277
0.00330763
0.00446506
0.00337565
0.00407136
0.00345336
0.00365717
0.00353943
0.00321803
0.00363103
0.0027501
0.00372375
0.00225104
0.00381183
0.00172092
0.00388925
0.00116302
0.0039501
0.000584056
0.00399421
0.00398113
0.0199987
1.66436e-05
0.0199947
4.98386e-05
0.019988
8.29036e-05
0.0199786
0.000115827
0.0199664
0.000148617
0.0199514
0.0001813
0.0199336
0.000213913
0.0199129
0.000246494
0.0198894
0.000279081
0.0198629
0.00031171
0.0198335
0.000344415
0.0198011
0.000377227
0.0197658
0.000410175
0.0197275
0.000443282
0.0196862
0.000476571
0.0196419
0.000510059
0.0195945
0.000543761
0.0195441
0.00057769
0.0194906
0.000611855
0.0194341
0.000646265
0.0193744
0.00068093
0.0193117
0.000715862
0.0192459
0.000751075
0.0191769
0.000786584
0.0191048
0.000822406
0.0190296
0.000858559
0.0189512
0.000895062
0.0188696
0.000931934
0.0187848
0.000969189
0.0186968
0.00100684
0.0186055
0.00104491
0.018511
0.0010834
0.0184131
0.00112232
0.0183119
0.00116166
0.0182074
0.00120144
0.0180993
0.00124166
0.0179878
0.00128229
0.0178727
0.00132335
0.0177541
0.00136481
0.0176316
0.00140668
0.0175054
0.00144895
0.0173754
0.00149161
0.0172413
0.00153466
0.0171031
0.00157812
0.0169608
0.00162199
0.0168141
0.00166629
0.016663
0.00171105
0.0165073
0.00175627
0.016347
0.00180198
0.016182
0.00184821
0.0160122
0.00189497
0.0158374
0.00194226
0.0156577
0.00199007
0.0154729
0.00203839
0.0152829
0.00208718
0.0150876
0.00213638
0.0148869
0.00218592
0.0146806
0.00223571
0.0144686
0.0022856
0.0142506
0.00233537
0.0140264
0.00238473
0.0137956
0.00243345
0.0135577
0.00248179
0.0133118
0.00253086
0.0130566
0.00258289
0.0127903
0.00264075
0.0125111
0.00270674
0.012218
0.00278103
0.0119112
0.0028607
0.0115927
0.00294024
0.0112659
0.00301349
0.0109343
0.00307605
0.0106002
0.00312676
0.0102644
0.00316749
0.00992634
0.00320161
0.00958491
0.0032322
0.00923928
0.00326107
0.00888915
0.00328877
0.00853474
0.00331526
0.00817652
0.00334049
0.00781503
0.0033647
0.00745083
0.00338835
0.00708448
0.00341215
0.00671654
0.00343696
0.00634753
0.00346384
0.00597783
0.0034941
0.00560762
0.00352929
0.00523672
0.00357118
0.0048645
0.00362163
0.00448968
0.00368245
0.00411022
0.00375511
0.00372325
0.00384032
0.00332512
0.00393755
0.00291169
0.00404446
0.00247883
0.00415661
0.0020233
0.00426737
0.00154368
0.00436887
0.00104141
0.00445237
0.000521509
0.00451411
0.00450264
0.0199987
1.79916e-05
0.0199946
5.38729e-05
0.0199879
8.96327e-05
0.0199784
0.000125273
0.0199662
0.00016081
0.0199513
0.000196269
0.0199335
0.000231685
0.0199129
0.000267095
0.0198895
0.000302535
0.0198631
0.000338039
0.0198339
0.000373641
0.0198018
0.000409371
0.0197667
0.000445255
0.0197286
0.000481316
0.0196876
0.000517577
0.0196436
0.000554053
0.0195966
0.000590759
0.0195466
0.000627707
0.0194936
0.000664905
0.0194375
0.000702362
0.0193783
0.000740087
0.0193161
0.000778092
0.0192508
0.00081639
0.0191824
0.000854997
0.0191108
0.000893933
0.0190362
0.000933215
0.0189584
0.000972866
0.0188774
0.0010129
0.0187932
0.00105335
0.0187059
0.00109422
0.0186153
0.00113552
0.0185214
0.00117729
0.0184242
0.00121951
0.0183236
0.00126221
0.0182197
0.00130539
0.0181123
0.00134905
0.0180014
0.00139319
0.0178869
0.00143782
0.0177688
0.00148292
0.017647
0.00152851
0.0175214
0.00157458
0.0173918
0.00162114
0.0172583
0.00166819
0.0171207
0.00171575
0.0169788
0.00176383
0.0168327
0.00181244
0.0166821
0.00186161
0.016527
0.00191136
0.0163673
0.0019617
0.0162028
0.00201265
0.0160336
0.00206422
0.0158595
0.0021164
0.0156803
0.0021692
0.0154961
0.00222258
0.0153068
0.00227652
0.0151122
0.00233098
0.0149122
0.00238589
0.0147067
0.00244119
0.0144956
0.00249676
0.0142785
0.00255242
0.0140553
0.00260791
0.0138257
0.00266307
0.0135892
0.00271829
0.0133452
0.0027749
0.0130926
0.00283552
0.0128299
0.00290344
0.0125554
0.00298124
0.0122675
0.00306884
0.0119658
0.0031624
0.0116511
0.00325493
0.0113258
0.00333887
0.0109927
0.00340915
0.0106544
0.00346505
0.0103122
0.00350965
0.00996623
0.00354761
0.00961564
0.00358279
0.00925962
0.00361709
0.00889769
0.0036507
0.0085298
0.00368315
0.00815621
0.00371408
0.00777737
0.00374354
0.00739383
0.00377189
0.00700626
0.00379973
0.00661543
0.00382779
0.00622223
0.00385704
0.0058276
0.00388873
0.00543247
0.00392443
0.00503764
0.00396601
0.00464367
0.0040156
0.00425068
0.00407545
0.00385814
0.00414764
0.00346477
0.0042337
0.00306835
0.00433397
0.00266587
0.00444695
0.00225382
0.00456866
0.00182886
0.00469233
0.00138875
0.00480898
0.000933283
0.00490783
0.000465439
0.00498195
0.00496807
0.0199986
1.93422e-05
0.0199946
5.79151e-05
0.0199879
9.63701e-05
0.0199784
0.00013472
0.0199662
0.000172986
0.0199513
0.000211198
0.0199336
0.000249389
0.0199131
0.000287597
0.0198898
0.000325858
0.0198636
0.000364204
0.0198346
0.000402669
0.0198027
0.000441282
0.0197679
0.000480068
0.0197301
0.000519051
0.0196895
0.00055825
0.0196458
0.000597683
0.0195992
0.000637363
0.0195496
0.000677299
0.019497
0.000717502
0.0194414
0.000757977
0.0193828
0.000798734
0.0193211
0.000839785
0.0192563
0.000881143
0.0191885
0.000922826
0.0191176
0.000964853
0.0190436
0.00100724
0.0189664
0.00105002
0.0188861
0.00109321
0.0188026
0.00113683
0.0187159
0.0011809
0.018626
0.00122544
0.0185328
0.00127047
0.0184363
0.001316
0.0183365
0.00136205
0.0182333
0.00140862
0.0181266
0.00145573
0.0180164
0.00150338
0.0179027
0.00155158
0.0177852
0.00160033
0.0176641
0.00164964
0.0175392
0.00169952
0.0174103
0.00174998
0.0172775
0.00180103
0.0171406
0.00185269
0.0169994
0.00190496
0.016854
0.00195789
0.0167041
0.00201147
0.0165498
0.00206573
0.0163908
0.0021207
0.016227
0.00217637
0.0160585
0.00223276
0.015885
0.00228986
0.0157066
0.00234767
0.015523
0.00240616
0.0153342
0.00246531
0.0151401
0.00252507
0.0149406
0.00258541
0.0147355
0.00264627
0.0145247
0.00270757
0.014308
0.00276913
0.0140852
0.00283073
0.013856
0.00289224
0.0136202
0.0029541
0.0133773
0.00301782
0.0131266
0.00308626
0.0128669
0.00316312
0.0125968
0.00325131
0.0123148
0.00335084
0.0120198
0.00345741
0.0117117
0.003563
0.0113918
0.00365878
0.0110622
0.00373878
0.0107251
0.00380213
0.0103821
0.00385261
0.0100338
0.00389592
0.00967987
0.00393677
0.00931955
0.00397741
0.0089523
0.00401794
0.00857786
0.0040576
0.00819621
0.00409572
0.0078076
0.00413215
0.00741239
0.0041671
0.00701114
0.00420099
0.00660457
0.00423436
0.00619363
0.00426797
0.00577948
0.00430288
0.00536344
0.00434047
0.00494692
0.00438253
0.00453135
0.00443117
0.00411799
0.00448881
0.00370773
0.0045579
0.00330084
0.00464058
0.0028968
0.00473801
0.00249413
0.00484962
0.00209051
0.00497228
0.00168322
0.00509962
0.00126977
0.00522243
0.000848813
0.00532879
0.000421299
0.00540947
0.00538937
0.0199987
2.06905e-05
0.0199946
6.19509e-05
0.0199879
0.000103094
0.0199785
0.00014414
0.0199663
0.000185117
0.0199515
0.000226058
0.0199339
0.000266998
0.0199135
0.000307974
0.0198903
0.000349022
0.0198644
0.000390178
0.0198356
0.000431472
0.0198039
0.000472934
0.0197694
0.000514589
0.019732
0.000556459
0.0196917
0.000598565
0.0196484
0.000640921
0.0196022
0.000683542
0.0195531
0.000726437
0.019501
0.000769612
0.0194459
0.000813076
0.0193878
0.000856837
0.0193267
0.000900907
0.0192625
0.000945299
0.0191953
0.000990031
0.019125
0.00103513
0.0190517
0.0010806
0.0189752
0.00112649
0.0188956
0.00117281
0.0188129
0.00121958
0.0187269
0.00126684
0.0186378
0.0013146
0.0185453
0.00136288
0.0184496
0.00141171
0.0183506
0.0014611
0.0182481
0.00151106
0.0181422
0.00156162
0.0180329
0.00161277
0.0179199
0.00166455
0.0178033
0.00171694
0.0176829
0.00176998
0.0175588
0.00182366
0.0174308
0.00187801
0.0172988
0.00193305
0.0171627
0.00198879
0.0170224
0.00204526
0.0168778
0.00210248
0.0167288
0.00216046
0.0165753
0.00221923
0.0164172
0.00227881
0.0162543
0.0023392
0.0160867
0.00240041
0.0159141
0.00246245
0.0157365
0.0025253
0.0155537
0.00258893
0.0153657
0.00265334
0.0151722
0.00271848
0.0149733
0.00278432
0.0147688
0.00285083
0.0145584
0.00291794
0.0143421
0.00298547
0.0141196
0.00305322
0.0138907
0.00312108
0.0136553
0.0031895
0.0134131
0.00326009
0.0131634
0.00333589
0.0129056
0.00342092
0.0126385
0.00351844
0.0123607
0.00362868
0.0120709
0.00374717
0.0117686
0.00386527
0.0114543
0.00397314
0.0111292
0.00406384
0.0107953
0.00413605
0.0104541
0.0041938
0.0101065
0.00424353
0.00975245
0.00429078
0.00939156
0.0043383
0.0090232
0.0043863
0.00864695
0.00443385
0.0082626
0.00448006
0.00787015
0.0045246
0.00746974
0.00456752
0.00706168
0.00460904
0.00664651
0.00464952
0.00622503
0.00468946
0.0057983
0.00472961
0.00536772
0.00477106
0.00493494
0.0048153
0.00450187
0.00486424
0.00407051
0.00492017
0.00364279
0.00498562
0.00322032
0.00506304
0.00280412
0.00515421
0.00239431
0.00525943
0.00199005
0.00537655
0.00158958
0.00550009
0.00119073
0.00562128
0.000791483
0.00572804
0.000391096
0.00580985
0.00578047
0.0199987
2.2033e-05
0.0199946
6.59696e-05
0.0199879
0.000109787
0.0199786
0.000153513
0.0199665
0.00019718
0.0199517
0.000240825
0.0199343
0.000284485
0.019914
0.000328199
0.019891
0.000372004
0.0198653
0.000415936
0.0198367
0.000460025
0.0198054
0.000504302
0.0197712
0.000548791
0.0197341
0.000593515
0.0196942
0.000638493
0.0196514
0.00068374
0.0196056
0.000729269
0.019557
0.000775089
0.0195054
0.000821207
0.0194508
0.000867628
0.0193933
0.000914363
0.0193328
0.000961421
0.0192693
0.00100882
0.0192027
0.00105657
0.0191331
0.00110471
0.0190605
0.00115325
0.0189848
0.00120222
0.0189059
0.00125165
0.018824
0.00130156
0.0187388
0.00135198
0.0186505
0.00140295
0.0185589
0.00145447
0.018464
0.00150658
0.0183658
0.0015593
0.0182642
0.00161264
0.0181592
0.00166663
0.0180507
0.00172129
0.0179386
0.00177663
0.0178229
0.00183266
0.0177035
0.00188941
0.0175802
0.00194689
0.0174531
0.00200513
0.017322
0.00206414
0.0171869
0.00212396
0.0170475
0.0021846
0.0169039
0.00224609
0.0167559
0.00230846
0.0166034
0.00237173
0.0164463
0.0024359
0.0162845
0.00250101
0.0161179
0.00256705
0.0159463
0.00263402
0.0157697
0.00270192
0.0155879
0.00277072
0.0154008
0.00284042
0.0152083
0.00291098