/*--------------------------------*- C++ -*----------------------------------*\
| =========                 |                                                 |
| \\      /  F ield         | OpenFOAM: The Open Source CFD Toolbox           |
|  \\    /   O peration     | Version:  4.1                                   |
|   \\  /    A nd           | Web:      www.OpenFOAM.org                      |
|    \\/     M anipulation  |                                                 |
\*---------------------------------------------------------------------------*/
FoamFile
{
    version     2.0;
    format      ascii;
    class       volScalarField;
    location    "85";
    object      p;
}
// * * * * * * * * * * * * * * * * * * * * * * * * * * * * * * * * * * * * * //

dimensions      [0 2 -2 0 0 0 0];

internalField   nonuniform List<scalar> 
43750
(
9.4601e-05
8.58945e-05
7.97787e-05
7.68714e-05
7.47666e-05
7.26965e-05
7.08997e-05
6.95424e-05
6.85715e-05
6.78921e-05
6.7442e-05
6.71758e-05
6.70505e-05
6.70277e-05
6.70774e-05
6.71782e-05
6.73154e-05
6.74795e-05
6.7665e-05
6.7869e-05
6.8091e-05
6.83312e-05
6.85909e-05
6.88714e-05
6.91738e-05
6.94989e-05
6.98468e-05
7.02169e-05
7.06077e-05
7.10172e-05
7.14427e-05
7.18816e-05
7.23316e-05
7.27907e-05
7.32577e-05
7.3732e-05
7.42136e-05
7.47031e-05
7.52011e-05
7.57086e-05
7.62261e-05
7.6754e-05
7.72921e-05
7.78398e-05
7.83962e-05
7.896e-05
7.95299e-05
8.01048e-05
8.06837e-05
8.1266e-05
8.18512e-05
8.24393e-05
8.30302e-05
8.3624e-05
8.42207e-05
8.48202e-05
8.54226e-05
8.60277e-05
8.66352e-05
8.72451e-05
8.7857e-05
8.84705e-05
8.90852e-05
8.97008e-05
9.03167e-05
9.09324e-05
9.15472e-05
9.21607e-05
9.27719e-05
9.33804e-05
9.39852e-05
9.45855e-05
9.51804e-05
9.57691e-05
9.63505e-05
9.69236e-05
9.74874e-05
9.80408e-05
9.85825e-05
9.91115e-05
9.96264e-05
0.000100126
0.000100609
0.000101074
0.00010152
0.000101945
0.000102348
0.000102728
0.000103083
0.000103412
0.000103713
0.000103986
0.000104229
0.000104442
0.000104623
0.000104773
0.000104892
0.000104982
0.000105043
0.000105073
8.16927e-05
8.01099e-05
7.7852e-05
7.59716e-05
7.43167e-05
7.26505e-05
7.11104e-05
6.98633e-05
6.89279e-05
6.82524e-05
6.77874e-05
6.74938e-05
6.73349e-05
6.72767e-05
6.72919e-05
6.73606e-05
6.74692e-05
6.76084e-05
6.77726e-05
6.79588e-05
6.81658e-05
6.83936e-05
6.86431e-05
6.89151e-05
6.92106e-05
6.95304e-05
6.98744e-05
7.02418e-05
7.06311e-05
7.10401e-05
7.14659e-05
7.19057e-05
7.23567e-05
7.28165e-05
7.32838e-05
7.37577e-05
7.42384e-05
7.47266e-05
7.52234e-05
7.57297e-05
7.62466e-05
7.67743e-05
7.73127e-05
7.78611e-05
7.84185e-05
7.89834e-05
7.95544e-05
8.01303e-05
8.07099e-05
8.12928e-05
8.18785e-05
8.2467e-05
8.30582e-05
8.36523e-05
8.42492e-05
8.4849e-05
8.54517e-05
8.60571e-05
8.6665e-05
8.72753e-05
8.78875e-05
8.85014e-05
8.91165e-05
8.97325e-05
9.03488e-05
9.09648e-05
9.15801e-05
9.21939e-05
9.28055e-05
9.34143e-05
9.40194e-05
9.462e-05
9.52153e-05
9.58042e-05
9.63859e-05
9.69593e-05
9.75233e-05
9.80769e-05
9.86188e-05
9.9148e-05
9.9663e-05
0.000100163
0.000100646
0.000101111
0.000101557
0.000101982
0.000102386
0.000102766
0.000103121
0.00010345
0.000103751
0.000104024
0.000104267
0.00010448
0.000104661
0.00010481
0.000104927
0.000105014
0.000105071
0.000105104
7.96741e-05
7.89353e-05
7.72948e-05
7.55052e-05
7.39673e-05
7.26057e-05
7.13681e-05
7.03065e-05
6.94525e-05
6.87909e-05
6.82947e-05
6.79421e-05
6.77127e-05
6.75847e-05
6.75376e-05
6.75541e-05
6.76209e-05
6.77277e-05
6.78675e-05
6.80356e-05
6.82292e-05
6.84469e-05
6.86884e-05
6.8954e-05
6.92441e-05
6.95591e-05
6.98987e-05
7.02623e-05
7.06482e-05
7.10543e-05
7.14777e-05
7.19157e-05
7.23656e-05
7.2825e-05
7.32923e-05
7.37667e-05
7.42479e-05
7.47364e-05
7.52329e-05
7.57385e-05
7.62542e-05
7.67806e-05
7.73179e-05
7.78658e-05
7.84232e-05
7.89886e-05
7.95604e-05
8.01371e-05
8.07175e-05
8.13009e-05
8.18871e-05
8.24758e-05
8.30672e-05
8.36616e-05
8.42589e-05
8.48591e-05
8.54623e-05
8.60684e-05
8.6677e-05
8.7288e-05
8.79011e-05
8.8516e-05
8.91322e-05
8.97492e-05
9.03667e-05
9.0984e-05
9.16006e-05
9.22157e-05
9.28288e-05
9.34391e-05
9.40458e-05
9.4648e-05
9.52449e-05
9.58355e-05
9.64189e-05
9.6994e-05
9.75598e-05
9.81152e-05
9.86589e-05
9.91898e-05
9.97067e-05
0.000100208
0.000100693
0.00010116
0.000101608
0.000102035
0.00010244
0.000102821
0.000103177
0.000103508
0.000103811
0.000104085
0.000104329
0.000104542
0.000104723
0.000104872
0.000104987
0.000105071
0.00010513
0.000105167
7.72161e-05
7.66986e-05
7.56528e-05
7.4418e-05
7.32662e-05
7.2217e-05
7.1238e-05
7.03589e-05
6.96191e-05
6.90256e-05
6.85653e-05
6.82232e-05
6.79857e-05
6.7838e-05
6.77652e-05
6.77539e-05
6.77931e-05
6.78746e-05
6.79919e-05
6.81406e-05
6.83177e-05
6.85214e-05
6.87509e-05
6.90059e-05
6.92862e-05
6.95918e-05
6.99222e-05
7.02765e-05
7.06534e-05
7.10509e-05
7.14668e-05
7.18985e-05
7.23436e-05
7.28001e-05
7.32664e-05
7.37412e-05
7.42242e-05
7.47152e-05
7.52145e-05
7.57227e-05
7.62401e-05
7.67674e-05
7.73045e-05
7.78514e-05
7.84074e-05
7.89713e-05
7.95419e-05
8.01177e-05
8.06975e-05
8.12805e-05
8.18664e-05
8.24549e-05
8.30464e-05
8.36407e-05
8.42383e-05
8.48389e-05
8.54427e-05
8.60494e-05
8.66589e-05
8.7271e-05
8.78853e-05
8.85016e-05
8.91193e-05
8.97381e-05
9.03574e-05
9.09768e-05
9.15955e-05
9.2213e-05
9.28286e-05
9.34415e-05
9.4051e-05
9.46561e-05
9.5256e-05
9.58498e-05
9.64365e-05
9.70149e-05
9.75842e-05
9.8143e-05
9.86903e-05
9.92248e-05
9.97453e-05
0.00010025
0.000100739
0.000101209
0.00010166
0.000102091
0.000102499
0.000102883
0.000103243
0.000103576
0.000103881
0.000104157
0.000104403
0.000104617
0.000104799
0.000104947
0.000105062
0.000105144
0.000105202
0.000105246
7.54255e-05
7.51306e-05
7.44733e-05
7.36038e-05
7.27067e-05
7.18516e-05
7.10452e-05
7.03077e-05
6.96687e-05
6.91411e-05
6.87205e-05
6.83977e-05
6.81635e-05
6.8008e-05
6.79206e-05
6.78914e-05
6.7912e-05
6.79755e-05
6.80763e-05
6.82105e-05
6.83751e-05
6.85679e-05
6.87876e-05
6.90334e-05
6.93048e-05
6.9601e-05
6.99216e-05
7.02656e-05
7.06316e-05
7.10183e-05
7.14237e-05
7.18459e-05
7.2283e-05
7.27335e-05
7.3196e-05
7.36696e-05
7.41536e-05
7.46477e-05
7.51517e-05
7.56652e-05
7.61879e-05
7.67194e-05
7.72594e-05
7.78074e-05
7.8363e-05
7.89253e-05
7.94937e-05
8.00671e-05
8.06448e-05
8.1226e-05
8.18104e-05
8.23979e-05
8.29885e-05
8.35824e-05
8.41796e-05
8.47803e-05
8.53842e-05
8.59914e-05
8.66016e-05
8.72146e-05
8.783e-05
8.84476e-05
8.90669e-05
8.96875e-05
9.03088e-05
9.09304e-05
9.15517e-05
9.2172e-05
9.27905e-05
9.34066e-05
9.40195e-05
9.46282e-05
9.5232e-05
9.58298e-05
9.64207e-05
9.70035e-05
9.75773e-05
9.81408e-05
9.86928e-05
9.92322e-05
9.97575e-05
0.000100268
0.000100761
0.000101236
0.000101692
0.000102127
0.00010254
0.000102928
0.000103292
0.000103628
0.000103937
0.000104216
0.000104465
0.000104681
0.000104864
0.000105013
0.000105127
0.000105208
0.000105266
0.000105311
7.40432e-05
7.38544e-05
7.34058e-05
7.27707e-05
7.20746e-05
7.13893e-05
7.07361e-05
7.01299e-05
6.9591e-05
6.91331e-05
6.87586e-05
6.84637e-05
6.82431e-05
6.80906e-05
6.79994e-05
6.79623e-05
6.79728e-05
6.80254e-05
6.81154e-05
6.82393e-05
6.83943e-05
6.85781e-05
6.87893e-05
6.90267e-05
6.92894e-05
6.95767e-05
6.98877e-05
7.02215e-05
7.05769e-05
7.09526e-05
7.13472e-05
7.17591e-05
7.2187e-05
7.26296e-05
7.3086e-05
7.35554e-05
7.40375e-05
7.45319e-05
7.50384e-05
7.55563e-05
7.60849e-05
7.66228e-05
7.71687e-05
7.77212e-05
7.82793e-05
7.88422e-05
7.94096e-05
7.9981e-05
8.05562e-05
8.11349e-05
8.17172e-05
8.23028e-05
8.2892e-05
8.34848e-05
8.40812e-05
8.46813e-05
8.5285e-05
8.58921e-05
8.65025e-05
8.71159e-05
8.7732e-05
8.83505e-05
8.8971e-05
8.95931e-05
9.02162e-05
9.08398e-05
9.14633e-05
9.20861e-05
9.27075e-05
9.33267e-05
9.3943e-05
9.45554e-05
9.51631e-05
9.57651e-05
9.63604e-05
9.69479e-05
9.75265e-05
9.80951e-05
9.86523e-05
9.9197e-05
9.97278e-05
0.000100243
0.000100742
0.000101223
0.000101684
0.000102125
0.000102542
0.000102936
0.000103304
0.000103645
0.000103958
0.000104241
0.000104492
0.000104711
0.000104896
0.000105047
0.000105162
0.000105242
0.0001053
0.000105345
7.29112e-05
7.2778e-05
7.24577e-05
7.19902e-05
7.14573e-05
7.09154e-05
7.03884e-05
6.98907e-05
6.94388e-05
6.90459e-05
6.87177e-05
6.84542e-05
6.8253e-05
6.81106e-05
6.80225e-05
6.79838e-05
6.79897e-05
6.80358e-05
6.81185e-05
6.82347e-05
6.83817e-05
6.85577e-05
6.8761e-05
6.89905e-05
6.9245e-05
6.95238e-05
6.98257e-05
7.015e-05
7.04955e-05
7.0861e-05
7.12454e-05
7.16476e-05
7.20662e-05
7.25004e-05
7.29494e-05
7.34127e-05
7.38901e-05
7.43814e-05
7.48867e-05
7.54054e-05
7.59366e-05
7.64788e-05
7.70298e-05
7.75875e-05
7.81498e-05
7.87154e-05
7.92838e-05
7.98547e-05
8.04285e-05
8.10054e-05
8.15856e-05
8.21694e-05
8.2757e-05
8.33483e-05
8.39436e-05
8.45427e-05
8.51457e-05
8.57523e-05
8.63624e-05
8.69757e-05
8.7592e-05
8.8211e-05
8.88321e-05
8.94551e-05
9.00794e-05
9.07045e-05
9.13298e-05
9.19546e-05
9.25784e-05
9.32002e-05
9.38194e-05
9.4435e-05
9.50462e-05
9.5652e-05
9.62514e-05
9.68432e-05
9.74264e-05
9.79997e-05
9.8562e-05
9.91118e-05
9.96479e-05
0.000100169
0.000100673
0.000101159
0.000101626
0.000102072
0.000102495
0.000102893
0.000103266
0.000103612
0.000103929
0.000104215
0.00010447
0.000104692
0.00010488
0.000105032
0.000105149
0.00010523
0.000105287
0.000105333
7.19561e-05
7.18591e-05
7.16252e-05
7.12771e-05
7.08679e-05
7.04392e-05
7.00135e-05
6.96054e-05
6.9229e-05
6.8896e-05
6.86132e-05
6.83827e-05
6.82042e-05
6.8076e-05
6.79956e-05
6.79599e-05
6.79653e-05
6.80086e-05
6.8087e-05
6.81979e-05
6.83391e-05
6.85088e-05
6.87055e-05
6.89281e-05
6.91753e-05
6.94463e-05
6.97401e-05
7.00558e-05
7.03924e-05
7.07488e-05
7.11241e-05
7.15171e-05
7.19271e-05
7.23531e-05
7.27946e-05
7.32511e-05
7.37225e-05
7.42088e-05
7.471e-05
7.52261e-05
7.57561e-05
7.62987e-05
7.68516e-05
7.7412e-05
7.79772e-05
7.85454e-05
7.91154e-05
7.9687e-05
8.02605e-05
8.08364e-05
8.14153e-05
8.19976e-05
8.25837e-05
8.31736e-05
8.37676e-05
8.43655e-05
8.49674e-05
8.55731e-05
8.61825e-05
8.67953e-05
8.74113e-05
8.80301e-05
8.86514e-05
8.92748e-05
8.98997e-05
9.05256e-05
9.1152e-05
9.17783e-05
9.24037e-05
9.30275e-05
9.3649e-05
9.42672e-05
9.48812e-05
9.54902e-05
9.60929e-05
9.66884e-05
9.72755e-05
9.7853e-05
9.84196e-05
9.8974e-05
9.95147e-05
0.00010004
0.00010055
0.000101041
0.000101513
0.000101963
0.000102391
0.000102794
0.000103172
0.000103522
0.000103842
0.000104133
0.000104391
0.000104616
0.000104806
0.000104961
0.000105079
0.000105161
0.000105219
0.000105264
7.11303e-05
7.10581e-05
7.08834e-05
7.06199e-05
7.03034e-05
6.99642e-05
6.96213e-05
6.92883e-05
6.89772e-05
6.86983e-05
6.84582e-05
6.82603e-05
6.81058e-05
6.79943e-05
6.79246e-05
6.78949e-05
6.7903e-05
6.79464e-05
6.8023e-05
6.81307e-05
6.82678e-05
6.84327e-05
6.86241e-05
6.88407e-05
6.90816e-05
6.93457e-05
6.96322e-05
6.99402e-05
7.02688e-05
7.0617e-05
7.0984e-05
7.13689e-05
7.17709e-05
7.21893e-05
7.26235e-05
7.30733e-05
7.35384e-05
7.4019e-05
7.4515e-05
7.50264e-05
7.55527e-05
7.60925e-05
7.66436e-05
7.72034e-05
7.77688e-05
7.83376e-05
7.89083e-05
7.94802e-05
8.00536e-05
8.0629e-05
8.12069e-05
8.17881e-05
8.23728e-05
8.29613e-05
8.35538e-05
8.41504e-05
8.4751e-05
8.53555e-05
8.59638e-05
8.65756e-05
8.71908e-05
8.7809e-05
8.84299e-05
8.9053e-05
8.96779e-05
9.03041e-05
9.0931e-05
9.1558e-05
9.21844e-05
9.28095e-05
9.34325e-05
9.40525e-05
9.46686e-05
9.52799e-05
9.58853e-05
9.64837e-05
9.70739e-05
9.76547e-05
9.82249e-05
9.8783e-05
9.93277e-05
9.98575e-05
0.000100371
0.000100866
0.000101342
0.000101797
0.000102229
0.000102636
0.000103018
0.000103371
0.000103695
0.000103989
0.00010425
0.000104477
0.00010467
0.000104827
0.000104946
0.00010503
0.000105088
0.000105133
7.04007e-05
7.0346e-05
7.02133e-05
7.00115e-05
6.97654e-05
6.94971e-05
6.92219e-05
6.89515e-05
6.86961e-05
6.84647e-05
6.82635e-05
6.80967e-05
6.79659e-05
6.78721e-05
6.78149e-05
6.77933e-05
6.78061e-05
6.78516e-05
6.79283e-05
6.80346e-05
6.8169e-05
6.83303e-05
6.85173e-05
6.87289e-05
6.89642e-05
6.92223e-05
6.95022e-05
6.98033e-05
7.01246e-05
7.04654e-05
7.08248e-05
7.12022e-05
7.15968e-05
7.2008e-05
7.24354e-05
7.28786e-05
7.33375e-05
7.38121e-05
7.43025e-05
7.48085e-05
7.53296e-05
7.58646e-05
7.64116e-05
7.69679e-05
7.75309e-05
7.80979e-05
7.86674e-05
7.92384e-05
7.9811e-05
8.03854e-05
8.09623e-05
8.15421e-05
8.21253e-05
8.27123e-05
8.33032e-05
8.38981e-05
8.4497e-05
8.50999e-05
8.57067e-05
8.63171e-05
8.6931e-05
8.7548e-05
8.81679e-05
8.87902e-05
8.94145e-05
9.00403e-05
9.0667e-05
9.1294e-05
9.19207e-05
9.25463e-05
9.31701e-05
9.37912e-05
9.44086e-05
9.50215e-05
9.56287e-05
9.62291e-05
9.68216e-05
9.7405e-05
9.79778e-05
9.85389e-05
9.90866e-05
9.96196e-05
0.000100136
0.000100635
0.000101114
0.000101572
0.000102008
0.000102418
0.000102803
0.000103159
0.000103487
0.000103783
0.000104046
0.000104276
0.00010447
0.000104628
0.00010475
0.000104834
0.000104892
0.000104938
6.97441e-05
6.97021e-05
6.96002e-05
6.94442e-05
6.92521e-05
6.904e-05
6.88197e-05
6.86011e-05
6.83929e-05
6.82029e-05
6.80369e-05
6.78988e-05
6.7791e-05
6.77149e-05
6.76709e-05
6.76587e-05
6.76776e-05
6.77267e-05
6.78049e-05
6.7911e-05
6.80439e-05
6.82027e-05
6.83862e-05
6.85935e-05
6.8824e-05
6.90766e-05
6.93506e-05
6.96453e-05
6.996e-05
7.02939e-05
7.06463e-05
7.10166e-05
7.14042e-05
7.18085e-05
7.22292e-05
7.26659e-05
7.31186e-05
7.35871e-05
7.40715e-05
7.45716e-05
7.50868e-05
7.56159e-05
7.61573e-05
7.67085e-05
7.72669e-05
7.78302e-05
7.83966e-05
7.89652e-05
7.95357e-05
8.01083e-05
8.06834e-05
8.12614e-05
8.18427e-05
8.24276e-05
8.30165e-05
8.36092e-05
8.42061e-05
8.48069e-05
8.54116e-05
8.60201e-05
8.66321e-05
8.72474e-05
8.78656e-05
8.84865e-05
8.91095e-05
8.97341e-05
9.036e-05
9.09863e-05
9.16125e-05
9.22379e-05
9.28617e-05
9.34831e-05
9.4101e-05
9.47146e-05
9.53228e-05
9.59244e-05
9.65184e-05
9.71034e-05
9.76781e-05
9.82412e-05
9.87911e-05
9.93264e-05
9.98456e-05
0.000100347
0.000100829
0.000101289
0.000101727
0.00010214
0.000102527
0.000102886
0.000103216
0.000103514
0.000103779
0.00010401
0.000104206
0.000104366
0.000104488
0.000104573
0.000104631
0.000104677
6.91434e-05
6.91109e-05
6.90321e-05
6.89109e-05
6.87605e-05
6.85929e-05
6.84173e-05
6.82417e-05
6.80735e-05
6.79193e-05
6.77844e-05
6.76725e-05
6.75863e-05
6.75274e-05
6.74967e-05
6.74944e-05
6.75203e-05
6.75739e-05
6.76545e-05
6.77614e-05
6.78938e-05
6.80508e-05
6.82315e-05
6.84354e-05
6.86615e-05
6.89093e-05
6.91779e-05
6.94668e-05
6.97753e-05
7.01027e-05
7.04485e-05
7.0812e-05
7.11928e-05
7.15904e-05
7.20044e-05
7.24346e-05
7.28809e-05
7.33431e-05
7.38212e-05
7.43149e-05
7.48237e-05
7.53463e-05
7.58812e-05
7.6426e-05
7.69786e-05
7.75366e-05
7.80985e-05
7.86632e-05
7.92303e-05
7.97999e-05
8.03721e-05
8.09474e-05
8.15261e-05
8.21084e-05
8.26945e-05
8.32846e-05
8.38787e-05
8.44768e-05
8.50788e-05
8.56847e-05
8.62942e-05
8.69071e-05
8.7523e-05
8.81417e-05
8.87627e-05
8.93855e-05
9.00097e-05
9.06346e-05
9.12596e-05
9.1884e-05
9.2507e-05
9.31277e-05
9.37453e-05
9.43588e-05
9.49671e-05
9.55691e-05
9.61637e-05
9.67495e-05
9.73252e-05
9.78894e-05
9.84407e-05
9.89775e-05
9.94982e-05
0.000100001
0.000100485
0.000100947
0.000101387
0.000101802
0.000102191
0.000102551
0.000102882
0.000103182
0.000103448
0.000103681
0.000103877
0.000104038
0.00010416
0.000104246
0.000104304
0.00010435
6.85859e-05
6.85607e-05
6.84995e-05
6.84051e-05
6.82874e-05
6.81553e-05
6.8016e-05
6.7876e-05
6.77416e-05
6.76183e-05
6.75107e-05
6.74225e-05
6.73562e-05
6.73135e-05
6.72957e-05
6.73034e-05
6.73366e-05
6.73953e-05
6.74791e-05
6.75874e-05
6.77199e-05
6.78757e-05
6.80544e-05
6.82552e-05
6.84776e-05
6.8721e-05
6.89846e-05
6.92681e-05
6.95707e-05
6.9892e-05
7.02314e-05
7.05885e-05
7.09626e-05
7.13536e-05
7.17609e-05
7.21845e-05
7.26241e-05
7.30797e-05
7.35512e-05
7.40382e-05
7.454e-05
7.50556e-05
7.55833e-05
7.6121e-05
7.66667e-05
7.72184e-05
7.77744e-05
7.83339e-05
7.88964e-05
7.94617e-05
8.00301e-05
8.06017e-05
8.11768e-05
8.17555e-05
8.23382e-05
8.29248e-05
8.35154e-05
8.41101e-05
8.47088e-05
8.53114e-05
8.59176e-05
8.65273e-05
8.71402e-05
8.7756e-05
8.83742e-05
8.89944e-05
8.96161e-05
9.02387e-05
9.08616e-05
9.14841e-05
9.21054e-05
9.27247e-05
9.33411e-05
9.39535e-05
9.45611e-05
9.51626e-05
9.57568e-05
9.63425e-05
9.69183e-05
9.74828e-05
9.80346e-05
9.8572e-05
9.90935e-05
9.95974e-05
0.000100082
0.000100546
0.000100986
0.000101402
0.000101792
0.000102154
0.000102486
0.000102786
0.000103053
0.000103287
0.000103484
0.000103644
0.000103767
0.000103853
0.000103911
0.000103958
6.8062e-05
6.80424e-05
6.79948e-05
6.79214e-05
6.78295e-05
6.77259e-05
6.76163e-05
6.75059e-05
6.74e-05
6.73031e-05
6.72195e-05
6.71523e-05
6.7104e-05
6.70764e-05
6.70709e-05
6.70883e-05
6.71289e-05
6.71928e-05
6.72801e-05
6.73904e-05
6.75234e-05
6.76786e-05
6.78556e-05
6.80539e-05
6.82729e-05
6.85122e-05
6.87713e-05
6.90497e-05
6.93468e-05
6.96622e-05
6.99954e-05
7.03461e-05
7.07137e-05
7.1098e-05
7.14987e-05
7.19155e-05
7.23483e-05
7.2797e-05
7.32615e-05
7.37413e-05
7.42358e-05
7.47438e-05
7.52637e-05
7.57937e-05
7.63318e-05
7.68761e-05
7.74253e-05
7.79785e-05
7.85351e-05
7.9095e-05
7.96584e-05
8.02252e-05
8.07957e-05
8.137e-05
8.19483e-05
8.25306e-05
8.3117e-05
8.37074e-05
8.43019e-05
8.49003e-05
8.55025e-05
8.61082e-05
8.67173e-05
8.73292e-05
8.79438e-05
8.85605e-05
8.91789e-05
8.97983e-05
9.04182e-05
9.10379e-05
9.16566e-05
9.22735e-05
9.28878e-05
9.34983e-05
9.41041e-05
9.47041e-05
9.52971e-05
9.58817e-05
9.64567e-05
9.70206e-05
9.7572e-05
9.81091e-05
9.86305e-05
9.91345e-05
9.96192e-05
0.000100083
0.000100524
0.000100941
0.000101331
0.000101693
0.000102025
0.000102326
0.000102594
0.000102827
0.000103024
0.000103185
0.000103308
0.000103393
0.000103451
0.000103498
6.75641e-05
6.75489e-05
6.75121e-05
6.74552e-05
6.73839e-05
6.73034e-05
6.72181e-05
6.71323e-05
6.70503e-05
6.69762e-05
6.69133e-05
6.68646e-05
6.68325e-05
6.68188e-05
6.68247e-05
6.68513e-05
6.6899e-05
6.69683e-05
6.70592e-05
6.71717e-05
6.73055e-05
6.74604e-05
6.7636e-05
6.78321e-05
6.80481e-05
6.82837e-05
6.85384e-05
6.88119e-05
6.91037e-05
6.94135e-05
6.97407e-05
7.00851e-05
7.04462e-05
7.08239e-05
7.12177e-05
7.16276e-05
7.20534e-05
7.2495e-05
7.29521e-05
7.34244e-05
7.39111e-05
7.4411e-05
7.49227e-05
7.54443e-05
7.5974e-05
7.65102e-05
7.70517e-05
7.75975e-05
7.81472e-05
7.87007e-05
7.92579e-05
7.98189e-05
8.03838e-05
8.09527e-05
8.15256e-05
8.21027e-05
8.26839e-05
8.32692e-05
8.38586e-05
8.4452e-05
8.50493e-05
8.56501e-05
8.62544e-05
8.68617e-05
8.74717e-05
8.8084e-05
8.8698e-05
8.93134e-05
8.99293e-05
9.05452e-05
9.11604e-05
9.17739e-05
9.2385e-05
9.29926e-05
9.35957e-05
9.41932e-05
9.47839e-05
9.53665e-05
9.59397e-05
9.6502e-05
9.70519e-05
9.75879e-05
9.81083e-05
9.86114e-05
9.90955e-05
9.95587e-05
9.99994e-05
0.000100416
0.000100805
0.000101167
0.000101499
0.0001018
0.000102068
0.000102301
0.000102498
0.000102658
0.000102781
0.000102865
0.000102923
0.00010297
6.70864e-05
6.70747e-05
6.70464e-05
6.70027e-05
6.6948e-05
6.68862e-05
6.68209e-05
6.67557e-05
6.66939e-05
6.6639e-05
6.65942e-05
6.65618e-05
6.65441e-05
6.65428e-05
6.65592e-05
6.65944e-05
6.66489e-05
6.67234e-05
6.68179e-05
6.69325e-05
6.70673e-05
6.72221e-05
6.73966e-05
6.75906e-05
6.78038e-05
6.80359e-05
6.82865e-05
6.85553e-05
6.8842e-05
6.91461e-05
6.94674e-05
6.98056e-05
7.01603e-05
7.05312e-05
7.09182e-05
7.1321e-05
7.17396e-05
7.21737e-05
7.26232e-05
7.30876e-05
7.3566e-05
7.40575e-05
7.45604e-05
7.5073e-05
7.55938e-05
7.61212e-05
7.6654e-05
7.71916e-05
7.77334e-05
7.82794e-05
7.88295e-05
7.93836e-05
7.99418e-05
8.05042e-05
8.10708e-05
8.16416e-05
8.22167e-05
8.27959e-05
8.33793e-05
8.39668e-05
8.45581e-05
8.51532e-05
8.57517e-05
8.63534e-05
8.69579e-05
8.75647e-05
8.81735e-05
8.87837e-05
8.93947e-05
9.00058e-05
9.06163e-05
9.12254e-05
9.18323e-05
9.24358e-05
9.30352e-05
9.36291e-05
9.42165e-05
9.4796e-05
9.53663e-05
9.5926e-05
9.64735e-05
9.70073e-05
9.75258e-05
9.80271e-05
9.85096e-05
9.89715e-05
9.94109e-05
9.9826e-05
0.000100215
0.000100576
0.000100907
0.000101207
0.000101474
0.000101706
0.000101903
0.000102063
0.000102184
0.000102268
0.000102326
0.000102373
6.66241e-05
6.66153e-05
6.65939e-05
6.65608e-05
6.65194e-05
6.6473e-05
6.64243e-05
6.6376e-05
6.63313e-05
6.6293e-05
6.62636e-05
6.62454e-05
6.62405e-05
6.62503e-05
6.62762e-05
6.63192e-05
6.63801e-05
6.64593e-05
6.65573e-05
6.66741e-05
6.68099e-05
6.69645e-05
6.7138e-05
6.73302e-05
6.75407e-05
6.77694e-05
6.8016e-05
6.82803e-05
6.85619e-05
6.88606e-05
6.9176e-05
6.95079e-05
6.98561e-05
7.02203e-05
7.06003e-05
7.09959e-05
7.1407e-05
7.18335e-05
7.2275e-05
7.27311e-05
7.32009e-05
7.36834e-05
7.4177e-05
7.46802e-05
7.51914e-05
7.57092e-05
7.62327e-05
7.67611e-05
7.72942e-05
7.78317e-05
7.83736e-05
7.89198e-05
7.94704e-05
8.00253e-05
8.05845e-05
8.11481e-05
8.1716e-05
8.22882e-05
8.28646e-05
8.34451e-05
8.40295e-05
8.46178e-05
8.52095e-05
8.58046e-05
8.64025e-05
8.70029e-05
8.76053e-05
8.82093e-05
8.88142e-05
8.94194e-05
9.00242e-05
9.06277e-05
9.12292e-05
9.18277e-05
9.24221e-05
9.30113e-05
9.35942e-05
9.41695e-05
9.47358e-05
9.52918e-05
9.58358e-05
9.63664e-05
9.68818e-05
9.73804e-05
9.78604e-05
9.83199e-05
9.87572e-05
9.91703e-05
9.95575e-05
9.99169e-05
0.000100247
0.000100545
0.000100811
0.000101042
0.000101238
0.000101396
0.000101517
0.0001016
0.000101656
0.000101704
6.61737e-05
6.61671e-05
6.61512e-05
6.61268e-05
6.60963e-05
6.60625e-05
6.60274e-05
6.59934e-05
6.59631e-05
6.59388e-05
6.59227e-05
6.59169e-05
6.59231e-05
6.59428e-05
6.59772e-05
6.60273e-05
6.60939e-05
6.61775e-05
6.62786e-05
6.63975e-05
6.65341e-05
6.66887e-05
6.68612e-05
6.70515e-05
6.72594e-05
6.74849e-05
6.77276e-05
6.79873e-05
6.82639e-05
6.85571e-05
6.88667e-05
6.91924e-05
6.9534e-05
6.98913e-05
7.02641e-05
7.06523e-05
7.10558e-05
7.14743e-05
7.19075e-05
7.2355e-05
7.28159e-05
7.3289e-05
7.37729e-05
7.4266e-05
7.4767e-05
7.52747e-05
7.5788e-05
7.63066e-05
7.683e-05
7.73581e-05
7.78909e-05
7.84282e-05
7.89701e-05
7.95165e-05
8.00673e-05
8.06226e-05
8.11823e-05
8.17464e-05
8.23148e-05
8.28873e-05
8.34638e-05
8.40442e-05
8.46281e-05
8.52154e-05
8.58056e-05
8.63985e-05
8.69935e-05
8.75901e-05
8.81878e-05
8.87859e-05
8.93838e-05
8.99806e-05
9.05755e-05
9.11675e-05
9.17558e-05
9.23391e-05
9.29163e-05
9.34862e-05
9.40473e-05
9.45983e-05
9.51377e-05
9.56639e-05
9.61752e-05
9.66699e-05
9.71463e-05
9.76025e-05
9.80367e-05
9.8447e-05
9.88315e-05
9.91885e-05
9.95161e-05
9.98126e-05
0.000100076
0.000100306
0.0001005
0.000100657
0.000100776
0.000100857
0.000100913
0.00010096
6.57319e-05
6.57272e-05
6.57158e-05
6.56984e-05
6.56769e-05
6.56534e-05
6.56297e-05
6.56077e-05
6.55894e-05
6.5577e-05
6.55724e-05
6.55772e-05
6.55931e-05
6.56214e-05
6.56633e-05
6.57198e-05
6.57915e-05
6.58791e-05
6.5983e-05
6.61036e-05
6.62411e-05
6.63955e-05
6.65669e-05
6.67553e-05
6.69606e-05
6.71828e-05
6.74216e-05
6.76768e-05
6.79484e-05
6.82362e-05
6.85398e-05
6.88592e-05
6.91941e-05
6.95444e-05
6.991e-05
7.02906e-05
7.06861e-05
7.10964e-05
7.15211e-05
7.19596e-05
7.24111e-05
7.28744e-05
7.33481e-05
7.38308e-05
7.4321e-05
7.48178e-05
7.53204e-05
7.58283e-05
7.63412e-05
7.6859e-05
7.73818e-05
7.79093e-05
7.84415e-05
7.89783e-05
7.95198e-05
8.00657e-05
8.06162e-05
8.11711e-05
8.17303e-05
8.22938e-05
8.28613e-05
8.34327e-05
8.40077e-05
8.45861e-05
8.51676e-05
8.57517e-05
8.6338e-05
8.69261e-05
8.75153e-05
8.81051e-05
8.86948e-05
8.92836e-05
8.98706e-05
9.0455e-05
9.10358e-05
9.16119e-05
9.21821e-05
9.27452e-05
9.32998e-05
9.38446e-05
9.4378e-05
9.48985e-05
9.54045e-05
9.58941e-05
9.63657e-05
9.68175e-05
9.72475e-05
9.76539e-05
9.80348e-05
9.83885e-05
9.8713e-05
9.90066e-05
9.92677e-05
9.94948e-05
9.96863e-05
9.98411e-05
9.99585e-05
0.000100038
0.000100093
0.00010014
6.52964e-05
6.52932e-05
6.52855e-05
6.52739e-05
6.52598e-05
6.52448e-05
6.52305e-05
6.52185e-05
6.52104e-05
6.52081e-05
6.52132e-05
6.52272e-05
6.52515e-05
6.52873e-05
6.53358e-05
6.53977e-05
6.54739e-05
6.5565e-05
6.56714e-05
6.57934e-05
6.59314e-05
6.60855e-05
6.62558e-05
6.64423e-05
6.66449e-05
6.68637e-05
6.70986e-05
6.73494e-05
6.76159e-05
6.78981e-05
6.81958e-05
6.85087e-05
6.88369e-05
6.91801e-05
6.95381e-05
6.9911e-05
7.02984e-05
7.07002e-05
7.1116e-05
7.15452e-05
7.19869e-05
7.244e-05
7.29031e-05
7.33747e-05
7.38537e-05
7.4339e-05
7.48301e-05
7.53266e-05
7.58282e-05
7.63349e-05
7.68467e-05
7.73634e-05
7.7885e-05
7.84113e-05
7.89423e-05
7.94779e-05
8.00181e-05
8.05628e-05
8.11118e-05
8.1665e-05
8.22224e-05
8.27837e-05
8.33486e-05
8.3917e-05
8.44884e-05
8.50625e-05
8.5639e-05
8.62172e-05
8.67967e-05
8.73769e-05
8.7957e-05
8.85364e-05
8.91142e-05
8.96896e-05
9.02615e-05
9.08289e-05
9.13907e-05
9.19456e-05
9.24923e-05
9.30294e-05
9.35555e-05
9.4069e-05
9.45682e-05
9.50514e-05
9.5517e-05
9.5963e-05
9.63876e-05
9.67889e-05
9.71651e-05
9.75144e-05
9.78348e-05
9.81247e-05
9.83823e-05
9.86061e-05
9.87948e-05
9.89469e-05
9.90618e-05
9.91393e-05
9.91926e-05
9.92393e-05
6.48651e-05
6.48632e-05
6.48585e-05
6.48516e-05
6.48436e-05
6.48357e-05
6.48292e-05
6.48255e-05
6.48261e-05
6.48323e-05
6.48456e-05
6.48674e-05
6.4899e-05
6.49413e-05
6.49953e-05
6.50621e-05
6.51421e-05
6.52362e-05
6.53446e-05
6.54678e-05
6.56061e-05
6.57596e-05
6.59286e-05
6.6113e-05
6.63129e-05
6.65283e-05
6.67591e-05
6.70053e-05
6.72667e-05
6.75433e-05
6.78349e-05
6.81414e-05
6.84626e-05
6.87985e-05
6.91489e-05
6.95137e-05
6.98927e-05
7.02858e-05
7.06924e-05
7.1112e-05
7.15436e-05
7.1986e-05
7.2438e-05
7.28981e-05
7.33652e-05
7.38385e-05
7.43175e-05
7.48018e-05
7.52914e-05
7.57862e-05
7.62862e-05
7.67912e-05
7.73011e-05
7.78159e-05
7.83355e-05
7.88597e-05
7.93885e-05
7.99218e-05
8.04595e-05
8.10015e-05
8.15476e-05
8.20975e-05
8.26512e-05
8.32082e-05
8.37684e-05
8.43313e-05
8.48965e-05
8.54636e-05
8.6032e-05
8.66011e-05
8.71703e-05
8.77389e-05
8.8306e-05
8.88708e-05
8.94323e-05
8.99896e-05
9.05413e-05
9.10865e-05
9.16237e-05
9.21517e-05
9.26689e-05
9.31737e-05
9.36647e-05
9.414e-05
9.4598e-05
9.50368e-05
9.54546e-05
9.58496e-05
9.62198e-05
9.65634e-05
9.68786e-05
9.71637e-05
9.74169e-05
9.76366e-05
9.78215e-05
9.79702e-05
9.80821e-05
9.8157e-05
9.82084e-05
9.82547e-05
6.44364e-05
6.44355e-05
6.44333e-05
6.44303e-05
6.44273e-05
6.44253e-05
6.44254e-05
6.44286e-05
6.44364e-05
6.44498e-05
6.44701e-05
6.44985e-05
6.45362e-05
6.4584e-05
6.46429e-05
6.47136e-05
6.4797e-05
6.48934e-05
6.50034e-05
6.51274e-05
6.52657e-05
6.54185e-05
6.55859e-05
6.57681e-05
6.59652e-05
6.6177e-05
6.64037e-05
6.66452e-05
6.69014e-05
6.71722e-05
6.74576e-05
6.77575e-05
6.80716e-05
6.84e-05
6.87426e-05
6.90991e-05
6.94695e-05
6.98535e-05
7.02506e-05
7.06602e-05
7.10813e-05
7.15127e-05
7.19531e-05
7.24012e-05
7.2856e-05
7.33167e-05
7.37829e-05
7.42544e-05
7.47312e-05
7.52133e-05
7.57006e-05
7.6193e-05
7.66904e-05
7.71927e-05
7.76998e-05
7.82116e-05
7.87279e-05
7.92488e-05
7.97741e-05
8.03036e-05
8.08372e-05
8.13746e-05
8.19157e-05
8.24602e-05
8.30078e-05
8.35581e-05
8.41107e-05
8.46652e-05
8.52211e-05
8.57777e-05
8.63345e-05
8.68907e-05
8.74455e-05
8.79982e-05
8.85477e-05
8.90931e-05
8.96332e-05
9.01669e-05
9.0693e-05
9.121e-05
9.17166e-05
9.22111e-05
9.26921e-05
9.31579e-05
9.36067e-05
9.40367e-05
9.44462e-05
9.48332e-05
9.51959e-05
9.55326e-05
9.58412e-05
9.61202e-05
9.63677e-05
9.65823e-05
9.67625e-05
9.6907e-05
9.70152e-05
9.70867e-05
9.71359e-05
9.71816e-05
6.40089e-05
6.40088e-05
6.40087e-05
6.40089e-05
6.40101e-05
6.40129e-05
6.40184e-05
6.40275e-05
6.40412e-05
6.40606e-05
6.40869e-05
6.41209e-05
6.41636e-05
6.42161e-05
6.4279e-05
6.43531e-05
6.44391e-05
6.45374e-05
6.46486e-05
6.4773e-05
6.4911e-05
6.50628e-05
6.52285e-05
6.54082e-05
6.56022e-05
6.58104e-05
6.60328e-05
6.62695e-05
6.65203e-05
6.67853e-05
6.70643e-05
6.73574e-05
6.76643e-05
6.7985e-05
6.83195e-05
6.86676e-05
6.90291e-05
6.94037e-05
6.97911e-05
7.01903e-05
7.06006e-05
7.10205e-05
7.14489e-05
7.18845e-05
7.23264e-05
7.27739e-05
7.32267e-05
7.36847e-05
7.4148e-05
7.46165e-05
7.50903e-05
7.55693e-05
7.60532e-05
7.65421e-05
7.70357e-05
7.7534e-05
7.80369e-05
7.85442e-05
7.90559e-05
7.95718e-05
8.00916e-05
8.06153e-05
8.11426e-05
8.16733e-05
8.22069e-05
8.27432e-05
8.32818e-05
8.38223e-05
8.43641e-05
8.49066e-05
8.54494e-05
8.59916e-05
8.65325e-05
8.70712e-05
8.7607e-05
8.81387e-05
8.86654e-05
8.91859e-05
8.96989e-05
9.02031e-05
9.06971e-05
9.11795e-05
9.16486e-05
9.21029e-05
9.25406e-05
9.296e-05
9.33593e-05
9.37367e-05
9.40902e-05
9.44182e-05
9.47188e-05
9.49902e-05
9.52308e-05
9.5439e-05
9.56134e-05
9.57526e-05
9.58561e-05
9.59237e-05
9.59701e-05
9.6015e-05
6.35815e-05
6.35821e-05
6.35837e-05
6.35866e-05
6.35911e-05
6.3598e-05
6.3608e-05
6.36219e-05
6.36406e-05
6.3665e-05
6.36961e-05
6.37348e-05
6.37818e-05
6.38381e-05
6.39043e-05
6.39811e-05
6.40691e-05
6.41689e-05
6.42808e-05
6.44053e-05
6.45426e-05
6.4693e-05
6.48568e-05
6.50339e-05
6.52247e-05
6.5429e-05
6.5647e-05
6.58787e-05
6.6124e-05
6.6383e-05
6.66555e-05
6.69415e-05
6.7241e-05
6.75539e-05
6.78801e-05
6.82194e-05
6.85718e-05
6.89368e-05
6.9314e-05
6.97026e-05
7.01016e-05
7.05097e-05
7.09257e-05
7.13483e-05
7.17767e-05
7.22105e-05
7.26492e-05
7.30931e-05
7.35422e-05
7.39965e-05
7.4456e-05
7.49206e-05
7.53902e-05
7.58646e-05
7.63438e-05
7.68276e-05
7.73159e-05
7.78086e-05
7.83055e-05
7.88065e-05
7.93115e-05
7.98202e-05
8.03323e-05
8.08477e-05
8.1366e-05
8.18869e-05
8.241e-05
8.29349e-05
8.3461e-05
8.39879e-05
8.45149e-05
8.50413e-05
8.55665e-05
8.60896e-05
8.66097e-05
8.71259e-05
8.76371e-05
8.81423e-05
8.86402e-05
8.91295e-05
8.96089e-05
9.00769e-05
9.05321e-05
9.09728e-05
9.13973e-05
9.1804e-05
9.2191e-05
9.25566e-05
9.28991e-05
9.32165e-05
9.35072e-05
9.37693e-05
9.40013e-05
9.42016e-05
9.43689e-05
9.45017e-05
9.45996e-05
9.46622e-05
9.47054e-05
9.47491e-05
6.31533e-05
6.31545e-05
6.31575e-05
6.31625e-05
6.31699e-05
6.318e-05
6.31937e-05
6.32115e-05
6.32344e-05
6.32629e-05
6.32981e-05
6.33405e-05
6.33911e-05
6.34504e-05
6.35193e-05
6.35982e-05
6.36877e-05
6.37884e-05
6.39006e-05
6.40248e-05
6.41611e-05
6.43099e-05
6.44714e-05
6.46458e-05
6.4833e-05
6.50333e-05
6.52467e-05
6.54733e-05
6.57129e-05
6.59657e-05
6.62315e-05
6.65104e-05
6.68022e-05
6.7107e-05
6.74246e-05
6.7755e-05
6.8098e-05
6.84531e-05
6.88199e-05
6.91975e-05
6.95848e-05
6.99807e-05
7.03838e-05
7.0793e-05
7.12075e-05
7.16269e-05
7.2051e-05
7.24801e-05
7.29143e-05
7.33535e-05
7.37979e-05
7.42474e-05
7.47017e-05