/*--------------------------------*- C++ -*----------------------------------*\
| =========                 |                                                 |
| \\      /  F ield         | OpenFOAM: The Open Source CFD Toolbox           |
|  \\    /   O peration     | Version:  4.1                                   |
|   \\  /    A nd           | Web:      www.OpenFOAM.org                      |
|    \\/     M anipulation  |                                                 |
\*---------------------------------------------------------------------------*/
FoamFile
{
    version     2.0;
    format      ascii;
    class       surfaceScalarField;
    location    "85";
    object      phi;
}
// * * * * * * * * * * * * * * * * * * * * * * * * * * * * * * * * * * * * * //

dimensions      [0 3 -1 0 0 0 0];

internalField   nonuniform List<scalar> 
87025
(
1.8991e-05
1.00898e-06
1.72887e-05
1.70233e-06
1.54823e-05
1.80641e-06
1.37391e-05
1.74323e-06
1.21269e-05
1.6122e-06
1.06965e-05
1.4304e-06
9.46793e-06
1.22853e-06
8.43557e-06
1.03235e-06
7.5813e-06
8.54276e-07
6.88166e-06
6.99637e-07
6.31183e-06
5.69829e-07
5.84795e-06
4.63883e-07
5.46858e-06
3.79368e-07
5.15541e-06
3.13173e-07
4.89334e-06
2.62068e-07
4.67033e-06
2.23012e-07
4.47702e-06
1.93306e-07
4.30636e-06
1.70664e-07
4.15313e-06
1.53227e-07
4.01361e-06
1.39524e-07
3.88518e-06
1.28425e-07
3.76609e-06
1.19094e-07
3.65514e-06
1.10944e-07
3.55156e-06
1.03587e-07
3.45475e-06
9.6808e-08
3.36422e-06
9.05263e-08
3.27945e-06
8.47688e-08
3.19982e-06
7.96293e-08
3.1246e-06
7.52229e-08
3.05296e-06
7.16396e-08
2.98405e-06
6.89072e-08
2.91708e-06
6.6972e-08
2.85138e-06
6.57019e-08
2.78647e-06
6.49099e-08
2.72208e-06
6.43887e-08
2.65813e-06
6.39458e-08
2.5947e-06
6.3431e-08
2.53195e-06
6.27517e-08
2.47007e-06
6.18776e-08
2.40924e-06
6.08353e-08
2.34954e-06
5.9696e-08
2.29099e-06
5.85571e-08
2.23346e-06
5.75227e-08
2.17678e-06
5.66844e-08
2.12067e-06
5.61064e-08
2.06486e-06
5.58161e-08
2.00905e-06
5.58021e-08
1.95303e-06
5.60207e-08
1.89663e-06
5.64081e-08
1.83973e-06
5.68945e-08
1.78231e-06
5.74172e-08
1.72439e-06
5.79276e-08
1.66599e-06
5.83935e-08
1.6072e-06
5.87964e-08
1.54807e-06
5.91275e-08
1.48869e-06
5.93829e-08
1.42913e-06
5.9561e-08
1.36946e-06
5.96604e-08
1.30979e-06
5.96795e-08
1.25017e-06
5.96157e-08
1.1907e-06
5.94666e-08
1.13147e-06
5.92288e-08
1.07258e-06
5.8899e-08
1.0141e-06
5.84737e-08
9.56152e-07
5.79493e-08
8.9883e-07
5.7322e-08
8.42242e-07
5.65884e-08
7.86497e-07
5.57452e-08
7.31707e-07
5.47891e-08
6.7799e-07
5.37175e-08
6.25462e-07
5.25279e-08
5.74243e-07
5.12188e-08
5.24454e-07
4.97888e-08
4.76217e-07
4.82378e-08
4.2965e-07
4.65661e-08
3.84875e-07
4.47754e-08
3.42007e-07
4.28684e-08
3.01158e-07
4.0849e-08
2.62435e-07
3.87228e-08
2.25938e-07
3.64967e-08
1.91758e-07
3.41798e-08
1.59976e-07
3.17827e-08
1.30657e-07
2.93185e-08
1.03855e-07
2.68024e-08
7.96025e-08
2.42522e-08
5.79141e-08
2.16884e-08
3.87799e-08
1.91342e-08
2.21639e-08
1.6616e-08
8.00138e-09
1.41625e-08
-3.80163e-09
1.1803e-08
-1.34969e-08
9.69524e-09
-2.12413e-08
7.74441e-09
-2.73669e-08
6.12562e-09
-3.23449e-08
4.978e-09
-3.68119e-08
4.46701e-09
-4.13187e-08
4.50675e-09
-4.51507e-08
3.83201e-09
-4.39202e-08
-1.23053e-09
-2.7989e-08
-1.59312e-08
-2.7989e-08
2.06192e-05
3.89743e-07
2.12421e-05
1.07942e-06
2.15559e-05
1.49264e-06
2.15671e-05
1.73203e-06
2.13174e-05
1.86196e-06
2.0859e-05
1.88872e-06
2.02556e-05
1.83196e-06
1.95647e-05
1.7233e-06
1.88308e-05
1.58809e-06
1.80874e-05
1.44307e-06
1.73579e-05
1.29938e-06
1.66574e-05
1.16432e-06
1.59949e-05
1.04191e-06
1.53744e-05
9.33644e-07
1.47971e-05
8.39377e-07
1.42621e-05
7.58016e-07
1.37674e-05
6.88002e-07
1.33104e-05
6.27618e-07
1.28884e-05
5.75228e-07
1.24986e-05
5.29345e-07
1.21384e-05
4.88695e-07
1.18052e-05
4.5225e-07
1.14969e-05
4.19233e-07
1.12114e-05
3.89117e-07
1.09466e-05
3.61617e-07
1.07004e-05
3.36662e-07
1.04708e-05
3.14353e-07
1.02556e-05
2.94896e-07
1.00523e-05
2.78505e-07
9.85864e-06
2.65301e-07
9.67232e-06
2.55228e-07
9.49129e-06
2.48003e-07
9.31387e-06
2.43115e-07
9.13891e-06
2.39874e-07
8.96579e-06
2.37505e-07
8.79447e-06
2.3527e-07
8.62532e-06
2.32583e-07
8.45897e-06
2.29101e-07
8.29608e-06
2.24763e-07
8.13715e-06
2.19769e-07
7.98233e-06
2.1451e-07
7.83143e-06
2.09461e-07
7.68388e-06
2.05075e-07
7.53887e-06
2.01694e-07
7.39548e-06
1.99495e-07
7.25281e-06
1.98487e-07
7.11007e-06
1.98537e-07
6.96667e-06
1.99422e-07
6.8222e-06
2.00883e-07
6.67641e-06
2.02683e-07
6.5292e-06
2.04627e-07
6.38055e-06
2.06581e-07
6.23048e-06
2.08461e-07
6.07905e-06
2.10224e-07
5.92633e-06
2.1185e-07
5.77238e-06
2.13329e-07
5.61729e-06
2.14655e-07
5.46113e-06
2.15819e-07
5.30399e-06
2.16813e-07
5.14598e-06
2.17627e-07
4.9872e-06
2.18248e-07
4.82777e-06
2.18664e-07
4.6678e-06
2.18862e-07
4.50745e-06
2.18828e-07
4.34685e-06
2.18549e-07
4.18616e-06
2.18009e-07
4.02555e-06
2.17197e-07
3.8652e-06
2.16097e-07
3.70529e-06
2.14698e-07
3.54602e-06
2.12989e-07
3.38759e-06
2.10958e-07
3.23021e-06
2.08598e-07
3.0741e-06
2.059e-07
2.91948e-06
2.02861e-07
2.76656e-06
1.99479e-07
2.61559e-06
1.95755e-07
2.46676e-06
1.91692e-07
2.32031e-06
1.87301e-07
2.17644e-06
1.82592e-07
2.03535e-06
1.77583e-07
1.89724e-06
1.72298e-07
1.76226e-06
1.66763e-07
1.63056e-06
1.61013e-07
1.50227e-06
1.5509e-07
1.37749e-06
1.49039e-07
1.25626e-06
1.42917e-07
1.13861e-06
1.36785e-07
1.02451e-06
1.30717e-07
9.13874e-07
1.24795e-07
8.06557e-07
1.1912e-07
7.02422e-07
1.1383e-07
6.01123e-07
1.09043e-07
5.02276e-07
1.04973e-07
4.05363e-07
1.01891e-07
3.09808e-07
1.00023e-07
2.15487e-07
9.88272e-08
1.24718e-07
9.4601e-08
4.69824e-08
7.65051e-08
1.21832e-09
2.98329e-08
-2.67707e-08
2.01348e-05
2.54911e-07
2.05112e-05
7.03024e-07
2.09621e-05
1.04173e-06
2.14122e-05
1.28196e-06
2.18139e-05
1.46024e-06
2.21204e-05
1.58219e-06
2.23072e-05
1.64519e-06
2.23727e-05
1.65777e-06
2.23277e-05
1.63318e-06
2.21878e-05
1.5829e-06
2.1971e-05
1.51618e-06
2.16947e-05
1.44063e-06
2.13746e-05
1.36206e-06
2.10238e-05
1.2844e-06
2.06532e-05
1.20999e-06
2.02713e-05
1.13998e-06
1.98845e-05
1.07473e-06
1.9498e-05
1.01412e-06
1.91155e-05
9.57727e-07
1.87398e-05
9.05055e-07
1.83729e-05
8.55589e-07
1.80163e-05
8.08909e-07
1.76708e-05
7.64732e-07
1.73369e-05
7.22948e-07
1.70149e-05
6.83632e-07
1.67045e-05
6.47035e-07
1.64054e-05
6.13549e-07
1.61166e-05
5.83643e-07
1.58373e-05
5.57778e-07
1.55663e-05
5.36305e-07
1.53022e-05
5.19366e-07
1.50434e-05
5.06825e-07
1.47883e-05
4.98225e-07
1.45353e-05
4.92791e-07
1.42834e-05
4.89484e-07
1.40315e-05
4.87093e-07
1.37797e-05
4.84378e-07
1.35286e-05
4.80246e-07
1.32794e-05
4.73934e-07
1.3034e-05
4.65182e-07
1.27942e-05
4.54309e-07
1.25615e-05
4.42178e-07
1.23366e-05
4.30002e-07
1.21192e-05
4.1906e-07
1.19083e-05
4.10387e-07
1.17022e-05
4.04562e-07
1.14991e-05
4.01645e-07
1.12973e-05
4.01258e-07
1.10954e-05
4.02777e-07
1.08926e-05
4.0553e-07
1.06882e-05
4.0895e-07
1.04822e-05
4.12643e-07
1.02743e-05
4.16382e-07
1.00644e-05
4.20058e-07
9.85264e-06
4.2363e-07
9.63889e-06
4.27081e-07
9.42314e-06
4.30398e-07
9.2054e-06
4.33562e-07
8.98566e-06
4.36551e-07
8.76395e-06
4.3934e-07
8.54029e-06
4.41904e-07
8.31474e-06
4.44214e-07
8.08736e-06
4.46244e-07
7.85823e-06
4.47964e-07
7.62743e-06
4.49347e-07
7.39508e-06
4.50363e-07
7.16129e-06
4.50984e-07
6.9262e-06
4.51182e-07
6.68997e-06
4.50929e-07
6.45276e-06
4.50201e-07
6.21475e-06
4.48973e-07
5.97612e-06
4.47224e-07
5.73708e-06
4.44934e-07
5.49786e-06
4.4209e-07
5.25865e-06
4.3868e-07
5.01971e-06
4.34699e-07
4.78126e-06
4.30145e-07
4.54353e-06
4.25026e-07
4.30677e-06
4.19354e-07
4.0712e-06
4.13151e-07
3.83705e-06
4.06447e-07
3.60454e-06
3.99281e-07
3.37385e-06
3.91703e-07
3.14516e-06
3.83773e-07
2.91864e-06
3.75565e-07
2.69439e-06
3.67161e-07
2.47252e-06
3.58661e-07
2.25306e-06
3.50175e-07
2.03602e-06
3.41834e-07
1.82135e-06
3.33786e-07
1.60898e-06
3.26207e-07
1.39872e-06
3.193e-07
1.19037e-06
3.13321e-07
9.83688e-07
3.08575e-07
7.78494e-07
3.05216e-07
5.75169e-07
3.02152e-07
3.76574e-07
2.93196e-07
1.93553e-07
2.59526e-07
5.38363e-08
1.69549e-07
2.70656e-08
2.00746e-05
1.80284e-07
2.02527e-05
5.24996e-07
2.04861e-05
8.08313e-07
2.07481e-05
1.01992e-06
2.10316e-05
1.17673e-06
2.13223e-05
1.29149e-06
2.15996e-05
1.36796e-06
2.18462e-05
1.41114e-06
2.20508e-05
1.42854e-06
2.22069e-05
1.42686e-06
2.23118e-05
1.41119e-06
2.23668e-05
1.38571e-06
2.23749e-05
1.35391e-06
2.23408e-05
1.31848e-06
2.22695e-05
1.2813e-06
2.21659e-05
1.24355e-06
2.20348e-05
1.20591e-06
2.18802e-05
1.16871e-06
2.17059e-05
1.13202e-06
2.15151e-05
1.09582e-06
2.13106e-05
1.06004e-06
2.10949e-05
1.02464e-06
2.08699e-05
9.89697e-07
2.06375e-05
9.55395e-07
2.03991e-05
9.22075e-07
2.01559e-05
8.90218e-07
1.9909e-05
8.60422e-07
1.96593e-05
8.33347e-07
1.94074e-05
8.09642e-07
1.91539e-05
7.89862e-07
1.88989e-05
7.74385e-07
1.86423e-05
7.63342e-07
1.8384e-05
7.56581e-07
1.81231e-05
7.53655e-07
1.78588e-05
7.53826e-07
1.75898e-05
7.56075e-07
1.73151e-05
7.59114e-07
1.70339e-05
7.61423e-07
1.67464e-05
7.61369e-07
1.64542e-05
7.57461e-07
1.61598e-05
7.48724e-07
1.58669e-05
7.35073e-07
1.55793e-05
7.17515e-07
1.53004e-05
6.98015e-07
1.50318e-05
6.79022e-07
1.47735e-05
6.62818e-07
1.45242e-05
6.50945e-07
1.42815e-05
6.43921e-07
1.4043e-05
6.41334e-07
1.38063e-05
6.42189e-07
1.35699e-05
6.45335e-07
1.33328e-05
6.49789e-07
1.30943e-05
6.54886e-07
1.28541e-05
6.60261e-07
1.2612e-05
6.65752e-07
1.23677e-05
6.713e-07
1.21213e-05
6.76875e-07
1.18724e-05
6.82443e-07
1.1621e-05
6.87962e-07
1.13669e-05
6.93386e-07
1.11102e-05
6.98669e-07
1.08506e-05
7.03762e-07
1.05882e-05
7.08621e-07
1.0323e-05
7.13199e-07
1.00549e-05
7.1745e-07
9.78393e-06
7.21329e-07
9.51013e-06
7.2479e-07
9.23352e-06
7.27788e-07
8.95417e-06
7.3028e-07
8.67215e-06
7.32222e-07
8.38755e-06
7.33575e-07
8.10047e-06
7.343e-07
7.81104e-06
7.34363e-07
7.5194e-06
7.33734e-07
7.22569e-06
7.32386e-07
6.93009e-06
7.30301e-07
6.63277e-06
7.27466e-07
6.33392e-06
7.23876e-07
6.03374e-06
7.19537e-07
5.73242e-06
7.14464e-07
5.43019e-06
7.08682e-07
5.12724e-06
7.02231e-07
4.82378e-06
6.95164e-07
4.52e-06
6.87547e-07
4.2161e-06
6.79462e-07
3.91226e-06
6.71009e-07
3.60861e-06
6.62303e-07
3.30531e-06
6.53477e-07
3.00246e-06
6.44687e-07
2.70014e-06
6.36108e-07
2.39841e-06
6.27939e-07
2.0973e-06
6.20407e-07
1.79685e-06
6.13774e-07
1.49711e-06
6.08313e-07
1.19826e-06
6.04061e-07
9.00979e-07
5.99436e-07
6.08208e-07
5.85968e-07
3.3149e-07
5.36244e-07
1.04947e-07
3.96092e-07
1.32013e-07
2.00412e-05
1.39102e-07
2.01519e-05
4.14278e-07
2.03053e-05
6.54924e-07
2.04782e-05
8.47023e-07
2.06605e-05
9.94397e-07
2.08469e-05
1.10513e-06
2.10309e-05
1.18396e-06
2.12069e-05
1.23517e-06
2.13709e-05
1.26454e-06
2.15199e-05
1.27786e-06
2.16513e-05
1.2797e-06
2.17635e-05
1.27354e-06
2.18553e-05
1.26212e-06
2.19263e-05
1.24749e-06
2.19766e-05
1.23104e-06
2.20064e-05
1.21366e-06
2.20165e-05
1.19582e-06
2.20075e-05
1.17773e-06
2.19801e-05
1.15942e-06
2.19351e-05
1.14087e-06
2.18731e-05
1.12199e-06
2.1795e-05
1.10277e-06
2.17014e-05
1.08327e-06
2.15932e-05
1.06367e-06
2.1471e-05
1.04428e-06
2.13356e-05
1.02555e-06
2.1188e-05
1.00801e-06
2.10291e-05
9.92285e-07
2.08597e-05
9.79007e-07
2.06809e-05
9.68752e-07
2.04933e-05
9.61978e-07
2.02976e-05
9.58982e-07
2.00943e-05
9.59868e-07
1.98834e-05
9.64559e-07
1.96645e-05
9.72802e-07
1.94364e-05
9.84147e-07
1.91977e-05
9.97842e-07
1.89464e-05
1.01265e-06
1.86811e-05
1.02671e-06
1.8401e-05
1.03756e-06
1.81072e-05
1.04252e-06
1.78028e-05
1.03945e-06
1.74928e-05
1.02752e-06
1.7183e-05
1.0078e-06
1.68789e-05
9.831e-07
1.65845e-05
9.57302e-07
1.63012e-05
9.3419e-07
1.60287e-05
9.16457e-07
1.57648e-05
9.05209e-07
1.55069e-05
9.00079e-07
1.52525e-05
8.99785e-07
1.49995e-05
9.02793e-07
1.47465e-05
9.07803e-07
1.44929e-05
9.13944e-07
1.42379e-05
9.20746e-07
1.39812e-05
9.27993e-07
1.37225e-05
9.35584e-07
1.34615e-05
9.43454e-07
1.31979e-05
9.51531e-07
1.29315e-05
9.59742e-07
1.26622e-05
9.6801e-07
1.23897e-05
9.76264e-07
1.21139e-05
9.84436e-07
1.18346e-05
9.92459e-07
1.15518e-05
1.00027e-06
1.12653e-05
1.00781e-06
1.09751e-05
1.015e-06
1.06811e-05
1.0218e-06
1.03832e-05
1.02814e-06
1.00815e-05
1.03396e-06
9.77586e-06
1.03921e-06
9.46634e-06
1.04382e-06
9.15295e-06
1.04775e-06
8.83573e-06
1.05095e-06
8.51474e-06
1.05338e-06
8.19003e-06
1.055e-06
7.86172e-06
1.05579e-06
7.52988e-06
1.05571e-06
7.19465e-06
1.05476e-06
6.85617e-06
1.05295e-06
6.51457e-06
1.05028e-06
6.17002e-06
1.04678e-06
5.82269e-06
1.04249e-06
5.47276e-06
1.03748e-06
5.12041e-06
1.03181e-06
4.76584e-06
1.02559e-06
4.40922e-06
1.01892e-06
4.05076e-06
1.01194e-06
3.69063e-06
1.00481e-06
3.32904e-06
9.97703e-07
2.96616e-06
9.90815e-07
2.6022e-06
9.84364e-07
2.2374e-06
9.78583e-07
1.87202e-06
9.73686e-07
1.50649e-06
9.69593e-07
1.14164e-06
9.6429e-07
7.8048e-07
9.47125e-07
4.3517e-07
8.81554e-07
1.44573e-07
6.8669e-07
2.76585e-07
2.00256e-05
1.1349e-07
2.01008e-05
3.39093e-07
2.02117e-05
5.44068e-07
2.03417e-05
7.17012e-07
2.04794e-05
8.5662e-07
2.06181e-05
9.66516e-07
2.07521e-05
1.04995e-06
2.08774e-05
1.1098e-06
2.09921e-05
1.14992e-06
2.10953e-05
1.17465e-06
2.1187e-05
1.18793e-06
2.12676e-05
1.19294e-06
2.13375e-05
1.19228e-06
2.1397e-05
1.18797e-06
2.14465e-05
1.18149e-06
2.14864e-05
1.17384e-06
2.15165e-05
1.16566e-06
2.1537e-05
1.15729e-06
2.15475e-05
1.14889e-06
2.15479e-05
1.14051e-06
2.15377e-05
1.13216e-06
2.15166e-05
1.12382e-06
2.14843e-05
1.11557e-06
2.14405e-05
1.1075e-06
2.13849e-05
1.09986e-06
2.13175e-05
1.09294e-06
2.12384e-05
1.08715e-06
2.11477e-05
1.08296e-06
2.10458e-05
1.08086e-06
2.09333e-05
1.0813e-06
2.08106e-05
1.08471e-06
2.06782e-05
1.09138e-06
2.05365e-05
1.10154e-06
2.03857e-05
1.11534e-06
2.02256e-05
1.13295e-06
2.00552e-05
1.15453e-06
1.98729e-05
1.18009e-06
1.96764e-05
1.20916e-06
1.94628e-05
1.2403e-06
1.92296e-05
1.27082e-06
1.89753e-05
1.2968e-06
1.87008e-05
1.31393e-06
1.84096e-05
1.31877e-06
1.81073e-05
1.31009e-06
1.78008e-05
1.28956e-06
1.74967e-05
1.2614e-06
1.71998e-05
1.23114e-06
1.69124e-05
1.20388e-06
1.66345e-05
1.18306e-06
1.63646e-05
1.16994e-06
1.61005e-05
1.16395e-06
1.58398e-05
1.16351e-06
1.55807e-05
1.1669e-06
1.53219e-05
1.1727e-06
1.50626e-05
1.18004e-06
1.48022e-05
1.18842e-06
1.45401e-05
1.19762e-06
1.42761e-05
1.2075e-06
1.40097e-05
1.21793e-06
1.37406e-05
1.22881e-06
1.34686e-05
1.24003e-06
1.31934e-05
1.25149e-06
1.29147e-05
1.26309e-06
1.26324e-05
1.27476e-06
1.23463e-05
1.2864e-06
1.20562e-05
1.29793e-06
1.17619e-05
1.30929e-06
1.14633e-05
1.32039e-06
1.11603e-05
1.33115e-06
1.08528e-05
1.34151e-06
1.05406e-05
1.35139e-06
1.02237e-05
1.36072e-06
9.90201e-06
1.36943e-06
9.5755e-06
1.37747e-06
9.24411e-06
1.38477e-06
8.90784e-06
1.39128e-06
8.56668e-06
1.39695e-06
8.22064e-06
1.40174e-06
7.86977e-06
1.40563e-06
7.51413e-06
1.4086e-06
7.15377e-06
1.41063e-06
6.78881e-06
1.41174e-06
6.41935e-06
1.41195e-06
6.04553e-06
1.4113e-06
5.66749e-06
1.40985e-06
5.28542e-06
1.40766e-06
4.89948e-06
1.40485e-06
4.5099e-06
1.40152e-06
4.1169e-06
1.39781e-06
3.72073e-06
1.39388e-06
3.32166e-06
1.38989e-06
2.91999e-06
1.38603e-06
2.51608e-06
1.38249e-06
2.11034e-06
1.37942e-06
1.70331e-06
1.37663e-06
1.2959e-06
1.3717e-06
8.91245e-07
1.35178e-06
5.02104e-07
1.27069e-06
1.70535e-07
1.01826e-06
4.4712e-07
2.00179e-05
9.55654e-08
2.00712e-05
2.85827e-07
2.01523e-05
4.62923e-07
2.0251e-05
6.18389e-07
2.03583e-05
7.49294e-07
2.04681e-05
8.56695e-07
2.05755e-05
9.42558e-07
2.06764e-05
1.00888e-06
2.07682e-05
1.05818e-06
2.08493e-05
1.09347e-06
2.09195e-05
1.11772e-06
2.0979e-05
1.13353e-06
2.10282e-05
1.14309e-06
2.10679e-05
1.14821e-06
2.10991e-05
1.15034e-06
2.11224e-05
1.15054e-06
2.11384e-05
1.14959e-06
2.11477e-05
1.14803e-06
2.11504e-05
1.14619e-06
2.11466e-05
1.14432e-06
2.11362e-05
1.14255e-06
2.1119e-05
1.14103e-06
2.10947e-05
1.13988e-06
2.10629e-05
1.13928e-06
2.10233e-05
1.13942e-06
2.09757e-05
1.1406e-06
2.09197e-05
1.14311e-06
2.08553e-05
1.14733e-06
2.07826e-05
1.15364e-06
2.07015e-05
1.16239e-06
2.06123e-05
1.17392e-06
2.05151e-05
1.1885e-06
2.04103e-05
1.20636e-06
2.02978e-05
1.22782e-06
2.01775e-05
1.2533e-06
2.00485e-05
1.28349e-06
1.99095e-05
1.31914e-06
1.9758e-05
1.36065e-06
1.95909e-05
1.40739e-06
1.94048e-05
1.45697e-06
1.91966e-05
1.50496e-06
1.89651e-05
1.54543e-06
1.87113e-05
1.57252e-06
1.84391e-05
1.58231e-06
1.81543e-05
1.57437e-06
1.78636e-05
1.55208e-06
1.75732e-05
1.5216e-06
1.72873e-05
1.4898e-06
1.7008e-05
1.46234e-06
1.67355e-05
1.44245e-06
1.64686e-05
1.43084e-06
1.62056e-05
1.42647e-06
1.59449e-05
1.42757e-06
1.56852e-05
1.43244e-06
1.54254e-05
1.43983e-06
1.51649e-05
1.44899e-06
1.4903e-05
1.45952e-06
1.46393e-05
1.47118e-06
1.43734e-05
1.4838e-06
1.4105e-05
1.49722e-06
1.38337e-05
1.51131e-06
1.35593e-05
1.52592e-06
1.32814e-05
1.54095e-06
1.29999e-05
1.55628e-06
1.27145e-05
1.57181e-06
1.24249e-05
1.58746e-06
1.21311e-05
1.60312e-06
1.18328e-05
1.6187e-06
1.15298e-05
1.63413e-06
1.1222e-05
1.64931e-06
1.09093e-05
1.66416e-06
1.05914e-05
1.67859e-06
1.02683e-05
1.69254e-06
9.93982e-06
1.70592e-06
9.60593e-06
1.71865e-06
9.26653e-06
1.73068e-06
8.92154e-06
1.74193e-06
8.57092e-06
1.75236e-06
8.21465e-06
1.76191e-06
7.85271e-06
1.77054e-06
7.48511e-06
1.77823e-06
7.1119e-06
1.78496e-06
6.73312e-06
1.79073e-06
6.34886e-06
1.79556e-06
5.95924e-06
1.79947e-06
5.56438e-06
1.80252e-06
5.16446e-06
1.80477e-06
4.75967e-06
1.80631e-06
4.35025e-06
1.80723e-06
3.93647e-06
1.80766e-06
3.51862e-06
1.80773e-06
3.09707e-06
1.80758e-06
2.67222e-06
1.80734e-06
2.24455e-06
1.8071e-06
1.81462e-06
1.80656e-06
1.38339e-06
1.80293e-06
9.54116e-07
1.78105e-06
5.40084e-07
1.68473e-06
1.85361e-07
1.37298e-06
6.32482e-07
2.0013e-05
8.25606e-08
2.00517e-05
2.4711e-07
2.01119e-05
4.02707e-07
2.01872e-05
5.43171e-07
2.0271e-05
6.65438e-07
2.03584e-05
7.69283e-07
2.04453e-05
8.55691e-07
2.05282e-05
9.2598e-07
2.06045e-05
9.81848e-07
2.06726e-05
1.02539e-06
2.07315e-05
1.05879e-06
2.0781e-05
1.0841e-06
2.08209e-05
1.1031e-06
2.08518e-05
1.11732e-06
2.08741e-05
1.12803e-06
2.08884e-05
1.13624e-06
2.08953e-05
1.14273e-06
2.08952e-05
1.1481e-06
2.08886e-05
1.1528e-06
2.08758e-05
1.15715e-06
2.08569e-05
1.16142e-06
2.08321e-05
1.16585e-06
2.08014e-05
1.17064e-06
2.07646e-05
1.17603e-06
2.07218e-05
1.18226e-06
2.06728e-05
1.1896e-06
2.06175e-05
1.19837e-06
2.0556e-05
1.20888e-06
2.04881e-05
1.22145e-06
2.04141e-05
1.2364e-06
2.0334e-05
1.25402e-06
2.0248e-05
1.27454e-06
2.01561e-05
1.29822e-06
2.00585e-05
1.32546e-06
1.99549e-05
1.35691e-06
1.98447e-05
1.39366e-06
1.97268e-05
1.43707e-06
1.95991e-05
1.48833e-06
1.94589e-05
1.54763e-06
1.93027e-05
1.6131e-06
1.91275e-05
1.68024e-06
1.89307e-05
1.74223e-06
1.87118e-05
1.79141e-06
1.84725e-05
1.82158e-06
1.82167e-05
1.83013e-06
1.79498e-05
1.81903e-06
1.76772e-05
1.79417e-06
1.74037e-05
1.7633e-06
1.71324e-05
1.73363e-06
1.68648e-05
1.7101e-06
1.66008e-05
1.6948e-06
1.63398e-05
1.68751e-06
1.60806e-05
1.68677e-06
1.58222e-05
1.69084e-06
1.55637e-05
1.69832e-06
1.53044e-05
1.70825e-06
1.50438e-05
1.7201e-06
1.47815e-05
1.73354e-06
1.45169e-05
1.74833e-06
1.42499e-05
1.76428e-06
1.398e-05
1.78121e-06
1.37069e-05
1.79898e-06
1.34304e-05
1.81743e-06
1.31503e-05
1.83644e-06
1.28662e-05
1.8559e-06
1.2578e-05
1.87569e-06
1.22854e-05
1.89571e-06
1.19882e-05
1.91586e-06
1.16863e-05
1.93604e-06
1.13794e-05
1.95616e-06
1.10675e-05
1.97611e-06
1.07503e-05
1.99582e-06
1.04276e-05
2.01519e-06
1.00994e-05
2.03412e-06
9.76551e-06
2.05255e-06
9.42582e-06
2.07037e-06
9.08023e-06
2.08753e-06
8.72865e-06
2.10394e-06
8.37103e-06
2.11953e-06
8.0073e-06
2.13427e-06
7.63745e-06
2.14808e-06
7.26147e-06
2.16094e-06
6.87937e-06
2.17282e-06
6.49122e-06
2.18371e-06
6.09709e-06
2.19361e-06
5.69708e-06
2.20253e-06
5.29135e-06
2.2105e-06
4.88007e-06
2.21759e-06
4.46346e-06
2.22383e-06
4.0418e-06
2.22932e-06
3.6154e-06
2.23413e-06
3.18463e-06
2.23836e-06
2.74989e-06
2.24207e-06
2.31168e-06
2.24531e-06
1.87055e-06
2.24769e-06
1.42747e-06
2.246e-06
9.85798e-07
2.22272e-06
5.59178e-07
2.11135e-06
1.92829e-07
1.73933e-06
8.25311e-07
2.00097e-05
7.29098e-08
2.00385e-05
2.1829e-07
2.00839e-05
3.57271e-07
2.01418e-05
4.85317e-07
2.02075e-05
5.99737e-07
2.0277e-05
6.99761e-07
2.0347e-05
7.857e-07
2.04146e-05
8.58331e-07
2.04777e-05
9.18784e-07
2.05346e-05
9.68514e-07
2.05842e-05
1.00914e-06
2.06261e-05
1.04225e-06
2.06599e-05
1.06929e-06
2.06857e-05
1.09154e-06
2.07036e-05
1.1101e-06
2.07139e-05
1.12587e-06
2.07171e-05
1.13962e-06
2.07133e-05
1.15192e-06
2.07028e-05
1.16324e-06
2.0686e-05
1.17397e-06
2.0663e-05
1.18443e-06
2.06339e-05
1.19489e-06
2.05989e-05
1.20562e-06
2.05581e-05
1.21686e-06
2.05115e-05
1.22889e-06
2.04591e-05
1.24199e-06
2.0401e-05
1.25644e-06
2.03374e-05
1.27255e-06
2.02682e-05
1.29062e-06
2.01937e-05
1.31093e-06
2.01139e-05
1.33375e-06
2.00292e-05
1.3593e-06
1.99395e-05
1.38787e-06
1.98451e-05
1.41992e-06
1.97456e-05
1.45633e-06
1.96408e-05
1.49851e-06
1.95295e-05
1.54832e-06
1.94103e-05
1.60758e-06
1.92808e-05
1.67712e-06
1.91384e-05
1.75553e-06
1.89802e-05
1.8384e-06
1.8804e-05
1.91842e-06
1.86086e-05
1.9868e-06
1.83945e-05
2.03574e-06
1.81637e-05
2.06088e-06
1.79199e-05
2.06282e-06
1.76673e-05
2.04679e-06
1.74099e-05
2.02074e-06
1.71508e-05
1.99274e-06
1.6892e-05
1.9689e-06
1.66343e-05
1.95244e-06
1.63779e-05
1.94398e-06
1.61221e-05
1.94251e-06
1.58665e-05
1.94649e-06
1.56103e-05
1.95449e-06
1.5353e-05
1.9655e-06
1.50943e-05
1.9789e-06
1.48335e-05
1.99428e-06
1.45705e-05
2.01137e-06
1.43048e-05
2.02996e-06
1.40362e-05
2.04984e-06
1.37643e-05
2.07084e-06
1.34889e-05
2.09279e-06
1.32098e-05
2.11555e-06
1.29268e-05
2.13898e-06
1.26395e-05
2.16298e-06
1.23478e-05
2.18742e-06
1.20514e-05
2.2122e-06
1.17503e-05
2.2372e-06
1.14441e-05
2.26233e-06
1.11327e-05
2.28747e-06
1.0816e-05
2.31253e-06
1.04938e-05
2.33741e-06
1.01659e-05
2.36201e-06
9.83221e-06
2.38624e-06
9.49259e-06
2.40999e-06
9.14693e-06
2.43319e-06
8.79513e-06
2.45573e-06
8.43711e-06
2.47755e-06
8.07281e-06
2.49857e-06
7.70218e-06
2.51871e-06
7.32521e-06
2.53791e-06
6.9419e-06
2.55614e-06
6.55228e-06
2.57333e-06
6.15641e-06
2.58947e-06
5.75439e-06
2.60455e-06
5.34635e-06
2.61854e-06
4.93247e-06
2.63147e-06
4.51296e-06
2.64335e-06
4.08808e-06
2.6542e-06
3.65814e-06
2.66407e-06
3.22351e-06
2.67299e-06
2.78459e-06
2.68099e-06
2.34186e-06
2.68805e-06
1.89584e-06
2.69371e-06
1.44751e-06
2.69433e-06
1.00026e-06
2.66998e-06
5.67923e-07
2.54368e-06
1.96273e-07
2.11098e-06
1.02158e-06
2.00073e-05
6.56078e-08
2.00291e-05
1.96448e-07
2.00639e-05
3.22544e-07
2.01087e-05
4.40515e-07
2.01603e-05
5.48136e-07
2.02156e-05
6.44464e-07
2.02719e-05
7.29414e-07
2.03268e-05
8.03375e-07
2.03785e-05
8.67072e-07
2.04255e-05
9.21512e-07
2.04668e-05
9.67878e-07
2.05017e-05
1.00739e-06
2.05297e-05
1.04121e-06
2.05509e-05
1.07039e-06
2.05651e-05
1.09589e-06
2.05725e-05
1.11851e-06
2.05731e-05
1.13894e-06
2.05673e-05
1.15776e-06
2.05551e-05
1.17543e-06
2.05367e-05
1.19235e-06
2.05123e-05
1.20886e-06
2.04819e-05
1.22527e-06
2.04457e-05
1.24185e-06
2.04037e-05
1.25888e-06
2.03559e-05
1.27662e-06
2.03026e-05
1.29534e-06
2.02437e-05
1.31533e-06
2.01794e-05
1.33687e-06
2.01097e-05
1.36024e-06
2.0035e-05
1.3857e-06
1.99552e-05
1.41349e-06
1.98707e-05
1.44384e-06
1.97815e-05
1.47706e-06
1.96877e-05
1.51369e-06
1.95892e-05
1.55481e-06
1.94856e-05
1.60211e-06
1.9376e-05
1.65792e-06
1.92591e-05
1.72454e-06
1.91329e-05
1.80324e-06
1.89955e-05
1.89293e-06
1.88447e-05
1.98921e-06
1.86787e-05
2.0844e-06
1.84966e-05
2.16898e-06
1.82982e-05
2.23409e-06
1.80849e-05
2.2742e-06
1.78589e-05
2.28886e-06
1.7623e-05
2.28264e-06
1.73804e-05
2.26338e-06
1.71336e-05
2.23954e-06
1.68845e-05
2.21792e-06
1.66345e-05
2.20252e-06
1.63838e-05
2.19464e-06
1.61326e-05
2.19375e-06
1.58805e-05
2.19855e-06
1.56273e-05
2.20773e-06
1.53725e-05
2.22029e-06
1.51158e-05
2.23558e-06
1.48569e-05
2.25319e-06
1.45954e-05
2.27283e-06
1.43311e-05
2.29425e-06
1.40637e-05
2.31724e-06
1.3793e-05
2.34161e-06
1.35186e-05
2.36718e-06
1.32403e-05
2.3938e-06
1.2958e-05
2.42132e-06
1.26713e-05
2.44963e-06
1.23802e-05
2.47858e-06
1.20843e-05
2.50808e-06
1.17835e-05
2.53799e-06
1.14776e-05
2.56821e-06
1.11665e-05
2.59862e-06
1.08499e-05
2.62912e-06
1.05277e-05
2.6596e-06
1.01998e-05
2.68995e-06
9.86592e-06
2.72007e-06
9.52608e-06
2.74984e-06
9.1801e-06
2.77916e-06
8.8279e-06
2.80793e-06
8.46939e-06
2.83606e-06
8.10451e-06
2.86345e-06
7.7332e-06
2.89001e-06
7.35546e-06
2.91566e-06
6.97128e-06
2.94031e-06
6.5807e-06
2.96391e-06
6.18378e-06
2.98639e-06
5.78062e-06
3.00771e-06
5.37135e-06
3.02781e-06
4.95614e-06
3.04668e-06
4.53521e-06
3.06428e-06
4.10881e-06
3.08059e-06
3.67727e-06
3.09562e-06
3.24092e-06
3.10934e-06
2.80017e-06
3.12173e-06
2.35548e-06
3.13274e-06
1.90737e-06
3.14183e-06
1.45677e-06
3.14493e-06
1.00709e-06
3.11966e-06
5.72191e-07
2.97858e-06
1.98015e-07
2.48515e-06
1.2196e-06
2.00056e-05
6.00113e-08
2.00223e-05
1.79697e-07
2.00491e-05
2.9576e-07
2.0084e-05
4.05639e-07
2.01246e-05
5.07528e-07
2.01686e-05
6.00495e-07
2.02137e-05
6.8425e-07
2.02582e-05
7.58927e-07
2.03003e-05
8.24964e-07
2.03388e-05
8.8305e-07
2.03726e-05
9.34041e-07
2.04011e-05
9.78864e-07
2.04239e-05
1.01844e-06
2.04406e-05
1.05365e-06
2.04512e-05
1.08528e-06
2.04557e-05
1.11406e-06
2.04541e-05
1.1406e-06
2.04464e-05
1.16544e-06
2.04328e-05
1.18904e-06
2.04133e-05
1.2118e-06
2.03881e-05
1.23406e-06
2.03572e-05
1.25615e-06
2.03207e-05
1.27835e-06
2.02787e-05
1.30093e-06
2.02311e-05
1.32416e-06
2.01782e-05
1.34832e-06
2.01198e-05
1.37365e-06
2.00563e-05
1.40045e-06
1.99876e-05
1.42896e-06
1.99138e-05
1.45943e-06
1.98352e-05
1.49208e-06
1.97519e-05
1.52715e-06
1.9664e-05
1.56495e-06
1.95716e-05
1.60613e-06
1.94745e-05
1.65193e-06
1.93722e-05
1.70437e-06
1.9264e-05
1.76616e-06
1.91485e-05
1.84004e-06
1.90241e-05
1.92762e-06
1.88891e-05
2.02795e-06
1.87418e-05
2.1365e-06
1.8581e-05
2.24522e-06
1.8406e-05
2.34397e-06
1.82169e-05
2.42313e-06
1.80147e-05
2.47642e-06
1.78009e-05
2.5027e-06
1.75774e-05
2.5061e-06
1.73465e-05
2.49426e-06
1.71102e-05
2.47582e-06
1.68702e-05
2.45796e-06
1.66275e-05
2.44519e-06
1.63829e-05
2.43929e-06
1.61365e-05
2.44011e-06
1.58885e-05
2.44662e-06
1.56385e-05
2.45765e-06
1.53865e-05
2.47227e-06
1.51323e-05
2.48988e-06
1.48754e-05
2.51005e-06
1.46157e-05
2.53251e-06
1.4353e-05
2.55699e-06
1.40869e-05
2.58329e-06
1.38173e-05
2.6112e-06
1.3544e-05
2.64055e-06
1.32666e-05
2.67117e-06
1.2985e-05
2.70292e-06
1.2699e-05
2.73565e-06
1.24083e-05
2.76924e-06
1.21128e-05
2.80356e-06
1.18123e-05
2.8385e-06
1.15066e-05
2.87392e-06
1.11955e-05
2.90971e-06
1.08789e-05
2.94576e-06
1.05565e-05
2.98195e-06
1.02283e-05
3.01815e-06
9.89417e-06
3.05425e-06
9.55387e-06
3.09013e-06
9.20735e-06
3.12568e-06
8.85451e-06
3.16077e-06
8.49528e-06
3.1953e-06
8.12959e-06
3.22914e-06
7.7574e-06
3.2622e-06
7.3787e-06
3.29435e-06
6.99351e-06
3.32551e-06
6.60186e-06
3.35556e-06
6.20382e-06
3.38443e-06
5.7995e-06
3.41203e-06
5.38904e-06
3.43827e-06
4.97262e-06
3.4631e-06
4.55046e-06
3.48643e-06
4.12284e-06
3.50822e-06
3.69005e-06
3.52841e-06
3.25246e-06
3.54693e-06
2.81045e-06
3.56374e-06
2.36448e-06
3.57872e-06
1.91505e-06
3.59126e-06
1.4631e-06
3.59688e-06
1.01196e-06
3.5708e-06
5.75425e-07
3.41511e-06
1.99411e-07
2.86117e-06
1.41901e-06
2.00043e-05
5.56877e-08
2.00173e-05
1.6675e-07
2.00381e-05
2.74977e-07
2.00653e-05
3.78397e-07
2.00973e-05
4.75553e-07
2.01322e-05
5.65597e-07
2.01683e-05
6.48154e-07
2.0204e-05
7.23198e-07
2.0238e-05
7.90972e-07
2.02691e-05
8.51936e-07
2.02964e-05
9.06706e-07
2.03193e-05
9.55985e-07
2.03373e-05
1.0005e-06
2.03499e-05
1.04096e-06
2.03572e-05
1.07804e-06
2.03589e-05
1.11236e-06
2.0355e-05
1.14448e-06
2.03456e-05
1.17488e-06
2.03306e-05
1.20401e-06
2.03101e-05
1.23225e-06
2.02843e-05
1.25994e-06
2.0253e-05
1.28741e-06
2.02164e-05
1.31493e-06
2.01745e-05
1.3428e-06
2.01274e-05
1.37126e-06
2.00752e-05
1.40059e-06
2.00178e-05
1.43103e-06
1.99554e-05
1.46285e-06
1.98881e-05
1.49629e-06
1.98159e-05
1.5316e-06
1.9739e-05
1.56897e-06
1.96575e-05
1.60862e-06
1.95716e-05
1.65091e-06
1.94811e-05
1.69657e-06
1.9386e-05
1.74702e-06
1.92858e-05
1.80458e-06
1.91796e-05
1.87236e-06
1.90662e-05
1.95351e-06
1.89439e-05
2.04992e-06
1.88111e-05
2.16069e-06
1.86665e-05
2.28108e-06
1.85092e-05
2.40256e-06
1.83388e-05
2.51438e-06
1.81556e-05
2.60629e-06
1.79606e-05
2.67144e-06
1.7755e-05
2.70829e-06
1.75404e-05
2.72069e-06
1.73185e-05
2.71623e-06
1.70906e-05
2.70364e-06
1.68583e-05
2.69034e-06
1.66223e-05
2.68116e-06
1.63834e-05
2.6782e-06
1.61419e-05
2.68161e-06
1.58979e-05
2.69057e-06
1.56515e-05
2.70405e-06
1.54026e-05
2.72123e-06
1.51509e-05
2.74155e-06
1.48963e-05
2.76462e-06
1.46387e-05
2.79016e-06
1.43777e-05
2.81795e-06
1.41132e-05
2.84777e-06
1.3845e-05
2.87942e-06
1.35729e-05
2.91271e-06
1.32966e-05
2.94749e-06
1.30159e-05
2.98359e-06
1.27306e-05
3.02089e-06
1.24406e-05
3.05925e-06
1.21456e-05
3.09853e-06
1.18455e-05
3.13861e-06
1.15401e-05
3.17937e-06
1.12291e-05
3.22066e-06
1.09125e-05
3.26238e-06
1.05901e-05
3.30439e-06
1.02617e-05
3.34657e-06
9.92713e-06
3.38878e-06
9.58637e-06
3.43089e-06
9.23927e-06
3.47278e-06
8.88573e-06
3.51431e-06
8.52569e-06
3.55534e-06
8.15908e-06
3.59575e-06
7.78588e-06
3.6354e-06
7.40607e-06
3.67416e-06
7.01969e-06
3.71189e-06
6.62677e-06
3.74848e-06
6.22739e-06
3.7838e-06
5.82169e-06
3.81774e-06
5.4098e-06
3.85016e-06
4.99192e-06
3.88098e-06
4.56828e-06
3.91007e-06
4.13916e-06
3.93734e-06
3.70488e-06
3.96269e-06
3.26579e-06
3.98602e-06
2.82229e-06
4.00723e-06
2.37483e-06
4.02618e-06
1.92391e-06
4.04217e-06
1.47045e-06
4.05034e-06
1.01772e-06
4.02353e-06
5.7934e-07
3.85349e-06
2.01128e-07
3.23938e-06
1.62014e-06
2.00034e-05
5.23334e-08
2.00134e-05
1.56702e-07
2.00296e-05
2.58803e-07
2.00509e-05
3.57098e-07
2.0076e-05
4.50413e-07
2.01036e-05
5.38003e-07
2.01323e-05
6.19477e-07
2.01608e-05
6.94716e-07
2.01879e-05
7.63833e-07
2.02127e-05
8.27129e-07
2.02344e-05
8.85043e-07
2.02523e-05
9.38105e-07
2.02659e-05
9.86886e-07
2.02749e-05
1.03196e-06
2.0279e-05
1.0739e-06
2.02781e-05
1.11323e-06
2.02722e-05
1.15044e-06
2.02611e-05
1.18598e-06
2.02448e-05
1.22025e-06
2.02235e-05
1.25363e-06
2.0197e-05
1.28644e-06
2.01654e-05
1.31899e-06
2.01287e-05
1.35157e-06
2.00871e-05
1.38445e-06
2.00405e-05
1.41789e-06
1.99889e-05
1.45214e-06
1.99325e-05
1.48745e-06
1.98713e-05
1.52407e-06
1.98053e-05
1.56224e-06
1.97347e-05
1.60218e-06