# vtk DataFile Version 2.0
sampleSurface
ASCII
DATASET POLYDATA
POINTS 652 double
0 0 0
0.02 0 0
0.02 0 0.1
0 0 0.1
0.04 0 0
0.04 0 0.1
0.06 0 0
0.06 0 0.1
0.08 0 0
0.08 0 0.1
0.1 0 0
0.1 0 0.1
0.12 0 0
0.12 0 0.1
0.14 0 0
0.14 0 0.1
0.16 0 0
0.16 0 0.1
0.18 0 0
0.18 0 0.1
0.2 0 0
0.2 0 0.1
0.22 0 0
0.22 0 0.1
0.24 0 0
0.24 0 0.1
0.26 0 0
0.26 0 0.1
0.28 0 0
0.28 0 0.1
0.3 0 0
0.3 0 0.1
0.32 0 0
0.32 0 0.1
0.34 0 0
0.34 0 0.1
0.36 0 0
0.36 0 0.1
0.38 0 0
0.38 0 0.1
0.4 0 0
0.4 0 0.1
0.42 0 0
0.42 0 0.1
0.44 0 0
0.44 0 0.1
0.46 0 0
0.46 0 0.1
0.48 0 0
0.48 0 0.1
0.5 0 0
0.5 0 0.1
0.52 0 0
0.52 0 0.1
0.54 0 0
0.54 0 0.1
0.56 0 0
0.56 0 0.1
0.58 0 0
0.58 0 0.1
0.6 0 0
0.6 0 0.1
0.62 0 0
0.62 0 0.1
0.64 0 0
0.64 0 0.1
0.66 0 0
0.66 0 0.1
0.68 0 0
0.68 0 0.1
0.7 0 0
0.7 0 0.1
0.72 0 0
0.72 0 0.1
0.74 0 0
0.74 0 0.1
0.76 0 0
0.76 0 0.1
0.78 0 0
0.78 0 0.1
0.8 0 0
0.8 0 0.1
0.82 0 0
0.82 0 0.1
0.84 0 0
0.84 0 0.1
0.86 0 0
0.86 0 0.1
0.88 0 0
0.88 0 0.1
0.9 0 0
0.9 0 0.1
0.92 0 0
0.92 0 0.1
0.94 0 0
0.94 0 0.1
0.96 0 0
0.96 0 0.1
0.98 0 0
0.98 0 0.1
1 0 0
1 0 0.1
1.02 0 0
1.02 0 0.1
1.04 0 0
1.04 0 0.1
1.06 0 0
1.06 0 0.1
1.08 0 0
1.08 0 0.1
1.1 0 0
1.1 0 0.1
1.12 0 0
1.12 0 0.1
1.14 0 0
1.14 0 0.1
1.16 0 0
1.16 0 0.1
1.18 0 0
1.18 0 0.1
1.2 0 0
1.2 0 0.1
1.22 0 0
1.22 0 0.1
1.24 0 0
1.24 0 0.1
1.26 0 0
1.26 0 0.1
1.28 0 0
1.28 0 0.1
1.3 0 0
1.3 0 0.1
1.32 0 0
1.32 0 0.1
1.34 0 0
1.34 0 0.1
1.36 0 0
1.36 0 0.1
1.38 0 0
1.38 0 0.1
1.4 0 0
1.4 0 0.1
1.42 0 0
1.42 0 0.1
1.44 0 0
1.44 0 0.1
1.46 0 0
1.46 0 0.1
1.48 0 0
1.48 0 0.1
1.5 0 0
1.5 0 0.1
1.52 0 0
1.52 0 0.1
1.54 0 0
1.54 0 0.1
1.56 0 0
1.56 0 0.1
1.58 0 0
1.58 0 0.1
1.6 0 0
1.6 0 0.1
1.62 0 0
1.62 0 0.1
1.64 0 0
1.64 0 0.1
1.66 0 0
1.66 0 0.1
1.68 0 0
1.68 0 0.1
1.7 0 0
1.7 0 0.1
1.72 0 0
1.72 0 0.1
1.74 0 0
1.74 0 0.1
1.76 0 0
1.76 0 0.1
1.78 0 0
1.78 0 0.1
1.8 0 0
1.8 0 0.1
1.82 0 0
1.82 0 0.1
1.84 0 0
1.84 0 0.1
1.86 0 0
1.86 0 0.1
1.88 0 0
1.88 0 0.1
1.9 0 0
1.9 0 0.1
1.92 0 0
1.92 0 0.1
1.94 0 0
1.94 0 0.1
1.96 0 0
1.96 0 0.1
1.98 0 0
1.98 0 0.1
2 0 0
2 0 0.1
2 0.02 0
2 0.02 0.1
2 0.04 0
2 0.04 0.1
2 0.06 0
2 0.06 0.1
2 0.08 0
2 0.08 0.1
2 0.1 0
2 0.1 0.1
2 0.12 0
2 0.12 0.1
2 0.14 0
2 0.14 0.1
2 0.16 0
2 0.16 0.1
2 0.18 0
2 0.18 0.1
2 0.2 0
2 0.2 0.1
2 0.22 0
2 0.22 0.1
2 0.24 0
2 0.24 0.1
2 0.26 0
2 0.26 0.1
2 0.28 0
2 0.28 0.1
2 0.3 0
2 0.3 0.1
2 0.32 0
2 0.32 0.1
2 0.34 0
2 0.34 0.1
2 0.36 0
2 0.36 0.1
2 0.38 0
2 0.38 0.1
2 0.4 0
2 0.4 0.1
2 0.42 0
2 0.42 0.1
2 0.44 0
2 0.44 0.1
2 0.46 0
2 0.46 0.1
2 0.48 0
2 0.48 0.1
2 0.5 0
2 0.5 0.1
2 0.52 0
2 0.52 0.1
2 0.54 0
2 0.54 0.1
2 0.56 0
2 0.56 0.1
2 0.58 0
2 0.58 0.1
2 0.6 0
2 0.6 0.1
2 0.62 0
2 0.62 0.1
2 0.64 0
2 0.64 0.1
2 0.66 0
2 0.66 0.1
2 0.68 0
2 0.68 0.1
2 0.7 0
2 0.7 0.1
2 0.72 0
2 0.72 0.1
2 0.74 0
2 0.74 0.1
2 0.76 0
2 0.76 0.1
2 0.78 0
2 0.78 0.1
2 0.8 0
2 0.8 0.1
2 0.82 0
2 0.82 0.1
2 0.84 0
2 0.84 0.1
2 0.86 0
2 0.86 0.1
2 0.88 0
2 0.88 0.1
2 0.9 0
2 0.9 0.1
2 0.92 0
2 0.92 0.1
2 0.94 0
2 0.94 0.1
2 0.96 0
2 0.96 0.1
2 0.98 0
2 0.98 0.1
2 1 0
2 1 0.1
2.02 1 0
2.02 1 0.1
2.04 1 0
2.04 1 0.1
2.06 1 0
2.06 1 0.1
2.08 1 0
2.08 1 0.1
2.1 1 0
2.1 1 0.1
2.12 1 0
2.12 1 0.1
2.14 1 0
2.14 1 0.1
2.16 1 0
2.16 1 0.1
2.18 1 0
2.18 1 0.1
2.2 1 0
2.2 1 0.1
2.22 1 0
2.22 1 0.1
2.24 1 0
2.24 1 0.1
2.26 1 0
2.26 1 0.1
2.28 1 0
2.28 1 0.1
2.3 1 0
2.3 1 0.1
2.32 1 0
2.32 1 0.1
2.34 1 0
2.34 1 0.1
2.36 1 0
2.36 1 0.1
2.38 1 0
2.38 1 0.1
2.4 1 0
2.4 1 0.1
2.42 1 0
2.42 1 0.1
2.44 1 0
2.44 1 0.1
2.46 1 0
2.46 1 0.1
2.48 1 0
2.48 1 0.1
2.5 1 0
2.5 1 0.1
2.5 0 0
2.5 0 0.1
2.5 0.02 0.1
2.5 0.02 0
2.5 0.04 0.1
2.5 0.04 0
2.5 0.06 0.1
2.5 0.06 0
2.5 0.08 0.1
2.5 0.08 0
2.5 0.1 0.1
2.5 0.1 0
2.5 0.12 0.1
2.5 0.12 0
2.5 0.14 0.1
2.5 0.14 0
2.5 0.16 0.1
2.5 0.16 0
2.5 0.18 0.1
2.5 0.18 0
2.5 0.2 0.1
2.5 0.2 0
2.5 0.22 0.1
2.5 0.22 0
2.5 0.24 0.1
2.5 0.24 0
2.5 0.26 0.1
2.5 0.26 0
2.5 0.28 0.1
2.5 0.28 0
2.5 0.3 0.1
2.5 0.3 0
2.5 0.32 0.1
2.5 0.32 0
2.5 0.34 0.1
2.5 0.34 0
2.5 0.36 0.1
2.5 0.36 0
2.5 0.38 0.1
2.5 0.38 0
2.5 0.4 0.1
2.5 0.4 0
2.5 0.42 0.1
2.5 0.42 0
2.5 0.44 0.1
2.5 0.44 0
2.5 0.46 0.1
2.5 0.46 0
2.5 0.48 0.1
2.5 0.48 0
2.5 0.5 0.1
2.5 0.5 0
2.5 0.52 0.1
2.5 0.52 0
2.5 0.54 0.1
2.5 0.54 0
2.5 0.56 0.1
2.5 0.56 0
2.5 0.58 0.1
2.5 0.58 0
2.5 0.6 0.1
2.5 0.6 0
2.5 0.62 0.1
2.5 0.62 0
2.5 0.64 0.1
2.5 0.64 0
2.5 0.66 0.1
2.5 0.66 0
2.5 0.68 0.1
2.5 0.68 0
2.5 0.7 0.1
2.5 0.7 0
2.5 0.72 0.1
2.5 0.72 0
2.5 0.74 0.1
2.5 0.74 0
2.5 0.76 0.1
2.5 0.76 0
2.5 0.78 0.1
2.5 0.78 0
2.5 0.8 0.1
2.5 0.8 0
2.5 0.82 0.1
2.5 0.82 0
2.5 0.84 0.1
2.5 0.84 0
2.5 0.86 0.1
2.5 0.86 0
2.5 0.88 0.1
2.5 0.88 0
2.5 0.9 0.1
2.5 0.9 0
2.5 0.92 0.1
2.5 0.92 0
2.5 0.94 0.1
2.5 0.94 0
2.5 0.96 0.1
2.5 0.96 0
2.5 0.98 0.1
2.5 0.98 0
2.52 0 0
2.52 0 0.1
2.54 0 0
2.54 0 0.1
2.56 0 0
2.56 0 0.1
2.58 0 0
2.58 0 0.1
2.6 0 0
2.6 0 0.1
2.62 0 0
2.62 0 0.1
2.64 0 0
2.64 0 0.1
2.66 0 0
2.66 0 0.1
2.68 0 0
2.68 0 0.1
2.7 0 0
2.7 0 0.1
2.72 0 0
2.72 0 0.1
2.74 0 0
2.74 0 0.1
2.76 0 0
2.76 0 0.1
2.78 0 0
2.78 0 0.1
2.8 0 0
2.8 0 0.1
2.82 0 0
2.82 0 0.1
2.84 0 0
2.84 0 0.1
2.86 0 0
2.86 0 0.1
2.88 0 0
2.88 0 0.1
2.9 0 0
2.9 0 0.1
2.92 0 0
2.92 0 0.1
2.94 0 0
2.94 0 0.1
2.96 0 0
2.96 0 0.1
2.98 0 0
2.98 0 0.1
3 0 0
3 0 0.1
3.02 0 0
3.02 0 0.1
3.04 0 0
3.04 0 0.1
3.06 0 0
3.06 0 0.1
3.08 0 0
3.08 0 0.1
3.1 0 0
3.1 0 0.1
3.12 0 0
3.12 0 0.1
3.14 0 0
3.14 0 0.1
3.16 0 0
3.16 0 0.1
3.18 0 0
3.18 0 0.1
3.2 0 0
3.2 0 0.1
3.22 0 0
3.22 0 0.1
3.24 0 0
3.24 0 0.1
3.26 0 0
3.26 0 0.1
3.28 0 0
3.28 0 0.1
3.3 0 0
3.3 0 0.1
3.32 0 0
3.32 0 0.1
3.34 0 0
3.34 0 0.1
3.36 0 0
3.36 0 0.1
3.38 0 0
3.38 0 0.1
3.4 0 0
3.4 0 0.1
3.42 0 0
3.42 0 0.1
3.44 0 0
3.44 0 0.1
3.46 0 0
3.46 0 0.1
3.48 0 0
3.48 0 0.1
3.5 0 0
3.5 0 0.1
3.52 0 0
3.52 0 0.1
3.54 0 0
3.54 0 0.1
3.56 0 0
3.56 0 0.1
3.58 0 0
3.58 0 0.1
3.6 0 0
3.6 0 0.1
3.62 0 0
3.62 0 0.1
3.64 0 0
3.64 0 0.1
3.66 0 0
3.66 0 0.1
3.68 0 0
3.68 0 0.1
3.7 0 0
3.7 0 0.1
3.72 0 0
3.72 0 0.1
3.74 0 0
3.74 0 0.1
3.76 0 0
3.76 0 0.1
3.78 0 0
3.78 0 0.1
3.8 0 0
3.8 0 0.1
3.82 0 0
3.82 0 0.1
3.84 0 0
3.84 0 0.1
3.86 0 0
3.86 0 0.1
3.88 0 0
3.88 0 0.1
3.9 0 0
3.9 0 0.1
3.92 0 0
3.92 0 0.1
3.94 0 0
3.94 0 0.1
3.96 0 0
3.96 0 0.1
3.98 0 0
3.98 0 0.1
4 0 0
4 0 0.1
4.02 0 0
4.02 0 0.1
4.04 0 0
4.04 0 0.1
4.06 0 0
4.06 0 0.1
4.08 0 0
4.08 0 0.1
4.1 0 0
4.1 0 0.1
4.12 0 0
4.12 0 0.1
4.14 0 0
4.14 0 0.1
4.16 0 0
4.16 0 0.1
4.18 0 0
4.18 0 0.1
4.2 0 0
4.2 0 0.1
4.22 0 0
4.22 0 0.1
4.24 0 0
4.24 0 0.1
4.26 0 0
4.26 0 0.1
4.28 0 0
4.28 0 0.1
4.3 0 0
4.3 0 0.1
4.32 0 0
4.32 0 0.1
4.34 0 0
4.34 0 0.1
4.36 0 0
4.36 0 0.1
4.38 0 0
4.38 0 0.1
4.4 0 0
4.4 0 0.1
4.42 0 0
4.42 0 0.1
4.44 0 0
4.44 0 0.1
4.46 0 0
4.46 0 0.1
4.48 0 0
4.48 0 0.1
4.5 0 0
4.5 0 0.1

POLYGONS 325 1625
4 0 1 2 3
4 1 4 5 2
4 4 6 7 5
4 6 8 9 7
4 8 10 11 9
4 10 12 13 11
4 12 14 15 13
4 14 16 17 15
4 16 18 19 17
4 18 20 21 19
4 20 22 23 21
4 22 24 25 23
4 24 26 27 25
4 26 28 29 27
4 28 30 31 29
4 30 32 33 31
4 32 34 35 33
4 34 36 37 35
4 36 38 39 37
4 38 40 41 39
4 40 42 43 41
4 42 44 45 43
4 44 46 47 45
4 46 48 49 47
4 48 50 51 49
4 50 52 53 51
4 52 54 55 53
4 54 56 57 55
4 56 58 59 57
4 58 60 61 59
4 60 62 63 61
4 62 64 65 63
4 64 66 67 65
4 66 68 69 67
4 68 70 71 69
4 70 72 73 71
4 72 74 75 73
4 74 76 77 75
4 76 78 79 77
4 78 80 81 79
4 80 82 83 81
4 82 84 85 83
4 84 86 87 85
4 86 88 89 87
4 88 90 91 89
4 90 92 93 91
4 92 94 95 93
4 94 96 97 95
4 96 98 99 97
4 98 100 101 99
4 100 102 103 101
4 102 104 105 103
4 104 106 107 105
4 106 108 109 107
4 108 110 111 109
4 110 112 113 111
4 112 114 115 113
4 114 116 117 115
4 116 118 119 117
4 118 120 121 119
4 120 122 123 121
4 122 124 125 123
4 124 126 127 125
4 126 128 129 127
4 128 130 131 129
4 130 132 133 131
4 132 134 135 133
4 134 136 137 135
4 136 138 139 137
4 138 140 141 139
4 140 142 143 141
4 142 144 145 143
4 144 146 147 145
4 146 148 149 147
4 148 150 151 149
4 150 152 153 151
4 152 154 155 153
4 154 156 157 155
4 156 158 159 157
4 158 160 161 159
4 160 162 163 161
4 162 164 165 163
4 164 166 167 165
4 166 168 169 167
4 168 170 171 169
4 170 172 173 171
4 172 174 175 173
4 174 176 177 175
4 176 178 179 177
4 178 180 181 179
4 180 182 183 181
4 182 184 185 183
4 184 186 187 185
4 186 188 189 187
4 188 190 191 189
4 190 192 193 191
4 192 194 195 193
4 194 196 197 195
4 196 198 199 197
4 198 200 201 199
4 200 202 203 201
4 202 204 205 203
4 204 206 207 205
4 206 208 209 207
4 208 210 211 209
4 210 212 213 211
4 212 214 215 213
4 214 216 217 215
4 216 218 219 217
4 218 220 221 219
4 220 222 223 221
4 222 224 225 223
4 224 226 227 225
4 226 228 229 227
4 228 230 231 229
4 230 232 233 231
4 232 234 235 233
4 234 236 237 235
4 236 238 239 237
4 238 240 241 239
4 240 242 243 241
4 242 244 245 243
4 244 246 247 245
4 246 248 249 247
4 248 250 251 249
4 250 252 253 251
4 252 254 255 253
4 254 256 257 255
4 256 258 259 257
4 258 260 261 259
4 260 262 263 261
4 262 264 265 263
4 264 266 267 265
4 266 268 269 267
4 268 270 271 269
4 270 272 273 271
4 272 274 275 273
4 274 276 277 275
4 276 278 279 277
4 278 280 281 279
4 280 282 283 281
4 282 284 285 283
4 284 286 287 285
4 286 288 289 287
4 288 290 291 289
4 290 292 293 291
4 292 294 295 293
4 294 296 297 295
4 296 298 299 297
4 298 300 301 299
4 300 302 303 301
4 302 304 305 303
4 304 306 307 305
4 306 308 309 307
4 308 310 311 309
4 310 312 313 311
4 312 314 315 313
4 314 316 317 315
4 316 318 319 317
4 318 320 321 319
4 320 322 323 321
4 322 324 325 323
4 324 326 327 325
4 326 328 329 327
4 328 330 331 329
4 330 332 333 331
4 332 334 335 333
4 334 336 337 335
4 336 338 339 337
4 338 340 341 339
4 340 342 343 341
4 342 344 345 343
4 344 346 347 345
4 346 348 349 347
4 348 350 351 349
4 352 353 354 355
4 355 354 356 357
4 357 356 358 359
4 359 358 360 361
4 361 360 362 363
4 363 362 364 365
4 365 364 366 367
4 367 366 368 369
4 369 368 370 371
4 371 370 372 373
4 373 372 374 375
4 375 374 376 377
4 377 376 378 379
4 379 378 380 381
4 381 380 382 383
4 383 382 384 385
4 385 384 386 387
4 387 386 388 389
4 389 388 390 391
4 391 390 392 393
4 393 392 394 395
4 395 394 396 397
4 397 396 398 399
4 399 398 400 401
4 401 400 402 403
4 403 402 404 405
4 405 404 406 407
4 407 406 408 409
4 409 408 410 411
4 411 410 412 413
4 413 412 414 415
4 415 414 416 417
4 417 416 418 419
4 419 418 420 421
4 421 420 422 423
4 423 422 424 425
4 425 424 426 427
4 427 426 428 429
4 429 428 430 431
4 431 430 432 433
4 433 432 434 435
4 435 434 436 437
4 437 436 438 439
4 439 438 440 441
4 441 440 442 443
4 443 442 444 445
4 445 444 446 447
4 447 446 448 449
4 449 448 450 451
4 451 450 351 350
4 352 452 453 353
4 452 454 455 453
4 454 456 457 455
4 456 458 459 457
4 458 460 461 459
4 460 462 463 461
4 462 464 465 463
4 464 466 467 465
4 466 468 469 467
4 468 470 471 469
4 470 472 473 471
4 472 474 475 473
4 474 476 477 475
4 476 478 479 477
4 478 480 481 479
4 480 482 483 481
4 482 484 485 483
4 484 486 487 485
4 486 488 489 487
4 488 490 491 489
4 490 492 493 491
4 492 494 495 493
4 494 496 497 495
4 496 498 499 497
4 498 500 501 499
4 500 502 503 501
4 502 504 505 503
4 504 506 507 505
4 506 508 509 507
4 508 510 511 509
4 510 512 513 511
4 512 514 515 513
4 514 516 517 515
4 516 518 519 517
4 518 520 521 519
4 520 522 523 521
4 522 524 525 523
4 524 526 527 525
4 526 528 529 527
4 528 530 531 529
4 530 532 533 531
4 532 534 535 533
4 534 536 537 535
4 536 538 539 537
4 538 540 541 539
4 540 542 543 541
4 542 544 545 543
4 544 546 547 545
4 546 548 549 547
4 548 550 551 549
4 550 552 553 551
4 552 554 555 553
4 554 556 557 555
4 556 558 559 557
4 558 560 561 559
4 560 562 563 561
4 562 564 565 563
4 564 566 567 565
4 566 568 569 567
4 568 570 571 569
4 570 572 573 571
4 572 574 575 573
4 574 576 577 575
4 576 578 579 577
4 578 580 581 579
4 580 582 583 581
4 582 584 585 583
4 584 586 587 585
4 586 588 589 587
4 588 590 591 589
4 590 592 593 591
4 592 594 595 593
4 594 596 597 595
4 596 598 599 597
4 598 600 601 599
4 600 602 603 601
4 602 604 605 603
4 604 606 607 605
4 606 608 609 607
4 608 610 611 609
4 610 612 613 611
4 612 614 615 613
4 614 616 617 615
4 616 618 619 617
4 618 620 621 619
4 620 622 623 621
4 622 624 625 623
4 624 626 627 625
4 626 628 629 627
4 628 630 631 629
4 630 632 633 631
4 632 634 635 633
4 634 636 637 635
4 636 638 639 637
4 638 640 641 639
4 640 642 643 641
4 642 644 645 643
4 644 646 647 645
4 646 648 649 647
4 648 650 651 649
POINT_DATA 652
FIELD attributes 1
U 3 652 float
2.46117 -0.0176235 0.00749796
1.23108 -0.00881121 0.00374898
1.23108 -0.00881121 0.00374898
2.46117 -0.0176235 0.00749796
0.00100038 1.24036e-06 0
0.00100038 1.24036e-06 0
0.00100141 2.707e-06 0
0.00100141 2.707e-06 0
0.000999873 4.30977e-06 0
0.000999873 4.30977e-06 0
0.000997411 3.34981e-06 0
0.000997411 3.34981e-06 0
0.000995168 3.1124e-07 0
0.000995168 3.1124e-07 0
0.000993958 -2.39394e-06 0
0.000993958 -2.39394e-06 0
0.000993927 -2.83524e-06 0
0.000993927 -2.83524e-06 0
0.000993734 -9.49486e-07 0
0.000993734 -9.49486e-07 0
0.000992043 1.76902e-06 0
0.000992043 1.76902e-06 0
0.000988645 3.78352e-06 0
0.000988645 3.78352e-06 0
0.000983734 4.55353e-06 0
0.000983734 4.55353e-06 0
0.000977671 4.40454e-06 0
0.000977671 4.40454e-06 0
0.000971174 3.90991e-06 0
0.000971174 3.90991e-06 0
0.00096483 3.46207e-06 0
0.00096483 3.46207e-06 0
0.000958689 3.18935e-06 0
0.000958689 3.18935e-06 0
0.000952597 3.06618e-06 0
0.000952597 3.06618e-06 0
0.00094651 3.02968e-06 0
0.00094651 3.02968e-06 0
0.000940439 3.03251e-06 0
0.000940439 3.03251e-06 0
0.000934354 3.05031e-06 0
0.000934354 3.05031e-06 0
0.000928226 3.07336e-06 0
0.000928226 3.07336e-06 0
0.000922051 3.09865e-06 0
0.000922051 3.09865e-06 0
0.000915831 3.12563e-06 0
0.000915831 3.12563e-06 0
0.000909562 3.15435e-06 0
0.000909562 3.15435e-06 0
0.000903238 3.18494e-06 0
0.000903238 3.18494e-06 0
0.000896855 3.21746e-06 0
0.000896855 3.21746e-06 0
0.00089041 3.25198e-06 0
0.00089041 3.25198e-06 0
0.000883899 3.28855e-06 0
0.000883899 3.28855e-06 0
0.000877316 3.3272e-06 0
0.000877316 3.3272e-06 0
0.000870659 3.36795e-06 0
0.000870659 3.36795e-06 0
0.000863923 3.41082e-06 0
0.000863923 3.41082e-06 0
0.000857103 3.45584e-06 0
0.000857103 3.45584e-06 0
0.000850195 3.50303e-06 0
0.000850195 3.50303e-06 0
0.000843196 3.5524e-06 0
0.000843196 3.5524e-06 0
0.000836099 3.60397e-06 0
0.000836099 3.60397e-06 0
0.000828902 3.65777e-06 0
0.000828902 3.65777e-06 0
0.000821599 3.7138e-06 0
0.000821599 3.7138e-06 0
0.000814186 3.7721e-06 0
0.000814186 3.7721e-06 0
0.000806657 3.83266e-06 0
0.000806657 3.83266e-06 0
0.000799009 3.8955e-06 0
0.000799009 3.8955e-06 0
0.000791237 3.96064e-06 0
0.000791237 3.96064e-06 0
0.000783336 4.02809e-06 0
0.000783336 4.02809e-06 0
0.0007753 4.09784e-06 0
0.0007753 4.09784e-06 0
0.000767126 4.16991e-06 0
0.000767126 4.16991e-06 0
0.000758809 4.24429e-06 0
0.000758809 4.24429e-06 0
0.000750342 4.32098e-06 0
0.000750342 4.32098e-06 0
0.000741723 4.39997e-06 0
0.000741723 4.39997e-06 0
0.000732945 4.48125e-06 0
0.000732945 4.48125e-06 0
0.000724003 4.5648e-06 0
0.000724003 4.5648e-06 0
0.000714894 4.6506e-06 0
0.000714894 4.6506e-06 0
0.000705612 4.73861e-06 0
0.000705612 4.73861e-06 0
0.000696152 4.82881e-06 0
0.000696152 4.82881e-06 0
0.000686509 4.92115e-06 0
0.000686509 4.92115e-06 0
0.000676679 5.01557e-06 0
0.000676679 5.01557e-06 0
0.000666658 5.11203e-06 0
0.000666658 5.11203e-06 0
0.00065644 5.21044e-06 0
0.00065644 5.21044e-06 0
0.000646021 5.31075e-06 0
0.000646021 5.31075e-06 0
0.000635397 5.41286e-06 0
0.000635397 5.41286e-06 0
0.000624564 5.51669e-06 0
0.000624564 5.51669e-06 0
0.000613518 5.62214e-06 0
0.000613518 5.62214e-06 0
0.000602254 5.72911e-06 0
0.000602254 5.72911e-06 0
0.00059077 5.8375e-06 0
0.00059077 5.8375e-06 0
0.000579063 5.9472e-06 0
0.000579063 5.9472e-06 0
0.000567128 6.05813e-06 0
0.000567128 6.05813e-06 0
0.000554964 6.17022e-06 0
0.000554964 6.17022e-06 0
0.000542568 6.28338e-06 0
0.000542568 6.28338e-06 0
0.000529939 6.39755e-06 0
0.000529939 6.39755e-06 0
0.000517074 6.51253e-06 0
0.000517074 6.51253e-06 0
0.000503974 6.62755e-06 0
0.000503974 6.62755e-06 0
0.000490637 6.7417e-06 0
0.000490637 6.7417e-06 0
0.000477062 6.85448e-06 0
0.000477062 6.85448e-06 0
0.000463251 6.96559e-06 0
0.000463251 6.96559e-06 0
0.000449203 7.07482e-06 0
0.000449203 7.07482e-06 0
0.000434921 7.18188e-06 0
0.000434921 7.18188e-06 0
0.000420405 7.28652e-06 0
0.000420405 7.28652e-06 0
0.00040566 7.38846e-06 0
0.00040566 7.38846e-06 0
0.000390688 7.48743e-06 0
0.000390688 7.48743e-06 0
0.000375493 7.58315e-06 0
0.000375493 7.58315e-06 0
0.000360079 7.67535e-06 0
0.000360079 7.67535e-06 0
0.000344453 7.7638e-06 0
0.000344453 7.7638e-06 0
0.000328619 7.84826e-06 0
0.000328619 7.84826e-06 0
0.000312583 7.92853e-06 0
0.000312583 7.92853e-06 0
0.000296354 8.00442e-06 0
0.000296354 8.00442e-06 0
0.000279939 8.0758e-06 0
0.000279939 8.0758e-06 0
0.000263346 8.14253e-06 0
0.000263346 8.14253e-06 0
0.000246583 8.20456e-06 0
0.000246583 8.20456e-06 0
0.00022966 8.26182e-06 0
0.00022966 8.26182e-06 0
0.000212587 8.31432e-06 0
0.000212587 8.31432e-06 0
0.000195374 8.36208e-06 0
0.000195374 8.36208e-06 0
0.000178031 8.40516e-06 0
0.000178031 8.40516e-06 0
0.000160569 8.44363e-06 0
0.000160569 8.44363e-06 0
0.000143 8.4776e-06 0
0.000143 8.4776e-06 0
0.000125335 8.5072e-06 0
0.000125335 8.5072e-06 0
0.000107586 8.53254e-06 0
0.000107586 8.53254e-06 0
8.97633e-05 8.55375e-06 0
8.97633e-05 8.55375e-06 0
7.18806e-05 8.57097e-06 0
7.18806e-05 8.57097e-06 0
5.39493e-05 8.58414e-06 0
5.39493e-05 8.58414e-06 0
3.59822e-05 8.5932e-06 0
3.59822e-05 8.5932e-06 0
1.7992e-05 8.59762e-06 0
1.7992e-05 8.59762e-06 0
8.99261e-06 8.59854e-06 0
8.99261e-06 8.59854e-06 0
9.35425e-06 1.80721e-05 0
9.35425e-06 1.80721e-05 0
9.59847e-06 3.73285e-05 0
9.59847e-06 3.73285e-05 0
9.46142e-06 5.64789e-05 0
9.46142e-06 5.64789e-05 0
9.45579e-06 7.53096e-05 0
9.45579e-06 7.53096e-05 0
9.49122e-06 9.42739e-05 0
9.49122e-06 9.42739e-05 0
9.5383e-06 0.000113319 0
9.5383e-06 0.000113319 0
9.59399e-06 0.000132463 0
9.59399e-06 0.000132463 0
9.65881e-06 0.000151727 0
9.65881e-06 0.000151727 0
9.73325e-06 0.00017113 0
9.73325e-06 0.00017113 0
9.81774e-06 0.000190692 0
9.81774e-06 0.000190692 0
9.91277e-06 0.000210433 0
9.91277e-06 0.000210433 0
1.00189e-05 0.000230374 0
1.00189e-05 0.000230374 0
1.01367e-05 0.000250539 0
1.01367e-05 0.000250539 0
1.02669e-05 0.000270952 0
1.02669e-05 0.000270952 0
1.04104e-05 0.000291638 0
1.04104e-05 0.000291638 0
1.0568e-05 0.000312624 0
1.0568e-05 0.000312624 0
1.07408e-05 0.00033394 0
1.07408e-05 0.00033394 0
1.09301e-05 0.000355617 0
1.09301e-05 0.000355617 0
1.11371e-05 0.00037769 0
1.11371e-05 0.00037769 0
1.13635e-05 0.000400195 0
1.13635e-05 0.000400195 0
1.1611e-05 0.000423173 0
1.1611e-05 0.000423173 0
1.18817e-05 0.000446668 0
1.18817e-05 0.000446668 0
1.2178e-05 0.000470728 0
1.2178e-05 0.000470728 0
1.25026e-05 0.000495408 0
1.25026e-05 0.000495408 0
1.28587e-05 0.000520766 0
1.28587e-05 0.000520766 0
1.32499e-05 0.000546869 0
1.32499e-05 0.000546869 0
1.36811e-05 0.000573793 0
1.36811e-05 0.000573793 0
1.41556e-05 0.000601617 0
1.41556e-05 0.000601617 0
1.46848e-05 0.000630445 0
1.46848e-05 0.000630445 0
1.52644e-05 0.000660373 0
1.52644e-05 0.000660373 0
1.59213e-05 0.000691535 0
1.59213e-05 0.000691535 0
1.66601e-05 0.000724089 0
1.66601e-05 0.000724089 0
1.74235e-05 0.000758124 0
1.74235e-05 0.000758124 0
1.85119e-05 0.000794041 0
1.85119e-05 0.000794041 0
1.92946e-05 0.000831659 0
1.92946e-05 0.000831659 0
2.08245e-05 0.000871975 0
2.08245e-05 0.000871975 0
2.19896e-05 0.000914251 0
2.19896e-05 0.000914251 0
2.38642e-05 0.000960173 0
2.38642e-05 0.000960173 0
2.53732e-05 0.00100945 0
2.53732e-05 0.00100945 0
2.80779e-05 0.0010624 0
2.80779e-05 0.0010624 0
3.1025e-05 0.00112079 0
3.1025e-05 0.00112079 0
3.54034e-05 0.00118682 0
3.54034e-05 0.00118682 0
3.55714e-05 0.001257 0
3.55714e-05 0.001257 0
4.91097e-05 0.0013412 0
4.91097e-05 0.0013412 0
4.94103e-05 0.00143463 0
4.94103e-05 0.00143463 0
7.57978e-05 0.00155312 0
7.57978e-05 0.00155312 0
7.71243e-05 0.00169549 0
7.71243e-05 0.00169549 0
0.000149431 0.00188805 0
0.000149431 0.00188805 0
0.000179784 0.00215542 0
0.000179784 0.00215542 0
0.000257062 0.00147238 0
0.000257062 0.00147238 0
-0.000227189 0.000414237 0
-0.000227189 0.000414237 0
-0.000854979 0.000298839 0
-0.000854979 0.000298839 0
-0.00151958 0.000471349 0
-0.00151958 0.000471349 0
-0.00250271 0.000446903 0
-0.00250271 0.000446903 0
-0.00309199 0.00026233 0
-0.00309199 0.00026233 0
-0.00334142 5.11624e-05 0
-0.00334142 5.11624e-05 0
-0.00317038 -0.000142487 0
-0.00317038 -0.000142487 0
-0.00271703 -0.000292796 0
-0.00271703 -0.000292796 0
-0.00204454 -0.000383154 0
-0.00204454 -0.000383154 0
-0.00128053 -0.000390042 0
-0.00128053 -0.000390042 0
-0.000537875 -0.000328886 0
-0.000537875 -0.000328886 0
7.91591e-05 -0.000258589 0
7.91591e-05 -0.000258589 0
0.000565567 -0.000192925 0
0.000565567 -0.000192925 0
0.000906105 -0.000132364 0
0.000906105 -0.000132364 0
0.00114981 -9.47327e-05 0
0.00114981 -9.47327e-05 0
0.00133068 -7.14483e-05 0
0.00133068 -7.14483e-05 0
0.00148103 -5.49474e-05 0
0.00148103 -5.49474e-05 0
0.00161018 -4.09732e-05 0
0.00161018 -4.09732e-05 0
0.00171501 -3.59196e-05 0
0.00171501 -3.59196e-05 0
0.00178437 -3.66108e-05 0
0.00178437 -3.66108e-05 0
0.00183018 -4.81928e-05 0
0.00183018 -4.81928e-05 0
0.00186568 -5.14302e-05 0
0.00186568 -5.14302e-05 0
0.00191563 -5.94512e-05 0
0.00191563 -5.94512e-05 0
0.00198395 -5.52902e-05 0
0.00198395 -5.52902e-05 0
0.00112141 -4.90831e-05 0
0.00112141 -4.90831e-05 0
5.88133e-06 -6.16631e-06 0
5.88133e-06 -6.16631e-06 0
5.87914e-06 -1.2339e-05 0
5.87914e-06 -1.2339e-05 0
5.87053e-06 -2.46773e-05 0
5.87053e-06 -2.46773e-05 0
5.85403e-06 -3.69955e-05 0
5.85403e-06 -3.69955e-05 0
5.83006e-06 -4.92818e-05 0
5.83006e-06 -4.92818e-05 0
5.7982e-06 -6.15236e-05 0
5.7982e-06 -6.15236e-05 0
5.75783e-06 -7.37076e-05 0
5.75783e-06 -7.37076e-05 0
5.70805e-06 -8.58189e-05 0
5.70805e-06 -8.58189e-05 0
5.64771e-06 -9.78405e-05 0
5.64771e-06 -9.78405e-05 0
5.57542e-06 -0.000109753 0
5.57542e-06 -0.000109753 0
5.4895e-06 -0.000121535 0
5.4895e-06 -0.000121535 0
5.38796e-06 -0.000133159 0
5.38796e-06 -0.000133159 0
5.2684e-06 -0.000144597 0
5.2684e-06 -0.000144597 0
5.12799e-06 -0.000155812 0
5.12799e-06 -0.000155812 0
4.96335e-06 -0.000166764 0
4.96335e-06 -0.000166764 0
4.77053e-06 -0.000177403 0
4.77053e-06 -0.000177403 0
4.54479e-06 -0.000187671 0
4.54479e-06 -0.000187671 0
4.28055e-06 -0.0001975 0
4.28055e-06 -0.0001975 0
3.97119e-06 -0.000206809 0
3.97119e-06 -0.000206809 0
3.60879e-06 -0.0002155 0
3.60879e-06 -0.0002155 0
3.1839e-06 -0.000223457 0
3.1839e-06 -0.000223457 0
2.68503e-06 -0.00023054 0
2.68503e-06 -0.00023054 0
2.09803e-06 -0.000236581 0
2.09803e-06 -0.000236581 0
1.40479e-06 -0.000241375 0
1.40479e-06 -0.000241375 0
5.8089e-07 -0.000244672 0
5.8089e-07 -0.000244672 0
-4.08839e-07 -0.000246166 0
-4.08839e-07 -0.000246166 0
-1.60377e-06 -0.000245466 0
-1.60377e-06 -0.000245466 0
-3.04685e-06 -0.000242081 0
-3.04685e-06 -0.000242081 0
-4.79791e-06 -0.000235416 0
-4.79791e-06 -0.000235416 0
-6.94437e-06 -0.000224721 0
-6.94437e-06 -0.000224721 0
-9.61413e-06 -0.000209034 0
-9.61413e-06 -0.000209034 0
-1.29781e-05 -0.0001871 0
-1.29781e-05 -0.0001871 0
-1.72315e-05 -0.000157257 0
-1.72315e-05 -0.000157257 0
-2.25988e-05 -0.000117998 0
-2.25988e-05 -0.000117998 0
-2.90497e-05 -6.48393e-05 0
-2.90497e-05 -6.48393e-05 0
-3.75812e-05 1.37311e-06 0
-3.75812e-05 1.37311e-06 0
-4.76174e-05 9.10016e-05 0
-4.76174e-05 9.10016e-05 0
-6.17199e-05 0.000200028 0
-6.17199e-05 0.000200028 0
-7.43876e-05 0.000347207 0
-7.43876e-05 0.000347207 0
-9.57131e-05 0.000516009 0
-9.57131e-05 0.000516009 0
-0.000120902 0.000735854 0
-0.000120902 0.000735854 0
-0.000124905 0.000990673 0
-0.000124905 0.000990673 0
-0.000116637 0.0012493 0
-0.000116637 0.0012493 0
-9.7007e-05 0.00150753 0
-9.7007e-05 0.00150753 0
-5.59203e-05 0.00170933 0
-5.59203e-05 0.00170933 0
3.23428e-05 0.00177153 0
3.23428e-05 0.00177153 0
0.000148055 0.00163347 0
0.000148055 0.00163347 0
0.000233588 0.00125469 0
0.000233588 0.00125469 0
0.000251058 0.000783931 0
0.000251058 0.000783931 0
0.000232409 0.000258445 0
0.000232409 0.000258445 0
1.23942e-05 -6.41676e-06 0
1.23942e-05 -6.41676e-06 0
2.56252e-05 -6.57993e-06 0
2.56252e-05 -6.57993e-06 0
3.87518e-05 -6.47936e-06 0
3.87518e-05 -6.47936e-06 0
5.16456e-05 -6.47284e-06 0
5.16456e-05 -6.47284e-06 0
6.46321e-05 -6.48924e-06 0
6.46321e-05 -6.48924e-06 0
7.76521e-05 -6.50944e-06 0
7.76521e-05 -6.50944e-06 0
9.07112e-05 -6.53134e-06 0
9.07112e-05 -6.53134e-06 0
0.000103815 -6.5544e-06 0
0.000103815 -6.5544e-06 0
0.000116966 -6.57793e-06 0
0.000116966 -6.57793e-06 0
0.000130164 -6.60111e-06 0
0.000130164 -6.60111e-06 0
0.000143407 -6.62312e-06 0
0.000143407 -6.62312e-06 0
0.000156692 -6.64315e-06 0
0.000156692 -6.64315e-06 0
0.000170015 -6.66041e-06 0
0.000170015 -6.66041e-06 0
0.000183368 -6.67415e-06 0
0.000183368 -6.67415e-06 0
0.000196745 -6.6837e-06 0
0.000196745 -6.6837e-06 0
0.000210137 -6.68844e-06 0
0.000210137 -6.68844e-06 0
0.000223532 -6.68785e-06 0
0.000223532 -6.68785e-06 0
0.000236921 -6.68148e-06 0
0.000236921 -6.68148e-06 0
0.00025029 -6.66899e-06 0
0.00025029 -6.66899e-06 0
0.000263629 -6.6501e-06 0
0.000263629 -6.6501e-06 0
0.000276923 -6.62465e-06 0
0.000276923 -6.62465e-06 0
0.000290159 -6.59254e-06 0
0.000290159 -6.59254e-06 0
0.000303324 -6.55377e-06 0
0.000303324 -6.55377e-06 0
0.000316405 -6.50841e-06 0
0.000316405 -6.50841e-06 0
0.000329388 -6.45658e-06 0
0.000329388 -6.45658e-06 0
0.000342262 -6.3985e-06 0
0.000342262 -6.3985e-06 0
0.000355013 -6.3344e-06 0
0.000355013 -6.3344e-06 0
0.000367629 -6.26459e-06 0
0.000367629 -6.26459e-06 0
0.000380101 -6.18939e-06 0
0.000380101 -6.18939e-06 0
0.000392416 -6.10916e-06 0
0.000392416 -6.10916e-06 0
0.000404566 -6.02427e-06 0
0.000404566 -6.02427e-06 0
0.000416542 -5.93514e-06 0
0.000416542 -5.93514e-06 0
0.000428335 -5.84215e-06 0
0.000428335 -5.84215e-06 0
0.000439938 -5.7457e-06 0
0.000439938 -5.7457e-06 0
0.000451344 -5.64621e-06 0
0.000451344 -5.64621e-06 0
0.000462549 -5.54406e-06 0
0.000462549 -5.54406e-06 0
0.000473547 -5.43964e-06 0
0.000473547 -5.43964e-06 0
0.000484333 -5.33332e-06 0
0.000484333 -5.33332e-06 0
0.000494905 -5.22544e-06 0
0.000494905 -5.22544e-06 0
0.000505259 -5.11636e-06 0
0.000505259 -5.11636e-06 0
0.000515394 -5.00638e-06 0
0.000515394 -5.00638e-06 0
0.000525308 -4.8958e-06 0
0.000525308 -4.8958e-06 0
0.000535 -4.7849e-06 0
0.000535 -4.7849e-06 0
0.000544469 -4.67394e-06 0
0.000544469 -4.67394e-06 0
0.000553717 -4.56315e-06 0
0.000553717 -4.56315e-06 0
0.000562743 -4.45275e-06 0
0.000562743 -4.45275e-06 0
0.000571548 -4.34293e-06 0
0.000571548 -4.34293e-06 0
0.000580134 -4.23387e-06 0
0.000580134 -4.23387e-06 0
0.000588503 -4.12573e-06 0
0.000588503 -4.12573e-06 0
0.000596656 -4.01865e-06 0
0.000596656 -4.01865e-06 0
0.000604595 -3.91274e-06 0
0.000604595 -3.91274e-06 0
0.000612324 -3.80813e-06 0
0.000612324 -3.80813e-06 0
0.000619845 -3.70491e-06 0
0.000619845 -3.70491e-06 0
0.00062716 -3.60314e-06 0
0.00062716 -3.60314e-06 0
0.000634274 -3.50291e-06 0
0.000634274 -3.50291e-06 0
0.000641188 -3.40426e-06 0
0.000641188 -3.40426e-06 0
0.000647906 -3.30724e-06 0
0.000647906 -3.30724e-06 0
0.000654431 -3.21189e-06 0
0.000654431 -3.21189e-06 0
0.000660767 -3.11823e-06 0
0.000660767 -3.11823e-06 0
0.000666918 -3.02627e-06 0
0.000666918 -3.02627e-06 0
0.000672886 -2.93603e-06 0
0.000672886 -2.93603e-06 0
0.000678675 -2.8475e-06 0
0.000678675 -2.8475e-06 0
0.000684288 -2.7607e-06 0
0.000684288 -2.7607e-06 0
0.00068973 -2.67559e-06 0
0.00068973 -2.67559e-06 0
0.000695003 -2.59218e-06 0
0.000695003 -2.59218e-06 0
0.00070011 -2.51045e-06 0
0.00070011 -2.51045e-06 0
0.000705055 -2.43036e-06 0
0.000705055 -2.43036e-06 0
0.000709842 -2.3519e-06 0
0.000709842 -2.3519e-06 0
0.000714473 -2.27503e-06 0
0.000714473 -2.27503e-06 0
0.000718952 -2.19973e-06 0
0.000718952 -2.19973e-06 0
0.000723282 -2.12596e-06 0
0.000723282 -2.12596e-06 0
0.000727466 -2.05369e-06 0
0.000727466 -2.05369e-06 0
0.000731506 -1.98287e-06 0
0.000731506 -1.98287e-06 0
0.000735406 -1.91348e-06 0
0.000735406 -1.91348e-06 0
0.000739168 -1.84546e-06 0
0.000739168 -1.84546e-06 0
0.000742796 -1.77878e-06 0
0.000742796 -1.77878e-06 0
0.000746291 -1.7134e-06 0
0.000746291 -1.7134e-06 0
0.000749657 -1.64928e-06 0
0.000749657 -1.64928e-06 0
0.000752896 -1.58636e-06 0
0.000752896 -1.58636e-06 0
0.00075601 -1.52461e-06 0
0.00075601 -1.52461e-06 0
0.000759001 -1.46399e-06 0
0.000759001 -1.46399e-06 0
0.000761873 -1.40445e-06 0
0.000761873 -1.40445e-06 0
0.000764626 -1.34594e-06 0
0.000764626 -1.34594e-06 0
0.000767262 -1.28843e-06 0
0.000767262 -1.28843e-06 0
0.000769785 -1.23186e-06 0
0.000769785 -1.23186e-06 0
0.000772196 -1.17621e-06 0
0.000772196 -1.17621e-06 0
0.000774496 -1.12139e-06 0
0.000774496 -1.12139e-06 0
0.000776686 -1.06745e-06 0
0.000776686 -1.06745e-06 0
0.000778771 -1.01416e-06 0
0.000778771 -1.01416e-06 0
0.000780748 -9.61858e-07 0
0.000780748 -9.61858e-07 0
0.000782623 -9.0975e-07 0
0.000782623 -9.0975e-07 0
0.00078439 -8.59087e-07 0
0.00078439 -8.59087e-07 0
0.000786066 -8.07905e-07 0
0.000786066 -8.07905e-07 0
0.000787622 -7.58694e-07 0
0.000787622 -7.58694e-07 0
0.000789111 -7.08173e-07 0
0.000789111 -7.08173e-07 0
0.000790448 -6.60905e-07 0
0.000790448 -6.60905e-07 0
0.000791774 -6.09356e-07 0
0.000791774 -6.09356e-07 0
0.000792859 -5.65806e-07 0
0.000792859 -5.65806e-07 0
0.994388 -0.000585146 0
0.994388 -0.000585146 0
1.98798 -0.00116974 0
1.98798 -0.00116974 0
