# vtk DataFile Version 2.0
sampleSurface
ASCII
DATASET POLYDATA
POINTS 652 double
0 0 0
0.02 0 0
0.02 0 0.1
0 0 0.1
0.04 0 0
0.04 0 0.1
0.06 0 0
0.06 0 0.1
0.08 0 0
0.08 0 0.1
0.1 0 0
0.1 0 0.1
0.12 0 0
0.12 0 0.1
0.14 0 0
0.14 0 0.1
0.16 0 0
0.16 0 0.1
0.18 0 0
0.18 0 0.1
0.2 0 0
0.2 0 0.1
0.22 0 0
0.22 0 0.1
0.24 0 0
0.24 0 0.1
0.26 0 0
0.26 0 0.1
0.28 0 0
0.28 0 0.1
0.3 0 0
0.3 0 0.1
0.32 0 0
0.32 0 0.1
0.34 0 0
0.34 0 0.1
0.36 0 0
0.36 0 0.1
0.38 0 0
0.38 0 0.1
0.4 0 0
0.4 0 0.1
0.42 0 0
0.42 0 0.1
0.44 0 0
0.44 0 0.1
0.46 0 0
0.46 0 0.1
0.48 0 0
0.48 0 0.1
0.5 0 0
0.5 0 0.1
0.52 0 0
0.52 0 0.1
0.54 0 0
0.54 0 0.1
0.56 0 0
0.56 0 0.1
0.58 0 0
0.58 0 0.1
0.6 0 0
0.6 0 0.1
0.62 0 0
0.62 0 0.1
0.64 0 0
0.64 0 0.1
0.66 0 0
0.66 0 0.1
0.68 0 0
0.68 0 0.1
0.7 0 0
0.7 0 0.1
0.72 0 0
0.72 0 0.1
0.74 0 0
0.74 0 0.1
0.76 0 0
0.76 0 0.1
0.78 0 0
0.78 0 0.1
0.8 0 0
0.8 0 0.1
0.82 0 0
0.82 0 0.1
0.84 0 0
0.84 0 0.1
0.86 0 0
0.86 0 0.1
0.88 0 0
0.88 0 0.1
0.9 0 0
0.9 0 0.1
0.92 0 0
0.92 0 0.1
0.94 0 0
0.94 0 0.1
0.96 0 0
0.96 0 0.1
0.98 0 0
0.98 0 0.1
1 0 0
1 0 0.1
1.02 0 0
1.02 0 0.1
1.04 0 0
1.04 0 0.1
1.06 0 0
1.06 0 0.1
1.08 0 0
1.08 0 0.1
1.1 0 0
1.1 0 0.1
1.12 0 0
1.12 0 0.1
1.14 0 0
1.14 0 0.1
1.16 0 0
1.16 0 0.1
1.18 0 0
1.18 0 0.1
1.2 0 0
1.2 0 0.1
1.22 0 0
1.22 0 0.1
1.24 0 0
1.24 0 0.1
1.26 0 0
1.26 0 0.1
1.28 0 0
1.28 0 0.1
1.3 0 0
1.3 0 0.1
1.32 0 0
1.32 0 0.1
1.34 0 0
1.34 0 0.1
1.36 0 0
1.36 0 0.1
1.38 0 0
1.38 0 0.1
1.4 0 0
1.4 0 0.1
1.42 0 0
1.42 0 0.1
1.44 0 0
1.44 0 0.1
1.46 0 0
1.46 0 0.1
1.48 0 0
1.48 0 0.1
1.5 0 0
1.5 0 0.1
1.52 0 0
1.52 0 0.1
1.54 0 0
1.54 0 0.1
1.56 0 0
1.56 0 0.1
1.58 0 0
1.58 0 0.1
1.6 0 0
1.6 0 0.1
1.62 0 0
1.62 0 0.1
1.64 0 0
1.64 0 0.1
1.66 0 0
1.66 0 0.1
1.68 0 0
1.68 0 0.1
1.7 0 0
1.7 0 0.1
1.72 0 0
1.72 0 0.1
1.74 0 0
1.74 0 0.1
1.76 0 0
1.76 0 0.1
1.78 0 0
1.78 0 0.1
1.8 0 0
1.8 0 0.1
1.82 0 0
1.82 0 0.1
1.84 0 0
1.84 0 0.1
1.86 0 0
1.86 0 0.1
1.88 0 0
1.88 0 0.1
1.9 0 0
1.9 0 0.1
1.92 0 0
1.92 0 0.1
1.94 0 0
1.94 0 0.1
1.96 0 0
1.96 0 0.1
1.98 0 0
1.98 0 0.1
2 0 0
2 0 0.1
2 0.02 0
2 0.02 0.1
2 0.04 0
2 0.04 0.1
2 0.06 0
2 0.06 0.1
2 0.08 0
2 0.08 0.1
2 0.1 0
2 0.1 0.1
2 0.12 0
2 0.12 0.1
2 0.14 0
2 0.14 0.1
2 0.16 0
2 0.16 0.1
2 0.18 0
2 0.18 0.1
2 0.2 0
2 0.2 0.1
2 0.22 0
2 0.22 0.1
2 0.24 0
2 0.24 0.1
2 0.26 0
2 0.26 0.1
2 0.28 0
2 0.28 0.1
2 0.3 0
2 0.3 0.1
2 0.32 0
2 0.32 0.1
2 0.34 0
2 0.34 0.1
2 0.36 0
2 0.36 0.1
2 0.38 0
2 0.38 0.1
2 0.4 0
2 0.4 0.1
2 0.42 0
2 0.42 0.1
2 0.44 0
2 0.44 0.1
2 0.46 0
2 0.46 0.1
2 0.48 0
2 0.48 0.1
2 0.5 0
2 0.5 0.1
2 0.52 0
2 0.52 0.1
2 0.54 0
2 0.54 0.1
2 0.56 0
2 0.56 0.1
2 0.58 0
2 0.58 0.1
2 0.6 0
2 0.6 0.1
2 0.62 0
2 0.62 0.1
2 0.64 0
2 0.64 0.1
2 0.66 0
2 0.66 0.1
2 0.68 0
2 0.68 0.1
2 0.7 0
2 0.7 0.1
2 0.72 0
2 0.72 0.1
2 0.74 0
2 0.74 0.1
2 0.76 0
2 0.76 0.1
2 0.78 0
2 0.78 0.1
2 0.8 0
2 0.8 0.1
2 0.82 0
2 0.82 0.1
2 0.84 0
2 0.84 0.1
2 0.86 0
2 0.86 0.1
2 0.88 0
2 0.88 0.1
2 0.9 0
2 0.9 0.1
2 0.92 0
2 0.92 0.1
2 0.94 0
2 0.94 0.1
2 0.96 0
2 0.96 0.1
2 0.98 0
2 0.98 0.1
2 1 0
2 1 0.1
2.02 1 0
2.02 1 0.1
2.04 1 0
2.04 1 0.1
2.06 1 0
2.06 1 0.1
2.08 1 0
2.08 1 0.1
2.1 1 0
2.1 1 0.1
2.12 1 0
2.12 1 0.1
2.14 1 0
2.14 1 0.1
2.16 1 0
2.16 1 0.1
2.18 1 0
2.18 1 0.1
2.2 1 0
2.2 1 0.1
2.22 1 0
2.22 1 0.1
2.24 1 0
2.24 1 0.1
2.26 1 0
2.26 1 0.1
2.28 1 0
2.28 1 0.1
2.3 1 0
2.3 1 0.1
2.32 1 0
2.32 1 0.1
2.34 1 0
2.34 1 0.1
2.36 1 0
2.36 1 0.1
2.38 1 0
2.38 1 0.1
2.4 1 0
2.4 1 0.1
2.42 1 0
2.42 1 0.1
2.44 1 0
2.44 1 0.1
2.46 1 0
2.46 1 0.1
2.48 1 0
2.48 1 0.1
2.5 1 0
2.5 1 0.1
2.5 0 0
2.5 0 0.1
2.5 0.02 0.1
2.5 0.02 0
2.5 0.04 0.1
2.5 0.04 0
2.5 0.06 0.1
2.5 0.06 0
2.5 0.08 0.1
2.5 0.08 0
2.5 0.1 0.1
2.5 0.1 0
2.5 0.12 0.1
2.5 0.12 0
2.5 0.14 0.1
2.5 0.14 0
2.5 0.16 0.1
2.5 0.16 0
2.5 0.18 0.1
2.5 0.18 0
2.5 0.2 0.1
2.5 0.2 0
2.5 0.22 0.1
2.5 0.22 0
2.5 0.24 0.1
2.5 0.24 0
2.5 0.26 0.1
2.5 0.26 0
2.5 0.28 0.1
2.5 0.28 0
2.5 0.3 0.1
2.5 0.3 0
2.5 0.32 0.1
2.5 0.32 0
2.5 0.34 0.1
2.5 0.34 0
2.5 0.36 0.1
2.5 0.36 0
2.5 0.38 0.1
2.5 0.38 0
2.5 0.4 0.1
2.5 0.4 0
2.5 0.42 0.1
2.5 0.42 0
2.5 0.44 0.1
2.5 0.44 0
2.5 0.46 0.1
2.5 0.46 0
2.5 0.48 0.1
2.5 0.48 0
2.5 0.5 0.1
2.5 0.5 0
2.5 0.52 0.1
2.5 0.52 0
2.5 0.54 0.1
2.5 0.54 0
2.5 0.56 0.1
2.5 0.56 0
2.5 0.58 0.1
2.5 0.58 0
2.5 0.6 0.1
2.5 0.6 0
2.5 0.62 0.1
2.5 0.62 0
2.5 0.64 0.1
2.5 0.64 0
2.5 0.66 0.1
2.5 0.66 0
2.5 0.68 0.1
2.5 0.68 0
2.5 0.7 0.1
2.5 0.7 0
2.5 0.72 0.1
2.5 0.72 0
2.5 0.74 0.1
2.5 0.74 0
2.5 0.76 0.1
2.5 0.76 0
2.5 0.78 0.1
2.5 0.78 0
2.5 0.8 0.1
2.5 0.8 0
2.5 0.82 0.1
2.5 0.82 0
2.5 0.84 0.1
2.5 0.84 0
2.5 0.86 0.1
2.5 0.86 0
2.5 0.88 0.1
2.5 0.88 0
2.5 0.9 0.1
2.5 0.9 0
2.5 0.92 0.1
2.5 0.92 0
2.5 0.94 0.1
2.5 0.94 0
2.5 0.96 0.1
2.5 0.96 0
2.5 0.98 0.1
2.5 0.98 0
2.52 0 0
2.52 0 0.1
2.54 0 0
2.54 0 0.1
2.56 0 0
2.56 0 0.1
2.58 0 0
2.58 0 0.1
2.6 0 0
2.6 0 0.1
2.62 0 0
2.62 0 0.1
2.64 0 0
2.64 0 0.1
2.66 0 0
2.66 0 0.1
2.68 0 0
2.68 0 0.1
2.7 0 0
2.7 0 0.1
2.72 0 0
2.72 0 0.1
2.74 0 0
2.74 0 0.1
2.76 0 0
2.76 0 0.1
2.78 0 0
2.78 0 0.1
2.8 0 0
2.8 0 0.1
2.82 0 0
2.82 0 0.1
2.84 0 0
2.84 0 0.1
2.86 0 0
2.86 0 0.1
2.88 0 0
2.88 0 0.1
2.9 0 0
2.9 0 0.1
2.92 0 0
2.92 0 0.1
2.94 0 0
2.94 0 0.1
2.96 0 0
2.96 0 0.1
2.98 0 0
2.98 0 0.1
3 0 0
3 0 0.1
3.02 0 0
3.02 0 0.1
3.04 0 0
3.04 0 0.1
3.06 0 0
3.06 0 0.1
3.08 0 0
3.08 0 0.1
3.1 0 0
3.1 0 0.1
3.12 0 0
3.12 0 0.1
3.14 0 0
3.14 0 0.1
3.16 0 0
3.16 0 0.1
3.18 0 0
3.18 0 0.1
3.2 0 0
3.2 0 0.1
3.22 0 0
3.22 0 0.1
3.24 0 0
3.24 0 0.1
3.26 0 0
3.26 0 0.1
3.28 0 0
3.28 0 0.1
3.3 0 0
3.3 0 0.1
3.32 0 0
3.32 0 0.1
3.34 0 0
3.34 0 0.1
3.36 0 0
3.36 0 0.1
3.38 0 0
3.38 0 0.1
3.4 0 0
3.4 0 0.1
3.42 0 0
3.42 0 0.1
3.44 0 0
3.44 0 0.1
3.46 0 0
3.46 0 0.1
3.48 0 0
3.48 0 0.1
3.5 0 0
3.5 0 0.1
3.52 0 0
3.52 0 0.1
3.54 0 0
3.54 0 0.1
3.56 0 0
3.56 0 0.1
3.58 0 0
3.58 0 0.1
3.6 0 0
3.6 0 0.1
3.62 0 0
3.62 0 0.1
3.64 0 0
3.64 0 0.1
3.66 0 0
3.66 0 0.1
3.68 0 0
3.68 0 0.1
3.7 0 0
3.7 0 0.1
3.72 0 0
3.72 0 0.1
3.74 0 0
3.74 0 0.1
3.76 0 0
3.76 0 0.1
3.78 0 0
3.78 0 0.1
3.8 0 0
3.8 0 0.1
3.82 0 0
3.82 0 0.1
3.84 0 0
3.84 0 0.1
3.86 0 0
3.86 0 0.1
3.88 0 0
3.88 0 0.1
3.9 0 0
3.9 0 0.1
3.92 0 0
3.92 0 0.1
3.94 0 0
3.94 0 0.1
3.96 0 0
3.96 0 0.1
3.98 0 0
3.98 0 0.1
4 0 0
4 0 0.1
4.02 0 0
4.02 0 0.1
4.04 0 0
4.04 0 0.1
4.06 0 0
4.06 0 0.1
4.08 0 0
4.08 0 0.1
4.1 0 0
4.1 0 0.1
4.12 0 0
4.12 0 0.1
4.14 0 0
4.14 0 0.1
4.16 0 0
4.16 0 0.1
4.18 0 0
4.18 0 0.1
4.2 0 0
4.2 0 0.1
4.22 0 0
4.22 0 0.1
4.24 0 0
4.24 0 0.1
4.26 0 0
4.26 0 0.1
4.28 0 0
4.28 0 0.1
4.3 0 0
4.3 0 0.1
4.32 0 0
4.32 0 0.1
4.34 0 0
4.34 0 0.1
4.36 0 0
4.36 0 0.1
4.38 0 0
4.38 0 0.1
4.4 0 0
4.4 0 0.1
4.42 0 0
4.42 0 0.1
4.44 0 0
4.44 0 0.1
4.46 0 0
4.46 0 0.1
4.48 0 0
4.48 0 0.1
4.5 0 0
4.5 0 0.1

POLYGONS 325 1625
4 0 1 2 3
4 1 4 5 2
4 4 6 7 5
4 6 8 9 7
4 8 10 11 9
4 10 12 13 11
4 12 14 15 13
4 14 16 17 15
4 16 18 19 17
4 18 20 21 19
4 20 22 23 21
4 22 24 25 23
4 24 26 27 25
4 26 28 29 27
4 28 30 31 29
4 30 32 33 31
4 32 34 35 33
4 34 36 37 35
4 36 38 39 37
4 38 40 41 39
4 40 42 43 41
4 42 44 45 43
4 44 46 47 45
4 46 48 49 47
4 48 50 51 49
4 50 52 53 51
4 52 54 55 53
4 54 56 57 55
4 56 58 59 57
4 58 60 61 59
4 60 62 63 61
4 62 64 65 63
4 64 66 67 65
4 66 68 69 67
4 68 70 71 69
4 70 72 73 71
4 72 74 75 73
4 74 76 77 75
4 76 78 79 77
4 78 80 81 79
4 80 82 83 81
4 82 84 85 83
4 84 86 87 85
4 86 88 89 87
4 88 90 91 89
4 90 92 93 91
4 92 94 95 93
4 94 96 97 95
4 96 98 99 97
4 98 100 101 99
4 100 102 103 101
4 102 104 105 103
4 104 106 107 105
4 106 108 109 107
4 108 110 111 109
4 110 112 113 111
4 112 114 115 113
4 114 116 117 115
4 116 118 119 117
4 118 120 121 119
4 120 122 123 121
4 122 124 125 123
4 124 126 127 125
4 126 128 129 127
4 128 130 131 129
4 130 132 133 131
4 132 134 135 133
4 134 136 137 135
4 136 138 139 137
4 138 140 141 139
4 140 142 143 141
4 142 144 145 143
4 144 146 147 145
4 146 148 149 147
4 148 150 151 149
4 150 152 153 151
4 152 154 155 153
4 154 156 157 155
4 156 158 159 157
4 158 160 161 159
4 160 162 163 161
4 162 164 165 163
4 164 166 167 165
4 166 168 169 167
4 168 170 171 169
4 170 172 173 171
4 172 174 175 173
4 174 176 177 175
4 176 178 179 177
4 178 180 181 179
4 180 182 183 181
4 182 184 185 183
4 184 186 187 185
4 186 188 189 187
4 188 190 191 189
4 190 192 193 191
4 192 194 195 193
4 194 196 197 195
4 196 198 199 197
4 198 200 201 199
4 200 202 203 201
4 202 204 205 203
4 204 206 207 205
4 206 208 209 207
4 208 210 211 209
4 210 212 213 211
4 212 214 215 213
4 214 216 217 215
4 216 218 219 217
4 218 220 221 219
4 220 222 223 221
4 222 224 225 223
4 224 226 227 225
4 226 228 229 227
4 228 230 231 229
4 230 232 233 231
4 232 234 235 233
4 234 236 237 235
4 236 238 239 237
4 238 240 241 239
4 240 242 243 241
4 242 244 245 243
4 244 246 247 245
4 246 248 249 247
4 248 250 251 249
4 250 252 253 251
4 252 254 255 253
4 254 256 257 255
4 256 258 259 257
4 258 260 261 259
4 260 262 263 261
4 262 264 265 263
4 264 266 267 265
4 266 268 269 267
4 268 270 271 269
4 270 272 273 271
4 272 274 275 273
4 274 276 277 275
4 276 278 279 277
4 278 280 281 279
4 280 282 283 281
4 282 284 285 283
4 284 286 287 285
4 286 288 289 287
4 288 290 291 289
4 290 292 293 291
4 292 294 295 293
4 294 296 297 295
4 296 298 299 297
4 298 300 301 299
4 300 302 303 301
4 302 304 305 303
4 304 306 307 305
4 306 308 309 307
4 308 310 311 309
4 310 312 313 311
4 312 314 315 313
4 314 316 317 315
4 316 318 319 317
4 318 320 321 319
4 320 322 323 321
4 322 324 325 323
4 324 326 327 325
4 326 328 329 327
4 328 330 331 329
4 330 332 333 331
4 332 334 335 333
4 334 336 337 335
4 336 338 339 337
4 338 340 341 339
4 340 342 343 341
4 342 344 345 343
4 344 346 347 345
4 346 348 349 347
4 348 350 351 349
4 352 353 354 355
4 355 354 356 357
4 357 356 358 359
4 359 358 360 361
4 361 360 362 363
4 363 362 364 365
4 365 364 366 367
4 367 366 368 369
4 369 368 370 371
4 371 370 372 373
4 373 372 374 375
4 375 374 376 377
4 377 376 378 379
4 379 378 380 381
4 381 380 382 383
4 383 382 384 385
4 385 384 386 387
4 387 386 388 389
4 389 388 390 391
4 391 390 392 393
4 393 392 394 395
4 395 394 396 397
4 397 396 398 399
4 399 398 400 401
4 401 400 402 403
4 403 402 404 405
4 405 404 406 407
4 407 406 408 409
4 409 408 410 411
4 411 410 412 413
4 413 412 414 415
4 415 414 416 417
4 417 416 418 419
4 419 418 420 421
4 421 420 422 423
4 423 422 424 425
4 425 424 426 427
4 427 426 428 429
4 429 428 430 431
4 431 430 432 433
4 433 432 434 435
4 435 434 436 437
4 437 436 438 439
4 439 438 440 441
4 441 440 442 443
4 443 442 444 445
4 445 444 446 447
4 447 446 448 449
4 449 448 450 451
4 451 450 351 350
4 352 452 453 353
4 452 454 455 453
4 454 456 457 455
4 456 458 459 457
4 458 460 461 459
4 460 462 463 461
4 462 464 465 463
4 464 466 467 465
4 466 468 469 467
4 468 470 471 469
4 470 472 473 471
4 472 474 475 473
4 474 476 477 475
4 476 478 479 477
4 478 480 481 479
4 480 482 483 481
4 482 484 485 483
4 484 486 487 485
4 486 488 489 487
4 488 490 491 489
4 490 492 493 491
4 492 494 495 493
4 494 496 497 495
4 496 498 499 497
4 498 500 501 499
4 500 502 503 501
4 502 504 505 503
4 504 506 507 505
4 506 508 509 507
4 508 510 511 509
4 510 512 513 511
4 512 514 515 513
4 514 516 517 515
4 516 518 519 517
4 518 520 521 519
4 520 522 523 521
4 522 524 525 523
4 524 526 527 525
4 526 528 529 527
4 528 530 531 529
4 530 532 533 531
4 532 534 535 533
4 534 536 537 535
4 536 538 539 537
4 538 540 541 539
4 540 542 543 541
4 542 544 545 543
4 544 546 547 545
4 546 548 549 547
4 548 550 551 549
4 550 552 553 551
4 552 554 555 553
4 554 556 557 555
4 556 558 559 557
4 558 560 561 559
4 560 562 563 561
4 562 564 565 563
4 564 566 567 565
4 566 568 569 567
4 568 570 571 569
4 570 572 573 571
4 572 574 575 573
4 574 576 577 575
4 576 578 579 577
4 578 580 581 579
4 580 582 583 581
4 582 584 585 583
4 584 586 587 585
4 586 588 589 587
4 588 590 591 589
4 590 592 593 591
4 592 594 595 593
4 594 596 597 595
4 596 598 599 597
4 598 600 601 599
4 600 602 603 601
4 602 604 605 603
4 604 606 607 605
4 606 608 609 607
4 608 610 611 609
4 610 612 613 611
4 612 614 615 613
4 614 616 617 615
4 616 618 619 617
4 618 620 621 619
4 620 622 623 621
4 622 624 625 623
4 624 626 627 625
4 626 628 629 627
4 628 630 631 629
4 630 632 633 631
4 632 634 635 633
4 634 636 637 635
4 636 638 639 637
4 638 640 641 639
4 640 642 643 641
4 642 644 645 643
4 644 646 647 645
4 646 648 649 647
4 648 650 651 649
POINT_DATA 652
FIELD attributes 1
U 3 652 float
2.48591 -0.000196843 -0.0150286
1.24345 -0.000100711 -0.00751431
1.24345 -0.000100711 -0.00751431
2.48591 -0.000196843 -0.0150286
0.000994023 -4.47798e-06 0
0.000994023 -4.47798e-06 0
0.00099411 -3.26033e-06 0
0.00099411 -3.26033e-06 0
0.000992774 -1.0247e-06 0
0.000992774 -1.0247e-06 0
0.000991036 7.29815e-07 0
0.000991036 7.29815e-07 0
0.000990023 1.53038e-06 0
0.000990023 1.53038e-06 0
0.000990153 1.43939e-06 0
0.000990153 1.43939e-06 0
0.000990733 7.6287e-07 0
0.000990733 7.6287e-07 0
0.000990525 1.61455e-07 0
0.000990525 1.61455e-07 0
0.000988666 1.08559e-07 0
0.000988666 1.08559e-07 0
0.000985432 3.33841e-07 0
0.000985432 3.33841e-07 0
0.000982057 1.92313e-07 0
0.000982057 1.92313e-07 0
0.000979577 -4.20527e-07 0
0.000979577 -4.20527e-07 0
0.000977923 -8.72613e-07 0
0.000977923 -8.72613e-07 0
0.000976186 -5.87845e-07 0
0.000976186 -5.87845e-07 0
0.000973662 2.76285e-07 0
0.000973662 2.76285e-07 0
0.000970518 1.06649e-06 0
0.000970518 1.06649e-06 0
0.00096748 1.42655e-06 0
0.00096748 1.42655e-06 0
0.000964986 1.69072e-06 0
0.000964986 1.69072e-06 0
0.000962727 2.41673e-06 0
0.000962727 2.41673e-06 0
0.000959976 3.60634e-06 0
0.000959976 3.60634e-06 0
0.00095632 4.5361e-06 0
0.00095632 4.5361e-06 0
0.00095205 4.43554e-06 0
0.00095205 4.43554e-06 0
0.000947854 3.35948e-06 0
0.000947854 3.35948e-06 0
0.000944104 2.34981e-06 0
0.000944104 2.34981e-06 0
0.000940455 2.5811e-06 0
0.000940455 2.5811e-06 0
0.000936121 4.24422e-06 0
0.000936121 4.24422e-06 0
0.000930607 6.26259e-06 0
0.000930607 6.26259e-06 0
0.000924244 7.1188e-06 0
0.000924244 7.1188e-06 0
0.000917965 6.08238e-06 0
0.000917965 6.08238e-06 0
0.000912541 3.82982e-06 0
0.000912541 3.82982e-06 0
0.000907953 1.96931e-06 0
0.000907953 1.96931e-06 0
0.00090333 1.87777e-06 0
0.00090333 1.87777e-06 0
0.000897462 3.71364e-06 0
0.000897462 3.71364e-06 0
0.000889579 6.2288e-06 0
0.000889579 6.2288e-06 0
0.000879924 7.54973e-06 0
0.000879924 7.54973e-06 0
0.000869699 6.52471e-06 0
0.000869699 6.52471e-06 0
0.000860349 3.72777e-06 0
0.000860349 3.72777e-06 0
0.00085269 1.19098e-06 0
0.00085269 1.19098e-06 0
0.000846418 8.47467e-07 0
0.000846418 8.47467e-07 0
0.000840354 2.97618e-06 0
0.000840354 2.97618e-06 0
0.000833314 6.01533e-06 0
0.000833314 6.01533e-06 0
0.000824912 7.94115e-06 0
0.000824912 7.94115e-06 0
0.000815607 7.94519e-06 0
0.000815607 7.94519e-06 0
0.000806044 6.81904e-06 0
0.000806044 6.81904e-06 0
0.000796455 5.91422e-06 0
0.000796455 5.91422e-06 0
0.0007866 5.96907e-06 0
0.0007866 5.96907e-06 0
0.000776087 6.86975e-06 0
0.000776087 6.86975e-06 0
0.000764612 8.12383e-06 0
0.000764612 8.12383e-06 0
0.00075205 9.21559e-06 0
0.00075205 9.21559e-06 0
0.000738556 9.64491e-06 0
0.000738556 9.64491e-06 0
0.000724646 9.09064e-06 0
0.000724646 9.09064e-06 0
0.000710962 7.76379e-06 0
0.000710962 7.76379e-06 0
0.000697771 6.39065e-06 0
0.000697771 6.39065e-06 0
0.000684744 5.61284e-06 0
0.000684744 5.61284e-06 0
0.000671337 5.50798e-06 0
0.000671337 5.50798e-06 0
0.000657331 5.91315e-06 0
0.000657331 5.91315e-06 0
0.000642769 7.06096e-06 0
0.000642769 7.06096e-06 0
0.000627359 9.37015e-06 0
0.000627359 9.37015e-06 0
0.000610304 1.2398e-05 0
0.000610304 1.2398e-05 0
0.00059108 1.46154e-05 0
0.00059108 1.46154e-05 0
0.000570164 1.50038e-05 0
0.000570164 1.50038e-05 0
0.000548435 1.47241e-05 0
0.000548435 1.47241e-05 0
0.000525687 1.62478e-05 0
0.000525687 1.62478e-05 0
0.000500241 2.0383e-05 0
0.000500241 2.0383e-05 0
0.000470588 2.47802e-05 0
0.000470588 2.47802e-05 0
0.000437323 2.60884e-05 0
0.000437323 2.60884e-05 0
0.000403068 2.32938e-05 0
0.000403068 2.32938e-05 0
0.00037058 1.82674e-05 0
0.00037058 1.82674e-05 0
0.000341237 1.36065e-05 0
0.000341237 1.36065e-05 0
0.000315013 1.0744e-05 0
0.000315013 1.0744e-05 0
0.000291178 9.6692e-06 0
0.000291178 9.6692e-06 0
0.000268837 9.63739e-06 0
0.000268837 9.63739e-06 0
0.000247225 9.94074e-06 0
0.000247225 9.94074e-06 0
0.000225838 1.01953e-05 0
0.000225838 1.01953e-05 0
0.000204435 1.02594e-05 0
0.000204435 1.02594e-05 0
0.000182968 1.01226e-05 0
0.000182968 1.01226e-05 0
0.000161514 9.81377e-06 0
0.000161514 9.81377e-06 0
0.000140221 9.35434e-06 0
0.000140221 9.35434e-06 0
0.000119278 8.75012e-06 0
0.000119278 8.75012e-06 0
9.88935e-05 7.9992e-06 0
9.88935e-05 7.9992e-06 0
7.92901e-05 7.09924e-06 0
7.92901e-05 7.09924e-06 0
6.06941e-05 6.05211e-06 0
6.06941e-05 6.05211e-06 0
4.33299e-05 4.86798e-06 0
4.33299e-05 4.86798e-06 0
2.74081e-05 3.5757e-06 0
2.74081e-05 3.5757e-06 0
1.31152e-05 2.21636e-06 0
1.31152e-05 2.21636e-06 0
6.04657e-07 8.25911e-07 0
6.04657e-07 8.25911e-07 0
-1.00082e-05 -5.60666e-07 0
-1.00082e-05 -5.60666e-07 0
-1.86439e-05 -1.91051e-06 0
-1.86439e-05 -1.91051e-06 0
-2.52661e-05 -3.19735e-06 0
-2.52661e-05 -3.19735e-06 0
-2.98848e-05 -4.39881e-06 0
-2.98848e-05 -4.39881e-06 0
-3.25471e-05 -5.49868e-06 0
-3.25471e-05 -5.49868e-06 0
-3.33328e-05 -6.4873e-06 0
-3.33328e-05 -6.4873e-06 0
-3.23369e-05 -7.34657e-06 0
-3.23369e-05 -7.34657e-06 0
-2.97056e-05 -8.05351e-06 0
-2.97056e-05 -8.05351e-06 0
-2.56392e-05 -8.59954e-06 0
-2.56392e-05 -8.59954e-06 0
-2.03743e-05 -9.00483e-06 0
-2.03743e-05 -9.00483e-06 0
-1.41422e-05 -9.31668e-06 0
-1.41422e-05 -9.31668e-06 0
-7.22986e-06 -9.46552e-06 0
-7.22986e-06 -9.46552e-06 0
-3.65114e-06 -9.47504e-06 0
-3.65114e-06 -9.47504e-06 0
1.4988e-06 -7.21454e-06 0
1.4988e-06 -7.21454e-06 0
9.82092e-06 6.29951e-06 0
9.82092e-06 6.29951e-06 0
1.42945e-05 3.2409e-05 0
1.42945e-05 3.2409e-05 0
1.57897e-05 6.34615e-05 0
1.57897e-05 6.34615e-05 0
1.56006e-05 9.53246e-05 0
1.56006e-05 9.53246e-05 0
1.46302e-05 0.000125635 0
1.46302e-05 0.000125635 0
1.3456e-05 0.00015369 0
1.3456e-05 0.00015369 0
1.2382e-05 0.000179434 0
1.2382e-05 0.000179434 0
1.15393e-05 0.000203287 0
1.15393e-05 0.000203287 0
1.09592e-05 0.00022577 0
1.09592e-05 0.00022577 0
1.06207e-05 0.000247369 0
1.06207e-05 0.000247369 0
1.04798e-05 0.000268509 0
1.04798e-05 0.000268509 0
1.04878e-05 0.000289542 0
1.04878e-05 0.000289542 0
1.06014e-05 0.000310718 0
1.06014e-05 0.000310718 0
1.07853e-05 0.000332205 0
1.07853e-05 0.000332205 0
1.10139e-05 0.000354109 0
1.10139e-05 0.000354109 0
1.12697e-05 0.000376498 0
1.12697e-05 0.000376498 0
1.15421e-05 0.000399413 0
1.15421e-05 0.000399413 0
1.18256e-05 0.000422881 0
1.18256e-05 0.000422881 0
1.21183e-05 0.000446919 0
1.21183e-05 0.000446919 0
1.24206e-05 0.000471547 0
1.24206e-05 0.000471547 0
1.27349e-05 0.000496786 0
1.27349e-05 0.000496786 0
1.30639e-05 0.000522662 0
1.30639e-05 0.000522662 0
1.34123e-05 0.00054921 0
1.34123e-05 0.00054921 0
1.37834e-05 0.000576472 0
1.37834e-05 0.000576472 0
1.41837e-05 0.000604502 0
1.41837e-05 0.000604502 0
1.46155e-05 0.000633356 0
1.46155e-05 0.000633356 0
1.50894e-05 0.000663115 0
1.50894e-05 0.000663115 0
1.56043e-05 0.000693851 0
1.56043e-05 0.000693851 0
1.61803e-05 0.000725681 0
1.61803e-05 0.000725681 0
1.68052e-05 0.000758691 0
1.68052e-05 0.000758691 0
1.75233e-05 0.000793058 0
1.75233e-05 0.000793058 0
1.82945e-05 0.000828871 0
1.82945e-05 0.000828871 0
1.92183e-05 0.000866421 0
1.92183e-05 0.000866421 0
2.01739e-05 0.000905756 0
2.01739e-05 0.000905756 0
2.14356e-05 0.000947406 0
2.14356e-05 0.000947406 0
2.25988e-05 0.000991283 0
2.25988e-05 0.000991283 0
2.44421e-05 0.00103837 0
2.44421e-05 0.00103837 0
2.58425e-05 0.00108829 0
2.58425e-05 0.00108829 0
2.87418e-05 0.00114294 0
2.87418e-05 0.00114294 0
3.03247e-05 0.00120118 0
3.03247e-05 0.00120118 0
3.54017e-05 0.00126692 0
3.54017e-05 0.00126692 0
3.69405e-05 0.00133749 0
3.69405e-05 0.00133749 0
4.6854e-05 0.0014209 0
4.6854e-05 0.0014209 0
4.82455e-05 0.00151237 0
4.82455e-05 0.00151237 0
7.11439e-05 0.00162781 0
7.11439e-05 0.00162781 0
7.48583e-05 0.00176382 0
7.48583e-05 0.00176382 0
0.000140559 0.0019493 0
0.000140559 0.0019493 0
0.000172275 0.00220077 0
0.000172275 0.00220077 0
0.000224789 0.0014119 0
0.000224789 0.0014119 0
-0.000241937 5.5011e-05 0
-0.000241937 5.5011e-05 0
-0.00020663 -0.000377432 0
-0.00020663 -0.000377432 0
-6.91506e-06 -5.58618e-05 0
-6.91506e-06 -5.58618e-05 0
-0.000566225 0.000305085 0
-0.000566225 0.000305085 0
-0.00110452 0.000354102 0
-0.00110452 0.000354102 0
-0.00171607 0.000316923 0
-0.00171607 0.000316923 0
-0.00214178 0.000237517 0
-0.00214178 0.000237517 0
-0.00246368 0.000162433 0
-0.00246368 0.000162433 0
-0.00265341 9.82016e-05 0
-0.00265341 9.82016e-05 0
-0.00275231 4.38169e-05 0
-0.00275231 4.38169e-05 0
-0.00275417 -3.64078e-06 0
-0.00275417 -3.64078e-06 0
-0.00267909 -4.80849e-05 0
-0.00267909 -4.80849e-05 0
-0.00252265 -9.22609e-05 0
-0.00252265 -9.22609e-05 0
-0.00228755 -0.000135295 0
-0.00228755 -0.000135295 0
-0.00197244 -0.000175718 0
-0.00197244 -0.000175718 0
-0.00158601 -0.000208304 0
-0.00158601 -0.000208304 0
-0.0011513 -0.000223745 0
-0.0011513 -0.000223745 0
-0.000703122 -0.000211411 0
-0.000703122 -0.000211411 0
-0.000281389 -0.00016209 0
-0.000281389 -0.00016209 0
4.70006e-05 -0.000130358 0
4.70006e-05 -0.000130358 0
0.00030664 -0.000148308 0
0.00030664 -0.000148308 0
0.000550969 -0.000106412 0
0.000550969 -0.000106412 0
0.000739522 -9.4767e-05 0
0.000739522 -9.4767e-05 0
0.000926236 -0.000130324 0
0.000926236 -0.000130324 0
0.000520959 -0.000194965 0
0.000520959 -0.000194965 0
-7.2046e-06 5.05521e-06 0
-7.2046e-06 5.05521e-06 0
-8.68217e-06 1.40653e-05 0
-8.68217e-06 1.40653e-05 0
-1.00858e-05 3.36095e-05 0
-1.00858e-05 3.36095e-05 0
-9.74688e-06 5.32671e-05 0
-9.74688e-06 5.32671e-05 0
-9.29877e-06 7.14572e-05 0
-9.29877e-06 7.14572e-05 0
-8.99638e-06 8.92218e-05 0
-8.99638e-06 8.92218e-05 0
-8.78022e-06 0.000106429 0
-8.78022e-06 0.000106429 0
-8.58419e-06 0.000123273 0
-8.58419e-06 0.000123273 0
-8.37216e-06 0.000139739 0
-8.37216e-06 0.000139739 0
-8.12892e-06 0.000155764 0
-8.12892e-06 0.000155764 0
-7.8491e-06 0.000171277 0
-7.8491e-06 0.000171277 0
-7.53095e-06 0.000186206 0
-7.53095e-06 0.000186206 0
-7.17392e-06 0.000200472 0
-7.17392e-06 0.000200472 0
-6.77748e-06 0.000213998 0
-6.77748e-06 0.000213998 0
-6.3413e-06 0.000226705 0
-6.3413e-06 0.000226705 0
-5.86567e-06 0.000238514 0
-5.86567e-06 0.000238514 0
-5.35173e-06 0.000249347 0
-5.35173e-06 0.000249347 0
-4.80149e-06 0.000259131 0
-4.80149e-06 0.000259131 0
-4.21825e-06 0.000267792 0
-4.21825e-06 0.000267792 0
-3.60571e-06 0.000275264 0
-3.60571e-06 0.000275264 0
-2.96753e-06 0.000281487 0
-2.96753e-06 0.000281487 0
-2.30878e-06 0.000286415 0
-2.30878e-06 0.000286415 0
-1.6316e-06 0.000289997 0
-1.6316e-06 0.000289997 0
-9.41686e-07 0.00029222 0
-9.41686e-07 0.00029222 0
-2.34357e-07 0.000293036 0
-2.34357e-07 0.000293036 0
4.9544e-07 0.000292491 0
4.9544e-07 0.000292491 0
1.23098e-06 0.000290442 0
1.23098e-06 0.000290442 0
1.94819e-06 0.000287112 0
1.94819e-06 0.000287112 0
2.67251e-06 0.000282253 0
2.67251e-06 0.000282253 0
3.38305e-06 0.000276344 0
3.38305e-06 0.000276344 0
4.08648e-06 0.000268836 0
4.08648e-06 0.000268836 0
4.73389e-06 0.00026065 0
4.73389e-06 0.00026065 0
5.37255e-06 0.000250875 0
5.37255e-06 0.000250875 0
5.90492e-06 0.000240764 0
5.90492e-06 0.000240764 0
6.46846e-06 0.00022923 0
6.46846e-06 0.00022923 0
6.80475e-06 0.000217541 0
6.80475e-06 0.000217541 0
7.0599e-06 0.00020485 0
7.0599e-06 0.00020485 0
7.65502e-06 0.000192376 0
7.65502e-06 0.000192376 0
6.77138e-06 0.000177894 0
6.77138e-06 0.000177894 0
8.42429e-06 0.000167272 0
8.42429e-06 0.000167272 0
8.55225e-06 0.000149695 0
8.55225e-06 0.000149695 0
5.59833e-06 0.000134687 0
5.59833e-06 0.000134687 0
8.73108e-06 0.000129137 0
8.73108e-06 0.000129137 0
1.57192e-05 9.94848e-05 0
1.57192e-05 9.94848e-05 0
7.8185e-06 8.96685e-05 0
7.8185e-06 8.96685e-05 0
3.65747e-06 6.45397e-05 0
3.65747e-06 6.45397e-05 0
2.00365e-05 4.72929e-05 0
2.00365e-05 4.72929e-05 0
8.16164e-06 4.67055e-06 0
8.16164e-06 4.67055e-06 0
1.96063e-05 9.65608e-06 0
1.96063e-05 9.65608e-06 0
2.70695e-05 -9.61783e-05 0
2.70695e-05 -9.61783e-05 0
-1.39827e-05 5.08769e-06 0
-1.39827e-05 5.08769e-06 0
-2.79805e-05 5.29482e-06 0
-2.79805e-05 5.29482e-06 0
-4.25546e-05 5.67675e-06 0
-4.25546e-05 5.67675e-06 0
-5.75853e-05 6.14204e-06 0
-5.75853e-05 6.14204e-06 0
-7.33136e-05 6.69587e-06 0
-7.33136e-05 6.69587e-06 0
-8.97893e-05 7.30455e-06 0
-8.97893e-05 7.30455e-06 0
-0.000107062 7.9349e-06 0
-0.000107062 7.9349e-06 0
-0.000125147 8.56079e-06 0
-0.000125147 8.56079e-06 0
-0.00014402 9.16122e-06 0
-0.00014402 9.16122e-06 0
-0.000163655 9.72603e-06 0
-0.000163655 9.72603e-06 0
-0.000184007 1.02534e-05 0
-0.000184007 1.02534e-05 0
-0.000205043 1.07464e-05 0
-0.000205043 1.07464e-05 0
-0.000226722 1.1208e-05 0
-0.000226722 1.1208e-05 0
-0.000249006 1.16367e-05 0
-0.000249006 1.16367e-05 0
-0.000271842 1.20253e-05 0
-0.000271842 1.20253e-05 0
-0.000295167 1.2362e-05 0
-0.000295167 1.2362e-05 0
-0.000318899 1.26335e-05 0
-0.000318899 1.26335e-05 0
-0.000342933 1.28315e-05 0
-0.000342933 1.28315e-05 0
-0.000367131 1.29472e-05 0
-0.000367131 1.29472e-05 0
-0.000391326 1.29643e-05 0
-0.000391326 1.29643e-05 0
-0.000415326 1.28635e-05 0
-0.000415326 1.28635e-05 0
-0.000438912 1.26262e-05 0
-0.000438912 1.26262e-05 0
-0.000461834 1.2236e-05 0
-0.000461834 1.2236e-05 0
-0.000483818 1.16785e-05 0
-0.000483818 1.16785e-05 0
-0.000504569 1.09422e-05 0
-0.000504569 1.09422e-05 0
-0.00052377 1.00198e-05 0
-0.00052377 1.00198e-05 0
-0.000541093 8.90864e-06 0
-0.000541093 8.90864e-06 0
-0.000556204 7.61185e-06 0
-0.000556204 7.61185e-06 0
-0.000568779 6.14043e-06 0
-0.000568779 6.14043e-06 0
-0.000578519 4.5147e-06 0
-0.000578519 4.5147e-06 0
-0.000585158 2.77464e-06 0
-0.000585158 2.77464e-06 0
-0.00058847 9.80089e-07 0
-0.00058847 9.80089e-07 0
-0.00058832 -8.24e-07 0
-0.00058832 -8.24e-07 0
-0.000584704 -2.60011e-06 0
-0.000584704 -2.60011e-06 0
-0.000577625 -4.33723e-06 0
-0.000577625 -4.33723e-06 0
-0.000567082 -6.04188e-06 0
-0.000567082 -6.04188e-06 0
-0.00055316 -7.69379e-06 0
-0.00055316 -7.69379e-06 0
-0.000535992 -9.26774e-06 0
-0.000535992 -9.26774e-06 0
-0.000515761 -1.07397e-05 0
-0.000515761 -1.07397e-05 0
-0.000492698 -1.2089e-05 0
-0.000492698 -1.2089e-05 0
-0.000467069 -1.32995e-05 0
-0.000467069 -1.32995e-05 0
-0.000439166 -1.43604e-05 0
-0.000439166 -1.43604e-05 0
-0.000409298 -1.52654e-05 0
-0.000409298 -1.52654e-05 0
-0.000377783 -1.6013e-05 0
-0.000377783 -1.6013e-05 0
-0.000344935 -1.66058e-05 0
-0.000344935 -1.66058e-05 0
-0.000311059 -1.70496e-05 0
-0.000311059 -1.70496e-05 0
-0.000276448 -1.73527e-05 0
-0.000276448 -1.73527e-05 0
-0.000241374 -1.75267e-05 0
-0.000241374 -1.75267e-05 0
-0.000206088 -1.75837e-05 0
-0.000206088 -1.75837e-05 0
-0.000170807 -1.75344e-05 0
-0.000170807 -1.75344e-05 0
-0.000135713 -1.73941e-05 0
-0.000135713 -1.73941e-05 0
-0.000100973 -1.71753e-05 0
-0.000100973 -1.71753e-05 0
-6.67314e-05 -1.68895e-05 0
-6.67314e-05 -1.68895e-05 0
-3.31066e-05 -1.65496e-05 0
-3.31066e-05 -1.65496e-05 0
-2.28928e-07 -1.617e-05 0
-2.28928e-07 -1.617e-05 0
3.18091e-05 -1.57586e-05 0
3.18091e-05 -1.57586e-05 0
6.29926e-05 -1.53208e-05 0
6.29926e-05 -1.53208e-05 0
9.3297e-05 -1.48681e-05 0
9.3297e-05 -1.48681e-05 0
0.000122685 -1.44069e-05 0
0.000122685 -1.44069e-05 0
0.000151147 -1.39428e-05 0
0.000151147 -1.39428e-05 0
0.00017868 -1.34806e-05 0
0.00017868 -1.34806e-05 0
0.000205293 -1.3024e-05 0
0.000205293 -1.3024e-05 0
0.000231 -1.25761e-05 0
0.000231 -1.25761e-05 0
0.000255822 -1.21392e-05 0
0.000255822 -1.21392e-05 0
0.000279783 -1.1715e-05 0
0.000279783 -1.1715e-05 0
0.000302908 -1.13049e-05 0
0.000302908 -1.13049e-05 0
0.000325227 -1.09094e-05 0
0.000325227 -1.09094e-05 0
0.000346771 -1.05292e-05 0
0.000346771 -1.05292e-05 0
0.000367569 -1.01643e-05 0
0.000367569 -1.01643e-05 0
0.000387652 -9.81474e-06 0
0.000387652 -9.81474e-06 0
0.000407051 -9.48045e-06 0
0.000407051 -9.48045e-06 0
0.000425796 -9.16112e-06 0
0.000425796 -9.16112e-06 0
0.000443917 -8.85644e-06 0
0.000443917 -8.85644e-06 0
0.000461442 -8.56603e-06 0
0.000461442 -8.56603e-06 0
0.0004784 -8.28946e-06 0
0.0004784 -8.28946e-06 0
0.000494817 -8.02628e-06 0
0.000494817 -8.02628e-06 0
0.000510721 -7.77606e-06 0
0.000510721 -7.77606e-06 0
0.000526136 -7.53839e-06 0
0.000526136 -7.53839e-06 0
0.000541089 -7.31284e-06 0
0.000541089 -7.31284e-06 0
0.0005556 -7.09907e-06 0
0.0005556 -7.09907e-06 0
0.000569696 -6.89668e-06 0
0.000569696 -6.89668e-06 0
0.000583396 -6.70532e-06 0
0.000583396 -6.70532e-06 0
0.000596726 -6.52456e-06 0
0.000596726 -6.52456e-06 0
0.0006097 -6.35407e-06 0
0.0006097 -6.35407e-06 0
0.000622348 -6.19346e-06 0
0.000622348 -6.19346e-06 0
0.000634674 -6.04249e-06 0
0.000634674 -6.04249e-06 0
0.000646723 -5.90075e-06 0
0.000646723 -5.90075e-06 0
0.000658471 -5.76814e-06 0
0.000658471 -5.76814e-06 0
0.00067 -5.64416e-06 0
0.00067 -5.64416e-06 0
0.000681232 -5.52898e-06 0
0.000681232 -5.52898e-06 0
0.000692327 -5.42182e-06 0
0.000692327 -5.42182e-06 0
0.000703083 -5.32339e-06 0
0.000703083 -5.32339e-06 0
0.000713851 -5.23224e-06 0
0.000713851 -5.23224e-06 0
0.000724137 -5.15016e-06 0
0.000724137 -5.15016e-06 0
0.000734727 -5.07416e-06 0
0.000734727 -5.07416e-06 0
0.000744476 -5.00835e-06 0
0.000744476 -5.00835e-06 0
0.000755137 -4.94646e-06 0
0.000755137 -4.94646e-06 0
0.000764119 -4.89752e-06 0
0.000764119 -4.89752e-06 0
0.980979 -0.00602058 0
0.980979 -0.00602058 0
1.96119 -0.0120363 0
1.96119 -0.0120363 0
