# vtk DataFile Version 2.0
sampleSurface
ASCII
DATASET POLYDATA
POINTS 652 double
0 0 0
0.02 0 0
0.02 0 0.1
0 0 0.1
0.04 0 0
0.04 0 0.1
0.06 0 0
0.06 0 0.1
0.08 0 0
0.08 0 0.1
0.1 0 0
0.1 0 0.1
0.12 0 0
0.12 0 0.1
0.14 0 0
0.14 0 0.1
0.16 0 0
0.16 0 0.1
0.18 0 0
0.18 0 0.1
0.2 0 0
0.2 0 0.1
0.22 0 0
0.22 0 0.1
0.24 0 0
0.24 0 0.1
0.26 0 0
0.26 0 0.1
0.28 0 0
0.28 0 0.1
0.3 0 0
0.3 0 0.1
0.32 0 0
0.32 0 0.1
0.34 0 0
0.34 0 0.1
0.36 0 0
0.36 0 0.1
0.38 0 0
0.38 0 0.1
0.4 0 0
0.4 0 0.1
0.42 0 0
0.42 0 0.1
0.44 0 0
0.44 0 0.1
0.46 0 0
0.46 0 0.1
0.48 0 0
0.48 0 0.1
0.5 0 0
0.5 0 0.1
0.52 0 0
0.52 0 0.1
0.54 0 0
0.54 0 0.1
0.56 0 0
0.56 0 0.1
0.58 0 0
0.58 0 0.1
0.6 0 0
0.6 0 0.1
0.62 0 0
0.62 0 0.1
0.64 0 0
0.64 0 0.1
0.66 0 0
0.66 0 0.1
0.68 0 0
0.68 0 0.1
0.7 0 0
0.7 0 0.1
0.72 0 0
0.72 0 0.1
0.74 0 0
0.74 0 0.1
0.76 0 0
0.76 0 0.1
0.78 0 0
0.78 0 0.1
0.8 0 0
0.8 0 0.1
0.82 0 0
0.82 0 0.1
0.84 0 0
0.84 0 0.1
0.86 0 0
0.86 0 0.1
0.88 0 0
0.88 0 0.1
0.9 0 0
0.9 0 0.1
0.92 0 0
0.92 0 0.1
0.94 0 0
0.94 0 0.1
0.96 0 0
0.96 0 0.1
0.98 0 0
0.98 0 0.1
1 0 0
1 0 0.1
1.02 0 0
1.02 0 0.1
1.04 0 0
1.04 0 0.1
1.06 0 0
1.06 0 0.1
1.08 0 0
1.08 0 0.1
1.1 0 0
1.1 0 0.1
1.12 0 0
1.12 0 0.1
1.14 0 0
1.14 0 0.1
1.16 0 0
1.16 0 0.1
1.18 0 0
1.18 0 0.1
1.2 0 0
1.2 0 0.1
1.22 0 0
1.22 0 0.1
1.24 0 0
1.24 0 0.1
1.26 0 0
1.26 0 0.1
1.28 0 0
1.28 0 0.1
1.3 0 0
1.3 0 0.1
1.32 0 0
1.32 0 0.1
1.34 0 0
1.34 0 0.1
1.36 0 0
1.36 0 0.1
1.38 0 0
1.38 0 0.1
1.4 0 0
1.4 0 0.1
1.42 0 0
1.42 0 0.1
1.44 0 0
1.44 0 0.1
1.46 0 0
1.46 0 0.1
1.48 0 0
1.48 0 0.1
1.5 0 0
1.5 0 0.1
1.52 0 0
1.52 0 0.1
1.54 0 0
1.54 0 0.1
1.56 0 0
1.56 0 0.1
1.58 0 0
1.58 0 0.1
1.6 0 0
1.6 0 0.1
1.62 0 0
1.62 0 0.1
1.64 0 0
1.64 0 0.1
1.66 0 0
1.66 0 0.1
1.68 0 0
1.68 0 0.1
1.7 0 0
1.7 0 0.1
1.72 0 0
1.72 0 0.1
1.74 0 0
1.74 0 0.1
1.76 0 0
1.76 0 0.1
1.78 0 0
1.78 0 0.1
1.8 0 0
1.8 0 0.1
1.82 0 0
1.82 0 0.1
1.84 0 0
1.84 0 0.1
1.86 0 0
1.86 0 0.1
1.88 0 0
1.88 0 0.1
1.9 0 0
1.9 0 0.1
1.92 0 0
1.92 0 0.1
1.94 0 0
1.94 0 0.1
1.96 0 0
1.96 0 0.1
1.98 0 0
1.98 0 0.1
2 0 0
2 0 0.1
2 0.02 0
2 0.02 0.1
2 0.04 0
2 0.04 0.1
2 0.06 0
2 0.06 0.1
2 0.08 0
2 0.08 0.1
2 0.1 0
2 0.1 0.1
2 0.12 0
2 0.12 0.1
2 0.14 0
2 0.14 0.1
2 0.16 0
2 0.16 0.1
2 0.18 0
2 0.18 0.1
2 0.2 0
2 0.2 0.1
2 0.22 0
2 0.22 0.1
2 0.24 0
2 0.24 0.1
2 0.26 0
2 0.26 0.1
2 0.28 0
2 0.28 0.1
2 0.3 0
2 0.3 0.1
2 0.32 0
2 0.32 0.1
2 0.34 0
2 0.34 0.1
2 0.36 0
2 0.36 0.1
2 0.38 0
2 0.38 0.1
2 0.4 0
2 0.4 0.1
2 0.42 0
2 0.42 0.1
2 0.44 0
2 0.44 0.1
2 0.46 0
2 0.46 0.1
2 0.48 0
2 0.48 0.1
2 0.5 0
2 0.5 0.1
2 0.52 0
2 0.52 0.1
2 0.54 0
2 0.54 0.1
2 0.56 0
2 0.56 0.1
2 0.58 0
2 0.58 0.1
2 0.6 0
2 0.6 0.1
2 0.62 0
2 0.62 0.1
2 0.64 0
2 0.64 0.1
2 0.66 0
2 0.66 0.1
2 0.68 0
2 0.68 0.1
2 0.7 0
2 0.7 0.1
2 0.72 0
2 0.72 0.1
2 0.74 0
2 0.74 0.1
2 0.76 0
2 0.76 0.1
2 0.78 0
2 0.78 0.1
2 0.8 0
2 0.8 0.1
2 0.82 0
2 0.82 0.1
2 0.84 0
2 0.84 0.1
2 0.86 0
2 0.86 0.1
2 0.88 0
2 0.88 0.1
2 0.9 0
2 0.9 0.1
2 0.92 0
2 0.92 0.1
2 0.94 0
2 0.94 0.1
2 0.96 0
2 0.96 0.1
2 0.98 0
2 0.98 0.1
2 1 0
2 1 0.1
2.02 1 0
2.02 1 0.1
2.04 1 0
2.04 1 0.1
2.06 1 0
2.06 1 0.1
2.08 1 0
2.08 1 0.1
2.1 1 0
2.1 1 0.1
2.12 1 0
2.12 1 0.1
2.14 1 0
2.14 1 0.1
2.16 1 0
2.16 1 0.1
2.18 1 0
2.18 1 0.1
2.2 1 0
2.2 1 0.1
2.22 1 0
2.22 1 0.1
2.24 1 0
2.24 1 0.1
2.26 1 0
2.26 1 0.1
2.28 1 0
2.28 1 0.1
2.3 1 0
2.3 1 0.1
2.32 1 0
2.32 1 0.1
2.34 1 0
2.34 1 0.1
2.36 1 0
2.36 1 0.1
2.38 1 0
2.38 1 0.1
2.4 1 0
2.4 1 0.1
2.42 1 0
2.42 1 0.1
2.44 1 0
2.44 1 0.1
2.46 1 0
2.46 1 0.1
2.48 1 0
2.48 1 0.1
2.5 1 0
2.5 1 0.1
2.5 0 0
2.5 0 0.1
2.5 0.02 0.1
2.5 0.02 0
2.5 0.04 0.1
2.5 0.04 0
2.5 0.06 0.1
2.5 0.06 0
2.5 0.08 0.1
2.5 0.08 0
2.5 0.1 0.1
2.5 0.1 0
2.5 0.12 0.1
2.5 0.12 0
2.5 0.14 0.1
2.5 0.14 0
2.5 0.16 0.1
2.5 0.16 0
2.5 0.18 0.1
2.5 0.18 0
2.5 0.2 0.1
2.5 0.2 0
2.5 0.22 0.1
2.5 0.22 0
2.5 0.24 0.1
2.5 0.24 0
2.5 0.26 0.1
2.5 0.26 0
2.5 0.28 0.1
2.5 0.28 0
2.5 0.3 0.1
2.5 0.3 0
2.5 0.32 0.1
2.5 0.32 0
2.5 0.34 0.1
2.5 0.34 0
2.5 0.36 0.1
2.5 0.36 0
2.5 0.38 0.1
2.5 0.38 0
2.5 0.4 0.1
2.5 0.4 0
2.5 0.42 0.1
2.5 0.42 0
2.5 0.44 0.1
2.5 0.44 0
2.5 0.46 0.1
2.5 0.46 0
2.5 0.48 0.1
2.5 0.48 0
2.5 0.5 0.1
2.5 0.5 0
2.5 0.52 0.1
2.5 0.52 0
2.5 0.54 0.1
2.5 0.54 0
2.5 0.56 0.1
2.5 0.56 0
2.5 0.58 0.1
2.5 0.58 0
2.5 0.6 0.1
2.5 0.6 0
2.5 0.62 0.1
2.5 0.62 0
2.5 0.64 0.1
2.5 0.64 0
2.5 0.66 0.1
2.5 0.66 0
2.5 0.68 0.1
2.5 0.68 0
2.5 0.7 0.1
2.5 0.7 0
2.5 0.72 0.1
2.5 0.72 0
2.5 0.74 0.1
2.5 0.74 0
2.5 0.76 0.1
2.5 0.76 0
2.5 0.78 0.1
2.5 0.78 0
2.5 0.8 0.1
2.5 0.8 0
2.5 0.82 0.1
2.5 0.82 0
2.5 0.84 0.1
2.5 0.84 0
2.5 0.86 0.1
2.5 0.86 0
2.5 0.88 0.1
2.5 0.88 0
2.5 0.9 0.1
2.5 0.9 0
2.5 0.92 0.1
2.5 0.92 0
2.5 0.94 0.1
2.5 0.94 0
2.5 0.96 0.1
2.5 0.96 0
2.5 0.98 0.1
2.5 0.98 0
2.52 0 0
2.52 0 0.1
2.54 0 0
2.54 0 0.1
2.56 0 0
2.56 0 0.1
2.58 0 0
2.58 0 0.1
2.6 0 0
2.6 0 0.1
2.62 0 0
2.62 0 0.1
2.64 0 0
2.64 0 0.1
2.66 0 0
2.66 0 0.1
2.68 0 0
2.68 0 0.1
2.7 0 0
2.7 0 0.1
2.72 0 0
2.72 0 0.1
2.74 0 0
2.74 0 0.1
2.76 0 0
2.76 0 0.1
2.78 0 0
2.78 0 0.1
2.8 0 0
2.8 0 0.1
2.82 0 0
2.82 0 0.1
2.84 0 0
2.84 0 0.1
2.86 0 0
2.86 0 0.1
2.88 0 0
2.88 0 0.1
2.9 0 0
2.9 0 0.1
2.92 0 0
2.92 0 0.1
2.94 0 0
2.94 0 0.1
2.96 0 0
2.96 0 0.1
2.98 0 0
2.98 0 0.1
3 0 0
3 0 0.1
3.02 0 0
3.02 0 0.1
3.04 0 0
3.04 0 0.1
3.06 0 0
3.06 0 0.1
3.08 0 0
3.08 0 0.1
3.1 0 0
3.1 0 0.1
3.12 0 0
3.12 0 0.1
3.14 0 0
3.14 0 0.1
3.16 0 0
3.16 0 0.1
3.18 0 0
3.18 0 0.1
3.2 0 0
3.2 0 0.1
3.22 0 0
3.22 0 0.1
3.24 0 0
3.24 0 0.1
3.26 0 0
3.26 0 0.1
3.28 0 0
3.28 0 0.1
3.3 0 0
3.3 0 0.1
3.32 0 0
3.32 0 0.1
3.34 0 0
3.34 0 0.1
3.36 0 0
3.36 0 0.1
3.38 0 0
3.38 0 0.1
3.4 0 0
3.4 0 0.1
3.42 0 0
3.42 0 0.1
3.44 0 0
3.44 0 0.1
3.46 0 0
3.46 0 0.1
3.48 0 0
3.48 0 0.1
3.5 0 0
3.5 0 0.1
3.52 0 0
3.52 0 0.1
3.54 0 0
3.54 0 0.1
3.56 0 0
3.56 0 0.1
3.58 0 0
3.58 0 0.1
3.6 0 0
3.6 0 0.1
3.62 0 0
3.62 0 0.1
3.64 0 0
3.64 0 0.1
3.66 0 0
3.66 0 0.1
3.68 0 0
3.68 0 0.1
3.7 0 0
3.7 0 0.1
3.72 0 0
3.72 0 0.1
3.74 0 0
3.74 0 0.1
3.76 0 0
3.76 0 0.1
3.78 0 0
3.78 0 0.1
3.8 0 0
3.8 0 0.1
3.82 0 0
3.82 0 0.1
3.84 0 0
3.84 0 0.1
3.86 0 0
3.86 0 0.1
3.88 0 0
3.88 0 0.1
3.9 0 0
3.9 0 0.1
3.92 0 0
3.92 0 0.1
3.94 0 0
3.94 0 0.1
3.96 0 0
3.96 0 0.1
3.98 0 0
3.98 0 0.1
4 0 0
4 0 0.1
4.02 0 0
4.02 0 0.1
4.04 0 0
4.04 0 0.1
4.06 0 0
4.06 0 0.1
4.08 0 0
4.08 0 0.1
4.1 0 0
4.1 0 0.1
4.12 0 0
4.12 0 0.1
4.14 0 0
4.14 0 0.1
4.16 0 0
4.16 0 0.1
4.18 0 0
4.18 0 0.1
4.2 0 0
4.2 0 0.1
4.22 0 0
4.22 0 0.1
4.24 0 0
4.24 0 0.1
4.26 0 0
4.26 0 0.1
4.28 0 0
4.28 0 0.1
4.3 0 0
4.3 0 0.1
4.32 0 0
4.32 0 0.1
4.34 0 0
4.34 0 0.1
4.36 0 0
4.36 0 0.1
4.38 0 0
4.38 0 0.1
4.4 0 0
4.4 0 0.1
4.42 0 0
4.42 0 0.1
4.44 0 0
4.44 0 0.1
4.46 0 0
4.46 0 0.1
4.48 0 0
4.48 0 0.1
4.5 0 0
4.5 0 0.1

POLYGONS 325 1625
4 0 1 2 3
4 1 4 5 2
4 4 6 7 5
4 6 8 9 7
4 8 10 11 9
4 10 12 13 11
4 12 14 15 13
4 14 16 17 15
4 16 18 19 17
4 18 20 21 19
4 20 22 23 21
4 22 24 25 23
4 24 26 27 25
4 26 28 29 27
4 28 30 31 29
4 30 32 33 31
4 32 34 35 33
4 34 36 37 35
4 36 38 39 37
4 38 40 41 39
4 40 42 43 41
4 42 44 45 43
4 44 46 47 45
4 46 48 49 47
4 48 50 51 49
4 50 52 53 51
4 52 54 55 53
4 54 56 57 55
4 56 58 59 57
4 58 60 61 59
4 60 62 63 61
4 62 64 65 63
4 64 66 67 65
4 66 68 69 67
4 68 70 71 69
4 70 72 73 71
4 72 74 75 73
4 74 76 77 75
4 76 78 79 77
4 78 80 81 79
4 80 82 83 81
4 82 84 85 83
4 84 86 87 85
4 86 88 89 87
4 88 90 91 89
4 90 92 93 91
4 92 94 95 93
4 94 96 97 95
4 96 98 99 97
4 98 100 101 99
4 100 102 103 101
4 102 104 105 103
4 104 106 107 105
4 106 108 109 107
4 108 110 111 109
4 110 112 113 111
4 112 114 115 113
4 114 116 117 115
4 116 118 119 117
4 118 120 121 119
4 120 122 123 121
4 122 124 125 123
4 124 126 127 125
4 126 128 129 127
4 128 130 131 129
4 130 132 133 131
4 132 134 135 133
4 134 136 137 135
4 136 138 139 137
4 138 140 141 139
4 140 142 143 141
4 142 144 145 143
4 144 146 147 145
4 146 148 149 147
4 148 150 151 149
4 150 152 153 151
4 152 154 155 153
4 154 156 157 155
4 156 158 159 157
4 158 160 161 159
4 160 162 163 161
4 162 164 165 163
4 164 166 167 165
4 166 168 169 167
4 168 170 171 169
4 170 172 173 171
4 172 174 175 173
4 174 176 177 175
4 176 178 179 177
4 178 180 181 179
4 180 182 183 181
4 182 184 185 183
4 184 186 187 185
4 186 188 189 187
4 188 190 191 189
4 190 192 193 191
4 192 194 195 193
4 194 196 197 195
4 196 198 199 197
4 198 200 201 199
4 200 202 203 201
4 202 204 205 203
4 204 206 207 205
4 206 208 209 207
4 208 210 211 209
4 210 212 213 211
4 212 214 215 213
4 214 216 217 215
4 216 218 219 217
4 218 220 221 219
4 220 222 223 221
4 222 224 225 223
4 224 226 227 225
4 226 228 229 227
4 228 230 231 229
4 230 232 233 231
4 232 234 235 233
4 234 236 237 235
4 236 238 239 237
4 238 240 241 239
4 240 242 243 241
4 242 244 245 243
4 244 246 247 245
4 246 248 249 247
4 248 250 251 249
4 250 252 253 251
4 252 254 255 253
4 254 256 257 255
4 256 258 259 257
4 258 260 261 259
4 260 262 263 261
4 262 264 265 263
4 264 266 267 265
4 266 268 269 267
4 268 270 271 269
4 270 272 273 271
4 272 274 275 273
4 274 276 277 275
4 276 278 279 277
4 278 280 281 279
4 280 282 283 281
4 282 284 285 283
4 284 286 287 285
4 286 288 289 287
4 288 290 291 289
4 290 292 293 291
4 292 294 295 293
4 294 296 297 295
4 296 298 299 297
4 298 300 301 299
4 300 302 303 301
4 302 304 305 303
4 304 306 307 305
4 306 308 309 307
4 308 310 311 309
4 310 312 313 311
4 312 314 315 313
4 314 316 317 315
4 316 318 319 317
4 318 320 321 319
4 320 322 323 321
4 322 324 325 323
4 324 326 327 325
4 326 328 329 327
4 328 330 331 329
4 330 332 333 331
4 332 334 335 333
4 334 336 337 335
4 336 338 339 337
4 338 340 341 339
4 340 342 343 341
4 342 344 345 343
4 344 346 347 345
4 346 348 349 347
4 348 350 351 349
4 352 353 354 355
4 355 354 356 357
4 357 356 358 359
4 359 358 360 361
4 361 360 362 363
4 363 362 364 365
4 365 364 366 367
4 367 366 368 369
4 369 368 370 371
4 371 370 372 373
4 373 372 374 375
4 375 374 376 377
4 377 376 378 379
4 379 378 380 381
4 381 380 382 383
4 383 382 384 385
4 385 384 386 387
4 387 386 388 389
4 389 388 390 391
4 391 390 392 393
4 393 392 394 395
4 395 394 396 397
4 397 396 398 399
4 399 398 400 401
4 401 400 402 403
4 403 402 404 405
4 405 404 406 407
4 407 406 408 409
4 409 408 410 411
4 411 410 412 413
4 413 412 414 415
4 415 414 416 417
4 417 416 418 419
4 419 418 420 421
4 421 420 422 423
4 423 422 424 425
4 425 424 426 427
4 427 426 428 429
4 429 428 430 431
4 431 430 432 433
4 433 432 434 435
4 435 434 436 437
4 437 436 438 439
4 439 438 440 441
4 441 440 442 443
4 443 442 444 445
4 445 444 446 447
4 447 446 448 449
4 449 448 450 451
4 451 450 351 350
4 352 452 453 353
4 452 454 455 453
4 454 456 457 455
4 456 458 459 457
4 458 460 461 459
4 460 462 463 461
4 462 464 465 463
4 464 466 467 465
4 466 468 469 467
4 468 470 471 469
4 470 472 473 471
4 472 474 475 473
4 474 476 477 475
4 476 478 479 477
4 478 480 481 479
4 480 482 483 481
4 482 484 485 483
4 484 486 487 485
4 486 488 489 487
4 488 490 491 489
4 490 492 493 491
4 492 494 495 493
4 494 496 497 495
4 496 498 499 497
4 498 500 501 499
4 500 502 503 501
4 502 504 505 503
4 504 506 507 505
4 506 508 509 507
4 508 510 511 509
4 510 512 513 511
4 512 514 515 513
4 514 516 517 515
4 516 518 519 517
4 518 520 521 519
4 520 522 523 521
4 522 524 525 523
4 524 526 527 525
4 526 528 529 527
4 528 530 531 529
4 530 532 533 531
4 532 534 535 533
4 534 536 537 535
4 536 538 539 537
4 538 540 541 539
4 540 542 543 541
4 542 544 545 543
4 544 546 547 545
4 546 548 549 547
4 548 550 551 549
4 550 552 553 551
4 552 554 555 553
4 554 556 557 555
4 556 558 559 557
4 558 560 561 559
4 560 562 563 561
4 562 564 565 563
4 564 566 567 565
4 566 568 569 567
4 568 570 571 569
4 570 572 573 571
4 572 574 575 573
4 574 576 577 575
4 576 578 579 577
4 578 580 581 579
4 580 582 583 581
4 582 584 585 583
4 584 586 587 585
4 586 588 589 587
4 588 590 591 589
4 590 592 593 591
4 592 594 595 593
4 594 596 597 595
4 596 598 599 597
4 598 600 601 599
4 600 602 603 601
4 602 604 605 603
4 604 606 607 605
4 606 608 609 607
4 608 610 611 609
4 610 612 613 611
4 612 614 615 613
4 614 616 617 615
4 616 618 619 617
4 618 620 621 619
4 620 622 623 621
4 622 624 625 623
4 624 626 627 625
4 626 628 629 627
4 628 630 631 629
4 630 632 633 631
4 632 634 635 633
4 634 636 637 635
4 636 638 639 637
4 638 640 641 639
4 640 642 643 641
4 642 644 645 643
4 644 646 647 645
4 646 648 649 647
4 648 650 651 649
POINT_DATA 652
FIELD attributes 1
U 3 652 float
2.44014 -0.00648919 0.00835857
1.22056 -0.00324881 0.00417928
1.22056 -0.00324881 0.00417928
2.44014 -0.00648919 0.00835857
0.000987456 -5.95126e-06 0
0.000987456 -5.95126e-06 0
0.000990998 -1.48598e-06 0
0.000990998 -1.48598e-06 0
0.000989998 1.47301e-06 0
0.000989998 1.47301e-06 0
0.000989346 2.70411e-06 0
0.000989346 2.70411e-06 0
0.000986545 2.89574e-06 0
0.000986545 2.89574e-06 0
0.000980952 2.67941e-06 0
0.000980952 2.67941e-06 0
0.00097606 2.4437e-06 0
0.00097606 2.4437e-06 0
0.000972112 2.32364e-06 0
0.000972112 2.32364e-06 0
0.000967648 2.29962e-06 0
0.000967648 2.29962e-06 0
0.000962777 2.32102e-06 0
0.000962777 2.32102e-06 0
0.000958021 2.35567e-06 0
0.000958021 2.35567e-06 0
0.000953317 2.39087e-06 0
0.000953317 2.39087e-06 0
0.000948512 2.42375e-06 0
0.000948512 2.42375e-06 0
0.000943621 2.45468e-06 0
0.000943621 2.45468e-06 0
0.000938679 2.48462e-06 0
0.000938679 2.48462e-06 0
0.000933683 2.5143e-06 0
0.000933683 2.5143e-06 0
0.000928627 2.54422e-06 0
0.000928627 2.54422e-06 0
0.000923511 2.57469e-06 0
0.000923511 2.57469e-06 0
0.000918334 2.60597e-06 0
0.000918334 2.60597e-06 0
0.000913094 2.63822e-06 0
0.000913094 2.63822e-06 0
0.00090779 2.67161e-06 0
0.00090779 2.67161e-06 0
0.000902418 2.70625e-06 0
0.000902418 2.70625e-06 0
0.000896977 2.74225e-06 0
0.000896977 2.74225e-06 0
0.000891463 2.77969e-06 0
0.000891463 2.77969e-06 0
0.000885873 2.81866e-06 0
0.000885873 2.81866e-06 0
0.000880205 2.85923e-06 0
0.000880205 2.85923e-06 0
0.000874455 2.90146e-06 0
0.000874455 2.90146e-06 0
0.000868619 2.94542e-06 0
0.000868619 2.94542e-06 0
0.000862695 2.99116e-06 0
0.000862695 2.99116e-06 0
0.000856678 3.03874e-06 0
0.000856678 3.03874e-06 0
0.000850565 3.08822e-06 0
0.000850565 3.08822e-06 0
0.000844352 3.13963e-06 0
0.000844352 3.13963e-06 0
0.000838035 3.19303e-06 0
0.000838035 3.19303e-06 0
0.00083161 3.24847e-06 0
0.00083161 3.24847e-06 0
0.000825072 3.306e-06 0
0.000825072 3.306e-06 0
0.000818418 3.36564e-06 0
0.000818418 3.36564e-06 0
0.000811644 3.42746e-06 0
0.000811644 3.42746e-06 0
0.000804744 3.49148e-06 0
0.000804744 3.49148e-06 0
0.000797714 3.55775e-06 0
0.000797714 3.55775e-06 0
0.00079055 3.62631e-06 0
0.00079055 3.62631e-06 0
0.000783248 3.69719e-06 0
0.000783248 3.69719e-06 0
0.000775801 3.77044e-06 0
0.000775801 3.77044e-06 0
0.000768206 3.84607e-06 0
0.000768206 3.84607e-06 0
0.000760458 3.92412e-06 0
0.000760458 3.92412e-06 0
0.000752551 4.00462e-06 0
0.000752551 4.00462e-06 0
0.000744482 4.08759e-06 0
0.000744482 4.08759e-06 0
0.000736243 4.17306e-06 0
0.000736243 4.17306e-06 0
0.000727832 4.26103e-06 0
0.000727832 4.26103e-06 0
0.000719241 4.35153e-06 0
0.000719241 4.35153e-06 0
0.000710467 4.44455e-06 0
0.000710467 4.44455e-06 0
0.000701504 4.54011e-06 0
0.000701504 4.54011e-06 0
0.000692348 4.63819e-06 0
0.000692348 4.63819e-06 0
0.000682991 4.73879e-06 0
0.000682991 4.73879e-06 0
0.000673431 4.84189e-06 0
0.000673431 4.84189e-06 0
0.000663661 4.94747e-06 0
0.000663661 4.94747e-06 0
0.000653677 5.05549e-06 0
0.000653677 5.05549e-06 0
0.000643473 5.16591e-06 0
0.000643473 5.16591e-06 0
0.000633045 5.27869e-06 0
0.000633045 5.27869e-06 0
0.000622388 5.39376e-06 0
0.000622388 5.39376e-06 0
0.000611497 5.51106e-06 0
0.000611497 5.51106e-06 0
0.000600368 5.63051e-06 0
0.000600368 5.63051e-06 0
0.000588996 5.75201e-06 0
0.000588996 5.75201e-06 0
0.000577379 5.87548e-06 0
0.000577379 5.87548e-06 0
0.000565511 6.0008e-06 0
0.000565511 6.0008e-06 0
0.000553389 6.12786e-06 0
0.000553389 6.12786e-06 0
0.00054101 6.25649e-06 0
0.00054101 6.25649e-06 0
0.000528372 6.38648e-06 0
0.000528372 6.38648e-06 0
0.000515472 6.51748e-06 0
0.000515472 6.51748e-06 0
0.000502308 6.64917e-06 0
0.000502308 6.64917e-06 0
0.000488878 6.78128e-06 0
0.000488878 6.78128e-06 0
0.000475181 6.91354e-06 0
0.000475181 6.91354e-06 0
0.000461216 7.04568e-06 0
0.000461216 7.04568e-06 0
0.000446984 7.17739e-06 0
0.000446984 7.17739e-06 0
0.000432485 7.30838e-06 0
0.000432485 7.30838e-06 0
0.00041772 7.43832e-06 0
0.00041772 7.43832e-06 0
0.000402691 7.56688e-06 0
0.000402691 7.56688e-06 0
0.000387401 7.69371e-06 0
0.000387401 7.69371e-06 0
0.000371854 7.81846e-06 0
0.000371854 7.81846e-06 0
0.000356052 7.94076e-06 0
0.000356052 7.94076e-06 0
0.000340001 8.06022e-06 0
0.000340001 8.06022e-06 0
0.000323707 8.17649e-06 0
0.000323707 8.17649e-06 0
0.000307176 8.28917e-06 0
0.000307176 8.28917e-06 0
0.000290416 8.39789e-06 0
0.000290416 8.39789e-06 0
0.000273434 8.50227e-06 0
0.000273434 8.50227e-06 0
0.000256239 8.60194e-06 0
0.000256239 8.60194e-06 0
0.000238842 8.69653e-06 0
0.000238842 8.69653e-06 0
0.000221253 8.78571e-06 0
0.000221253 8.78571e-06 0
0.000203483 8.86912e-06 0
0.000203483 8.86912e-06 0
0.000185544 8.94646e-06 0
0.000185544 8.94646e-06 0
0.000167449 9.01742e-06 0
0.000167449 9.01742e-06 0
0.000149212 9.08173e-06 0
0.000149212 9.08173e-06 0
0.000130847 9.13911e-06 0
0.000130847 9.13911e-06 0
0.000112368 9.18936e-06 0
0.000112368 9.18936e-06 0
9.37906e-05 9.23225e-06 0
9.37906e-05 9.23225e-06 0
7.51309e-05 9.26762e-06 0
7.51309e-05 9.26762e-06 0
5.64047e-05 9.29527e-06 0
5.64047e-05 9.29527e-06 0
3.76288e-05 9.31504e-06 0
3.76288e-05 9.31504e-06 0
1.88202e-05 9.3261e-06 0
1.88202e-05 9.3261e-06 0
9.40984e-06 9.32926e-06 0
9.40984e-06 9.32926e-06 0
9.5423e-06 1.88848e-05 0
9.5423e-06 1.88848e-05 0
9.62751e-06 3.81094e-05 0
9.62751e-06 3.81094e-05 0
9.58884e-06 5.73598e-05 0
9.58884e-06 5.73598e-05 0
9.61589e-06 7.65574e-05 0
9.61589e-06 7.65574e-05 0
9.65748e-06 9.58329e-05 0
9.65748e-06 9.58329e-05 0
9.70852e-06 0.000115203 0
9.70852e-06 0.000115203 0
9.7694e-06 0.000134684 0
9.7694e-06 0.000134684 0
9.84052e-06 0.000154297 0
9.84052e-06 0.000154297 0
9.92229e-06 0.000174062 0
9.92229e-06 0.000174062 0
1.00152e-05 0.000194002 0
1.00152e-05 0.000194002 0
1.01197e-05 0.000214138 0
1.01197e-05 0.000214138 0
1.02366e-05 0.000234496 0
1.02366e-05 0.000234496 0
1.03664e-05 0.0002551 0
1.03664e-05 0.0002551 0
1.05101e-05 0.000275977 0
1.05101e-05 0.000275977 0
1.06686e-05 0.000297156 0
1.06686e-05 0.000297156 0
1.0843e-05 0.000318666 0
1.0843e-05 0.000318666 0
1.10344e-05 0.000340542 0
1.10344e-05 0.000340542 0
1.12444e-05 0.000362819 0
1.12444e-05 0.000362819 0
1.14744e-05 0.000385534 0
1.14744e-05 0.000385534 0
1.17264e-05 0.00040873 0
1.17264e-05 0.00040873 0
1.20025e-05 0.000432453 0
1.20025e-05 0.000432453 0
1.2305e-05 0.000456753 0
1.2305e-05 0.000456753 0
1.26369e-05 0.000481686 0
1.26369e-05 0.000481686 0
1.30014e-05 0.000507313 0
1.30014e-05 0.000507313 0
1.34023e-05 0.000533703 0
1.34023e-05 0.000533703 0
1.38442e-05 0.000560933 0
1.38442e-05 0.000560933 0
1.43323e-05 0.00058909 0
1.43323e-05 0.00058909 0
1.48729e-05 0.000618271 0
1.48729e-05 0.000618271 0
1.54734e-05 0.000648589 0
1.54734e-05 0.000648589 0
1.61431e-05 0.000680171 0
1.61431e-05 0.000680171 0
1.68928e-05 0.000713166 0
1.68928e-05 0.000713166 0
1.7736e-05 0.000747744 0
1.7736e-05 0.000747744 0
1.86898e-05 0.000784113 0
1.86898e-05 0.000784113 0
1.9773e-05 0.000822492 0
1.9773e-05 0.000822492 0
2.1022e-05 0.000863222 0
2.1022e-05 0.000863222 0
2.24362e-05 0.000906514 0
2.24362e-05 0.000906514 0
2.41605e-05 0.000953065 0
2.41605e-05 0.000953065 0
2.60551e-05 0.00100293 0
2.60551e-05 0.00100293 0
2.82679e-05 0.0010573 0
2.82679e-05 0.0010573 0
3.22841e-05 0.00111689 0
3.22841e-05 0.00111689 0
3.19162e-05 0.0011814 0
3.19162e-05 0.0011814 0
4.44051e-05 0.00125675 0
4.44051e-05 0.00125675 0
4.11088e-05 0.00133461 0
4.11088e-05 0.00133461 0
5.39938e-05 0.00144025 0
5.39938e-05 0.00144025 0
5.86819e-05 0.00153542 0
5.86819e-05 0.00153542 0
0.000105385 0.00169288 0
0.000105385 0.00169288 0
8.8674e-05 0.00185953 0
8.8674e-05 0.00185953 0
0.000179906 0.00210321 0
0.000179906 0.00210321 0
0.000250616 0.00244083 0
0.000250616 0.00244083 0
-2.87066e-05 0.0014728 0
-2.87066e-05 0.0014728 0
-0.00107981 9.6033e-05 0
-0.00107981 9.6033e-05 0
-0.001861 -7.02219e-05 0
-0.001861 -7.02219e-05 0
-0.00206881 -2.63757e-05 0
-0.00206881 -2.63757e-05 0
-0.00202034 -0.000110826 0
-0.00202034 -0.000110826 0
-0.00173777 -0.000201366 0
-0.00173777 -0.000201366 0
-0.00120542 -0.000414283 0
-0.00120542 -0.000414283 0
-0.000463444 -0.00040897 0
-0.000463444 -0.00040897 0
7.85822e-05 -0.000293902 0
7.85822e-05 -0.000293902 0
0.00067986 -0.000266318 0
0.00067986 -0.000266318 0
0.0010691 -0.000176931 0
0.0010691 -0.000176931 0
0.00139599 -0.000117464 0
0.00139599 -0.000117464 0
0.00161197 -7.7629e-05 0
0.00161197 -7.7629e-05 0
0.00175195 -5.71199e-05 0
0.00175195 -5.71199e-05 0
0.00184123 -4.42472e-05 0
0.00184123 -4.42472e-05 0
0.00190394 -4.03602e-05 0
0.00190394 -4.03602e-05 0
0.00195222 -3.37132e-05 0
0.00195222 -3.37132e-05 0
0.00199584 -3.14921e-05 0
0.00199584 -3.14921e-05 0
0.00203927 -2.93786e-05 0
0.00203927 -2.93786e-05 0
0.0020822 -3.24323e-05 0
0.0020822 -3.24323e-05 0
0.00214345 -2.99393e-05 0
0.00214345 -2.99393e-05 0
0.0021859 -3.18475e-05 0
0.0021859 -3.18475e-05 0
0.00228066 -5.68368e-05 0
0.00228066 -5.68368e-05 0
0.00236586 -6.05219e-05 0
0.00236586 -6.05219e-05 0
0.0024936 -5.78304e-05 0
0.0024936 -5.78304e-05 0
0.00161305 -7.85086e-06 0
0.00161305 -7.85086e-06 0
8.13153e-06 -8.19195e-06 0
8.13153e-06 -8.19195e-06 0
8.13486e-06 -1.6391e-05 0
8.13486e-06 -1.6391e-05 0
8.14334e-06 -3.27979e-05 0
8.14334e-06 -3.27979e-05 0
8.15613e-06 -4.92275e-05 0
8.15613e-06 -4.92275e-05 0
8.17392e-06 -6.56907e-05 0
8.17392e-06 -6.56907e-05 0
8.19675e-06 -8.21981e-05 0
8.19675e-06 -8.21981e-05 0
8.22459e-06 -9.87608e-05 0
8.22459e-06 -9.87608e-05 0
8.25738e-06 -0.00011539 0
8.25738e-06 -0.00011539 0
8.29504e-06 -0.000132096 0
8.29504e-06 -0.000132096 0
8.33744e-06 -0.00014889 0
8.33744e-06 -0.00014889 0
8.38443e-06 -0.000165783 0
8.38443e-06 -0.000165783 0
8.43579e-06 -0.000182786 0
8.43579e-06 -0.000182786 0
8.49124e-06 -0.000199907 0
8.49124e-06 -0.000199907 0
8.55041e-06 -0.000217158 0
8.55041e-06 -0.000217158 0
8.61282e-06 -0.000234546 0
8.61282e-06 -0.000234546 0
8.67784e-06 -0.000252081 0
8.67784e-06 -0.000252081 0
8.74467e-06 -0.00026977 0
8.74467e-06 -0.00026977 0
8.81224e-06 -0.000287618 0
8.81224e-06 -0.000287618 0
8.87921e-06 -0.000305629 0
8.87921e-06 -0.000305629 0
8.94379e-06 -0.000323804 0
8.94379e-06 -0.000323804 0
9.00371e-06 -0.000342142 0
9.00371e-06 -0.000342142 0
9.05599e-06 -0.000360636 0
9.05599e-06 -0.000360636 0
9.09674e-06 -0.000379273 0
9.09674e-06 -0.000379273 0
9.12091e-06 -0.000398033 0
9.12091e-06 -0.000398033 0
9.12183e-06 -0.000416885 0
9.12183e-06 -0.000416885 0
9.09072e-06 -0.000435785 0
9.09072e-06 -0.000435785 0
9.01589e-06 -0.00045467 0
9.01589e-06 -0.00045467 0
8.88162e-06 -0.000473449 0
8.88162e-06 -0.000473449 0
8.66652e-06 -0.000492001 0
8.66652e-06 -0.000492001 0
8.34094e-06 -0.000510152 0
8.34094e-06 -0.000510152 0
7.86285e-06 -0.000527665 0
7.86285e-06 -0.000527665 0
7.17092e-06 -0.000544205 0
7.17092e-06 -0.000544205 0
6.17272e-06 -0.000559296 0
6.17272e-06 -0.000559296 0
4.72417e-06 -0.00057226 0
4.72417e-06 -0.00057226 0
2.5897e-06 -0.000582095 0
2.5897e-06 -0.000582095 0
-6.28406e-07 -0.000587316 0
-6.28406e-07 -0.000587316 0
-5.52579e-06 -0.000585528 0
-5.52579e-06 -0.000585528 0
-1.28992e-05 -0.000572948 0
-1.28992e-05 -0.000572948 0
-2.39102e-05 -0.000544713 0
-2.39102e-05 -0.000544713 0
-3.97677e-05 -0.000494543 0
-3.97677e-05 -0.000494543 0
-6.08339e-05 -0.000392344 0
-6.08339e-05 -0.000392344 0
-9.92617e-05 -0.000260894 0
-9.92617e-05 -0.000260894 0
-0.000133826 4.80412e-06 0
-0.000133826 4.80412e-06 0
-0.000240062 0.000345208 0
-0.000240062 0.000345208 0
-0.000261453 0.00092985 0
-0.000261453 0.00092985 0
-9.29763e-05 0.00150449 0
-9.29763e-05 0.00150449 0
-0.000112782 0.00190073 0
-0.000112782 0.00190073 0
-9.41502e-06 0.00223948 0
-9.41502e-06 0.00223948 0
0.000630516 0.00197056 0
0.000630516 0.00197056 0
0.000827807 0.000838551 0
0.000827807 0.000838551 0
1.64435e-05 -8.29458e-06 0
1.64435e-05 -8.29458e-06 0
3.31354e-05 -8.34458e-06 0
3.31354e-05 -8.34458e-06 0
4.97877e-05 -8.27907e-06 0
4.97877e-05 -8.27907e-06 0
6.63178e-05 -8.25428e-06 0
6.63178e-05 -8.25428e-06 0
8.28081e-05 -8.22736e-06 0
8.28081e-05 -8.22736e-06 0
9.92398e-05 -8.1943e-06 0
9.92398e-05 -8.1943e-06 0
0.000115599 -8.15524e-06 0
0.000115599 -8.15524e-06 0
0.000131875 -8.11027e-06 0
0.000131875 -8.11027e-06 0
0.000148054 -8.05945e-06 0
0.000148054 -8.05945e-06 0
0.000164126 -8.00288e-06 0
0.000164126 -8.00288e-06 0
0.00018008 -7.94064e-06 0
0.00018008 -7.94064e-06 0
0.000195903 -7.87284e-06 0
0.000195903 -7.87284e-06 0
0.000211585 -7.79964e-06 0
0.000211585 -7.79964e-06 0
0.000227116 -7.72117e-06 0
0.000227116 -7.72117e-06 0
0.000242484 -7.63763e-06 0
0.000242484 -7.63763e-06 0
0.00025768 -7.54922e-06 0
0.00025768 -7.54922e-06 0
0.000272695 -7.45615e-06 0
0.000272695 -7.45615e-06 0
0.000287519 -7.35867e-06 0
0.000287519 -7.35867e-06 0
0.000302143 -7.25703e-06 0
0.000302143 -7.25703e-06 0
0.00031656 -7.15152e-06 0
0.00031656 -7.15152e-06 0
0.000330763 -7.04241e-06 0
0.000330763 -7.04241e-06 0
0.000344743 -6.93e-06 0
0.000344743 -6.93e-06 0
0.000358496 -6.8146e-06 0
0.000358496 -6.8146e-06 0
0.000372014 -6.69652e-06 0
0.000372014 -6.69652e-06 0
0.000385294 -6.57606e-06 0
0.000385294 -6.57606e-06 0
0.000398331 -6.45354e-06 0
0.000398331 -6.45354e-06 0
0.000411121 -6.32926e-06 0
0.000411121 -6.32926e-06 0
0.00042366 -6.20354e-06 0
0.00042366 -6.20354e-06 0
0.000435947 -6.07666e-06 0
0.000435947 -6.07666e-06 0
0.000447979 -5.94891e-06 0
0.000447979 -5.94891e-06 0
0.000459754 -5.82056e-06 0
0.000459754 -5.82056e-06 0
0.000471272 -5.69189e-06 0
0.000471272 -5.69189e-06 0
0.000482532 -5.56314e-06 0
0.000482532 -5.56314e-06 0
0.000493535 -5.43454e-06 0
0.000493535 -5.43454e-06 0
0.000504281 -5.30633e-06 0
0.000504281 -5.30633e-06 0
0.00051477 -5.1787e-06 0
0.00051477 -5.1787e-06 0
0.000525005 -5.05184e-06 0
0.000525005 -5.05184e-06 0
0.000534987 -4.92594e-06 0
0.000534987 -4.92594e-06 0
0.000544718 -4.80115e-06 0
0.000544718 -4.80115e-06 0
0.0005542 -4.67762e-06 0
0.0005542 -4.67762e-06 0
0.000563437 -4.55547e-06 0
0.000563437 -4.55547e-06 0
0.000572431 -4.43483e-06 0
0.000572431 -4.43483e-06 0
0.000581184 -4.31579e-06 0
0.000581184 -4.31579e-06 0
0.000589701 -4.19846e-06 0
0.000589701 -4.19846e-06 0
0.000597986 -4.08289e-06 0
0.000597986 -4.08289e-06 0
0.00060604 -3.96916e-06 0
0.00060604 -3.96916e-06 0
0.000613869 -3.85732e-06 0
0.000613869 -3.85732e-06 0
0.000621476 -3.74742e-06 0
0.000621476 -3.74742e-06 0
0.000628865 -3.63949e-06 0
0.000628865 -3.63949e-06 0
0.00063604 -3.53355e-06 0
0.00063604 -3.53355e-06 0
0.000643005 -3.42962e-06 0
0.000643005 -3.42962e-06 0
0.000649765 -3.32771e-06 0
0.000649765 -3.32771e-06 0
0.000656322 -3.22782e-06 0
0.000656322 -3.22782e-06 0
0.000662681 -3.12995e-06 0
0.000662681 -3.12995e-06 0
0.000668847 -3.03408e-06 0
0.000668847 -3.03408e-06 0
0.000674823 -2.94021e-06 0
0.000674823 -2.94021e-06 0
0.000680612 -2.8483e-06 0
0.000680612 -2.8483e-06 0
0.00068622 -2.75835e-06 0
0.00068622 -2.75835e-06 0
0.00069165 -2.67031e-06 0
0.00069165 -2.67031e-06 0
0.000696906 -2.58416e-06 0
0.000696906 -2.58416e-06 0
0.000701991 -2.49987e-06 0
0.000701991 -2.49987e-06 0
0.000706909 -2.41739e-06 0
0.000706909 -2.41739e-06 0
0.000711664 -2.33669e-06 0
0.000711664 -2.33669e-06 0
0.00071626 -2.25772e-06 0
0.00071626 -2.25772e-06 0
0.000720699 -2.18045e-06 0
0.000720699 -2.18045e-06 0
0.000724985 -2.10484e-06 0
0.000724985 -2.10484e-06 0
0.000729122 -2.03083e-06 0
0.000729122 -2.03083e-06 0
0.000733111 -1.95838e-06 0
0.000733111 -1.95838e-06 0
0.000736958 -1.88744e-06 0
0.000736958 -1.88744e-06 0
0.000740664 -1.81797e-06 0
0.000740664 -1.81797e-06 0
0.000744233 -1.74993e-06 0
0.000744233 -1.74993e-06 0
0.000747667 -1.68326e-06 0
0.000747667 -1.68326e-06 0
0.000750968 -1.61791e-06 0
0.000750968 -1.61791e-06 0
0.000754141 -1.55384e-06 0
0.000754141 -1.55384e-06 0
0.000757186 -1.491e-06 0
0.000757186 -1.491e-06 0
0.000760107 -1.42934e-06 0
0.000760107 -1.42934e-06 0
0.000762906 -1.36882e-06 0
0.000762906 -1.36882e-06 0
0.000765584 -1.30939e-06 0
0.000765584 -1.30939e-06 0
0.000768145 -1.251e-06 0
0.000768145 -1.251e-06 0
0.00077059 -1.19361e-06 0
0.00077059 -1.19361e-06 0
0.000772921 -1.13716e-06 0
0.000772921 -1.13716e-06 0
0.000775141 -1.08162e-06 0
0.000775141 -1.08162e-06 0
0.00077725 -1.02694e-06 0
0.00077725 -1.02694e-06 0
0.00077925 -9.73072e-07 0
0.00077925 -9.73072e-07 0
0.000781143 -9.19974e-07 0
0.000781143 -9.19974e-07 0
0.000782931 -8.67601e-07 0
0.000782931 -8.67601e-07 0
0.000784615 -8.1591e-07 0
0.000784615 -8.1591e-07 0
0.000786196 -7.64858e-07 0
0.000786196 -7.64858e-07 0
0.000787676 -7.14402e-07 0
0.000787676 -7.14402e-07 0
0.000789055 -6.645e-07 0
0.000789055 -6.645e-07 0
0.000790335 -6.15105e-07 0
0.000790335 -6.15105e-07 0
0.000791516 -5.66197e-07 0
0.000791516 -5.66197e-07 0
0.000792601 -5.17634e-07 0
0.000792601 -5.17634e-07 0
0.000793587 -4.69779e-07 0
0.000793587 -4.69779e-07 0
0.000794481 -4.21207e-07 0
0.000794481 -4.21207e-07 0
0.000795271 -3.75816e-07 0
0.000795271 -3.75816e-07 0
0.000795989 -3.24493e-07 0
0.000795989 -3.24493e-07 0
0.000796562 -2.83586e-07 0
0.000796562 -2.83586e-07 0
0.997572 -0.000233028 0
0.997572 -0.000233028 0
1.99435 -0.000465783 0
1.99435 -0.000465783 0
