/*--------------------------------*- C++ -*----------------------------------*\
| =========                 |                                                 |
| \\      /  F ield         | OpenFOAM: The Open Source CFD Toolbox           |
|  \\    /   O peration     | Version:  4.1                                   |
|   \\  /    A nd           | Web:      www.OpenFOAM.org                      |
|    \\/     M anipulation  |                                                 |
\*---------------------------------------------------------------------------*/
FoamFile
{
    version     2.0;
    format      ascii;
    class       surfaceScalarField;
    location    "100";
    object      phi;
}
// * * * * * * * * * * * * * * * * * * * * * * * * * * * * * * * * * * * * * //

dimensions      [0 3 -1 0 0 0 0];

internalField   nonuniform List<scalar> 
87025
(
1.89904e-05
1.00961e-06
1.72865e-05
1.70393e-06
1.54775e-05
1.80892e-06
1.3731e-05
1.74657e-06
1.21147e-05
1.61625e-06
1.06797e-05
1.43505e-06
9.44596e-06
1.2337e-06
8.40799e-06
1.03797e-06
7.54771e-06
8.60284e-07
6.84169e-06
7.0602e-07
6.26509e-06
5.76592e-07
5.79404e-06
4.7105e-07
5.40707e-06
3.86973e-07
5.08582e-06
3.21251e-07
4.81516e-06
2.70658e-07
4.583e-06
2.32164e-07
4.37992e-06
2.03079e-07
4.19878e-06
1.81139e-07
4.03427e-06
1.64506e-07
3.88255e-06
1.51724e-07
3.74088e-06
1.41673e-07
3.60736e-06
1.33517e-07
3.48072e-06
1.26644e-07
3.3601e-06
1.20616e-07
3.24498e-06
1.15125e-07
3.13502e-06
1.09958e-07
3.03004e-06
1.04978e-07
2.92993e-06
1.00108e-07
2.83461e-06
9.53273e-08
2.74394e-06
9.06663e-08
2.65774e-06
8.61997e-08
2.57571e-06
8.20315e-08
2.49743e-06
7.8275e-08
2.42241e-06
7.50267e-08
2.35006e-06
7.23445e-08
2.27983e-06
7.02325e-08
2.21119e-06
6.86391e-08
2.14372e-06
6.74653e-08
2.07714e-06
6.6582e-08
2.01129e-06
6.58514e-08
1.94614e-06
6.51478e-08
1.88177e-06
6.43739e-08
1.8183e-06
6.34707e-08
1.75588e-06
6.24214e-08
1.69463e-06
6.12465e-08
1.63464e-06
5.99953e-08
1.5759e-06
5.87338e-08
1.51837e-06
5.75329e-08
1.46191e-06
5.64585e-08
1.40635e-06
5.55636e-08
1.35147e-06
5.48819e-08
1.29704e-06
5.44236e-08
1.24287e-06
5.41747e-08
1.18877e-06
5.41e-08
1.13462e-06
5.41496e-08
1.08035e-06
5.42672e-08
1.02595e-06
5.43986e-08
9.71453e-07
5.44982e-08
9.16922e-07
5.45316e-08
8.62446e-07
5.44756e-08
8.0813e-07
5.43161e-08
7.54085e-07
5.40451e-08
7.00427e-07
5.36579e-08
6.47275e-07
5.31517e-08
5.94751e-07
5.25242e-08
5.42978e-07
5.17732e-08
4.92082e-07
5.08963e-08
4.4219e-07
4.98913e-08
3.93434e-07
4.87559e-08
3.45946e-07
4.74881e-08
2.9986e-07
4.60859e-08
2.55313e-07
4.45477e-08
2.1244e-07
4.28725e-08
1.71381e-07
4.10596e-08
1.32271e-07
3.91094e-08
9.52486e-08
3.70226e-08
6.04475e-08
3.4801e-08
2.80009e-08
3.24466e-08
-1.95974e-09
2.99606e-08
-2.93281e-08
2.73684e-08
-5.40056e-08
2.46775e-08
-7.58982e-08
2.18926e-08
-9.48968e-08
1.89986e-08
-1.10939e-07
1.60419e-08
-1.23968e-07
1.30297e-08
-1.33958e-07
9.98927e-09
-1.40913e-07
6.95518e-09
-1.4487e-07
3.95723e-09
-1.45939e-07
1.06924e-09
-1.44188e-07
-1.75142e-09
-1.39715e-07
-4.47258e-09
-1.32851e-07
-6.86401e-09
-1.24e-07
-8.85181e-09
-1.1372e-07
-1.028e-08
-1.02722e-07
-1.09977e-08
-9.15293e-08
-1.11926e-08
-7.9279e-08
-1.22503e-08
-6.17651e-08
-1.75139e-08
-3.2587e-08
-2.91781e-08
-3.2587e-08
2.06193e-05
3.90333e-07
2.12418e-05
1.08142e-06
2.15545e-05
1.49624e-06
2.15637e-05
1.73739e-06
2.13107e-05
1.86917e-06
2.0848e-05
1.89779e-06
2.02388e-05
1.84289e-06
1.95407e-05
1.73606e-06
1.87983e-05
1.60268e-06
1.80448e-05
1.45952e-06
1.73037e-05
1.31775e-06
1.659e-05
1.18469e-06
1.59126e-05
1.06441e-06
1.52754e-05
9.58418e-07
1.46795e-05
8.66594e-07
1.41238e-05
7.8787e-07
1.36062e-05
7.20683e-07
1.3124e-05
6.63355e-07
1.26742e-05
6.14252e-07
1.22541e-05
5.71876e-07
1.18608e-05
5.3492e-07
1.14921e-05
5.02284e-07
1.11456e-05
4.73069e-07
1.08197e-05
4.46555e-07
1.05126e-05
4.22183e-07
1.02231e-05
3.99532e-07
9.94973e-06
3.7831e-07
9.69149e-06
3.58347e-07
9.44723e-06
3.39593e-07
9.21579e-06
3.22107e-07
8.99594e-06
3.06043e-07
8.78637e-06
2.91606e-07
8.58563e-06
2.79011e-07
8.39224e-06
2.68416e-07
8.20472e-06
2.59868e-07
8.02168e-06
2.53268e-07
7.84196e-06
2.48361e-07
7.66467e-06
2.44754e-07
7.48929e-06
2.41969e-07
7.31563e-06
2.39509e-07
7.14385e-06
2.36931e-07
6.9743e-06
2.33915e-07
6.80747e-06
2.30303e-07
6.64378e-06
2.2611e-07
6.48353e-06
2.21504e-07
6.32677e-06
2.16754e-07
6.17333e-06
2.12173e-07
6.0228e-06
2.08057e-07
5.87462e-06
2.04643e-07
5.7281e-06
2.02079e-07
5.58257e-06
2.00414e-07
5.43739e-06
1.99603e-07
5.29204e-06
1.9953e-07
5.14611e-06
2.00026e-07
4.99936e-06
2.00905e-07
4.85164e-06
2.01981e-07
4.70294e-06
2.03096e-07
4.55332e-06
2.04126e-07
4.40286e-06
2.04983e-07
4.25173e-06
2.05611e-07
4.10007e-06
2.05975e-07
3.94806e-06
2.06054e-07
3.79588e-06
2.05835e-07
3.64373e-06
2.05306e-07
3.4918e-06
2.04456e-07
3.3403e-06
2.03274e-07
3.18944e-06
2.01748e-07
3.03947e-06
1.99868e-07
2.8906e-06
1.97621e-07
2.74309e-06
1.94998e-07
2.59719e-06
1.9199e-07
2.45315e-06
1.88588e-07
2.31124e-06
1.84786e-07
2.17172e-06
1.80579e-07
2.03486e-06
1.75967e-07
1.90093e-06
1.70951e-07
1.7702e-06
1.65535e-07
1.64291e-06
1.59729e-07
1.51933e-06
1.53547e-07
1.39968e-06
1.47014e-07
1.28421e-06
1.40154e-07
1.1731e-06
1.32998e-07
1.06652e-06
1.25576e-07
9.64625e-07
1.1794e-07
8.67508e-07
1.10147e-07
7.75235e-07
1.02262e-07
6.87824e-07
9.43663e-08
6.05233e-07
8.65484e-08
5.27388e-07
7.89141e-08
4.54076e-07
7.15613e-08
3.84952e-07
6.4651e-08
3.19681e-07
5.8407e-08
2.57741e-07
5.30881e-08
1.98442e-07
4.90194e-08
1.41033e-07
4.64111e-08
8.53256e-08
4.45148e-08
3.36811e-08
3.93942e-08
-5.4146e-09
2.15818e-08
-1.70085e-08
-1.75842e-08
-4.95955e-08
2.01347e-05
2.55613e-07
2.05109e-05
7.05232e-07
2.09616e-05
1.04559e-06
2.14113e-05
1.28768e-06
2.18123e-05
1.46808e-06
2.21177e-05
1.5924e-06
2.23026e-05
1.65799e-06
2.23653e-05
1.67335e-06
2.23163e-05
1.65173e-06
2.21712e-05
1.60461e-06
2.19477e-05
1.54127e-06
2.1663e-05
1.46933e-06
2.13328e-05
1.39464e-06
2.09701e-05
1.32116e-06
2.05854e-05
1.25126e-06
2.01872e-05
1.1861e-06
1.97818e-05
1.12607e-06
1.93741e-05
1.07104e-06
1.89678e-05
1.02058e-06
1.85655e-05
9.7414e-07
1.81693e-05
9.31096e-07
1.77807e-05
8.90875e-07
1.74008e-05
8.52962e-07
1.70305e-05
8.16934e-07
1.66702e-05
7.82463e-07
1.63204e-05
7.49329e-07
1.59813e-05
7.17421e-07
1.56529e-05
6.86746e-07
1.5335e-05
6.57428e-07
1.50274e-05
6.29702e-07
1.47296e-05
6.03894e-07
1.44408e-05
5.80387e-07
1.41603e-05
5.5956e-07
1.38869e-05
5.41731e-07
1.36197e-05
5.27083e-07
1.33574e-05
5.1561e-07
1.30987e-05
5.07081e-07
1.28424e-05
5.01037e-07
1.25875e-05
4.96818e-07
1.23334e-05
4.93628e-07
1.20797e-05
4.90621e-07
1.18266e-05
4.87009e-07
1.15748e-05
4.82172e-07
1.13251e-05
4.75748e-07
1.10789e-05
4.67697e-07
1.08374e-05
4.58314e-07
1.06014e-05
4.48184e-07
1.03713e-05
4.38086e-07
1.01471e-05
4.28846e-07
9.92802e-06
4.21183e-07
9.71286e-06
4.15575e-07
9.50027e-06
4.12191e-07
9.28891e-06
4.10895e-07
9.07761e-06
4.11319e-07
8.86554e-06
4.12977e-07
8.65215e-06
4.15378e-07
8.43714e-06
4.18102e-07
8.22043e-06
4.2084e-07
8.00202e-06
4.23393e-07
7.78198e-06
4.25646e-07
7.56042e-06
4.27536e-07
7.33745e-06
4.29027e-07
7.11319e-06
4.30091e-07
6.8878e-06
4.30704e-07
6.66141e-06
4.30838e-07
6.43422e-06
4.30468e-07
6.2064e-06
4.29565e-07
5.97817e-06
4.28101e-07
5.74974e-06
4.26051e-07
5.52135e-06
4.23388e-07
5.29325e-06
4.20088e-07
5.06571e-06
4.16131e-07
4.839e-06
4.11497e-07
4.61341e-06
4.06173e-07
4.38922e-06
4.00149e-07
4.16675e-06
3.93421e-07
3.94629e-06
3.85992e-07
3.72815e-06
3.77872e-07
3.51262e-06
3.6908e-07
3.29999e-06
3.59645e-07
3.09053e-06
3.49607e-07
2.88452e-06
3.39016e-07
2.68216e-06
3.2793e-07
2.48367e-06
3.16428e-07
2.28922e-06
3.04604e-07
2.09891e-06
2.92564e-07
1.91284e-06
2.80439e-07
1.73102e-06
2.68372e-07
1.5534e-06
2.56531e-07
1.37986e-06
2.45108e-07
1.21017e-06
2.34338e-07
1.04406e-06
2.24513e-07
8.81166e-07
2.15984e-07
7.21041e-07
2.09145e-07
5.63295e-07
2.04157e-07
4.08144e-07
1.99666e-07
2.58392e-07
1.89146e-07
1.24296e-07
1.55677e-07
2.9044e-08
7.76682e-08
-2.05515e-08
2.00745e-05
1.81114e-07
2.02522e-05
5.27503e-07
2.04852e-05
8.12571e-07
2.07469e-05
1.02605e-06
2.103e-05
1.18492e-06
2.13205e-05
1.30195e-06
2.15975e-05
1.38095e-06
2.18439e-05
1.42695e-06
2.20482e-05
1.44748e-06
2.22035e-05
1.44925e-06
2.23074e-05
1.43739e-06
2.23607e-05
1.4161e-06
2.23664e-05
1.38889e-06
2.23291e-05
1.35849e-06
2.22536e-05
1.32679e-06
2.21447e-05
1.29501e-06
2.20069e-05
1.26383e-06
2.18444e-05
1.23356e-06
2.16607e-05
1.20425e-06
2.14591e-05
1.17578e-06
2.12422e-05
1.14794e-06
2.10126e-05
1.12051e-06
2.07723e-05
1.09327e-06
2.05232e-05
1.06604e-06
2.02669e-05
1.03872e-06
2.0005e-05
1.01129e-06
1.97386e-05
9.83813e-07
1.94688e-05
9.56481e-07
1.91967e-05
9.2958e-07
1.89229e-05
9.03502e-07
1.8648e-05
8.78724e-07
1.83727e-05
8.5577e-07
1.80971e-05
8.35163e-07
1.78214e-05
8.1737e-07
1.75458e-05
8.02736e-07
1.72699e-05
7.91429e-07
1.69936e-05
7.83404e-07
1.67163e-05
7.78381e-07
1.64372e-05
7.75857e-07
1.61557e-05
7.75133e-07
1.5871e-05
7.75363e-07
1.55824e-05
7.75615e-07
1.52896e-05
7.74931e-07
1.4993e-05
7.72399e-07
1.46934e-05
7.67261e-07
1.43927e-05
7.59039e-07
1.40932e-05
7.47699e-07
1.37975e-05
7.3377e-07
1.3508e-05
7.18345e-07
1.32263e-05
7.02926e-07
1.29527e-05
6.8911e-07
1.26867e-05
6.78215e-07
1.24266e-05
6.70993e-07
1.21704e-05
6.67514e-07
1.19161e-05
6.67271e-07
1.16621e-05
6.69416e-07
1.14071e-05
6.73038e-07
1.11506e-05
6.77364e-07
1.08921e-05
6.81859e-07
1.06316e-05
6.8621e-07
1.03689e-05
6.9026e-07
1.01039e-05
6.93934e-07
9.83685e-06
6.97188e-07
9.56757e-06
6.99978e-07
9.29615e-06
7.0226e-07
9.02264e-06
7.03982e-07
8.74711e-06
7.05092e-07
8.46967e-06
7.05542e-07
8.19044e-06
7.05281e-07
7.90956e-06
7.04264e-07
7.6272e-06
7.02445e-07
7.34355e-06
6.99784e-07
7.05881e-06
6.96243e-07
6.77319e-06
6.91791e-07
6.48693e-06
6.86403e-07
6.20029e-06
6.80061e-07
5.91353e-06
6.72756e-07
5.62691e-06
6.6449e-07
5.34071e-06
6.55277e-07
5.05522e-06
6.45142e-07
4.7707e-06
6.34127e-07
4.48742e-06
6.2229e-07
4.20565e-06
6.09704e-07
3.92561e-06
5.96463e-07
3.64753e-06
5.82684e-07
3.3716e-06
5.68503e-07
3.09795e-06
5.54084e-07
2.82671e-06
5.39614e-07
2.55793e-06
5.25306e-07
2.29163e-06
5.11409e-07
2.02776e-06
4.98208e-07
1.76624e-06
4.86037e-07
1.50694e-06
4.75277e-07
1.24977e-06
4.66323e-07
9.94671e-07
4.59251e-07
7.42107e-07
4.5223e-07
4.94821e-07
4.36432e-07
2.63766e-07
3.86733e-07
7.96109e-08
2.61823e-07
5.90594e-08
2.00411e-05
1.40013e-07
2.01516e-05
4.17039e-07
2.03046e-05
6.59586e-07
2.04769e-05
8.53675e-07
2.06587e-05
1.00316e-06
2.08445e-05
1.11615e-06
2.1028e-05
1.19741e-06
2.12037e-05
1.25126e-06
2.13677e-05
1.28355e-06
2.15168e-05
1.30008e-06
2.16488e-05
1.30546e-06
2.17616e-05
1.30323e-06
2.18543e-05
1.29616e-06
2.19265e-05
1.28632e-06
2.19782e-05
1.27515e-06
2.20096e-05
1.26354e-06
2.20215e-05
1.25199e-06
2.20144e-05
1.24067e-06
2.1989e-05
1.22961e-06
2.19461e-05
1.21865e-06
2.18865e-05
1.20761e-06
2.18107e-05
1.19626e-06
2.17196e-05
1.1844e-06
2.16138e-05
1.17186e-06
2.14939e-05
1.15855e-06
2.13608e-05
1.14443e-06
2.1215e-05
1.1296e-06
2.10573e-05
1.11421e-06
2.08883e-05
1.09856e-06
2.07088e-05
1.08303e-06
2.05194e-05
1.06808e-06
2.03209e-05
1.05423e-06
2.01141e-05
1.04201e-06
1.98996e-05
1.03192e-06
1.96779e-05
1.02438e-06
1.94497e-05
1.01966e-06
1.92152e-05
1.01788e-06
1.89746e-05
1.01897e-06
1.87278e-05
1.02268e-06
1.84743e-05
1.0286e-06
1.82135e-05
1.03616e-06
1.79445e-05
1.04468e-06
1.7666e-05
1.05335e-06
1.73773e-05
1.06115e-06
1.70777e-05
1.06685e-06
1.67677e-05
1.06908e-06
1.64488e-05
1.06654e-06
1.61242e-05
1.05839e-06
1.57979e-05
1.04469e-06
1.54742e-05
1.02659e-06
1.5157e-05
1.00628e-06
1.48488e-05
9.86464e-07
1.45501e-05
9.69682e-07
1.426e-05
9.57646e-07
1.39763e-05
9.50934e-07
1.36966e-05
9.49075e-07
1.34187e-05
9.50937e-07
1.31409e-05
9.55211e-07
1.2862e-05
9.60773e-07
1.25813e-05
9.66853e-07
1.22986e-05
9.73014e-07
1.20135e-05
9.79043e-07
1.17258e-05
9.84836e-07
1.14355e-05
9.90321e-07
1.11423e-05
9.95424e-07
1.08462e-05
1.00007e-06
1.05472e-05
1.00417e-06
1.02451e-05
1.00764e-06
9.93992e-06
1.01042e-06
9.63175e-06
1.01243e-06
9.32058e-06
1.01361e-06
9.00649e-06
1.01387e-06
8.68956e-06
1.01318e-06
8.36988e-06
1.01147e-06
8.04759e-06
1.00869e-06
7.72284e-06
1.00481e-06
7.39579e-06
9.99805e-07
7.06663e-06
9.93652e-07
6.73556e-06
9.86352e-07
6.40278e-06
9.77917e-07
6.06853e-06
9.68378e-07
5.73304e-06
9.57785e-07
5.39653e-06
9.46209e-07
5.05925e-06
9.33745e-07
4.72142e-06
9.20512e-07
4.38327e-06
9.06657e-07
4.045e-06
8.92357e-07
3.70679e-06
8.77816e-07
3.36883e-06
8.63271e-07
3.03125e-06
8.48992e-07
2.69417e-06
8.35285e-07
2.35772e-06
8.22492e-07
2.02201e-06
8.10987e-07
1.6872e-06
8.01126e-07
1.35356e-06
7.92894e-07
1.02171e-06
7.84079e-07
6.94415e-07
7.63729e-07
3.83245e-07
6.97902e-07
1.24583e-07
5.20485e-07
1.83642e-07
2.00255e-05
1.14477e-07
2.01005e-05
3.42073e-07
2.0211e-05
5.49077e-07
2.03406e-05
7.24117e-07
2.04778e-05
8.65912e-07
2.06158e-05
9.78111e-07
2.07493e-05
1.06398e-06
2.08741e-05
1.12644e-06
2.09883e-05
1.16935e-06
2.10913e-05
1.1971e-06
2.11831e-05
1.21365e-06
2.12641e-05
1.22223e-06
2.13348e-05
1.22546e-06
2.13957e-05
1.22539e-06
2.14473e-05
1.22353e-06
2.149e-05
1.22091e-06
2.15238e-05
1.21816e-06
2.15488e-05
1.21562e-06
2.1565e-05
1.2134e-06
2.15722e-05
1.21149e-06
2.157e-05
1.20977e-06
2.15582e-05
1.20808e-06
2.15364e-05
1.20623e-06
2.15042e-05
1.20407e-06
2.14612e-05
1.20149e-06
2.14072e-05
1.19842e-06
2.1342e-05
1.19488e-06
2.12652e-05
1.19098e-06
2.11768e-05
1.18691e-06
2.10769e-05
1.18294e-06
2.09656e-05
1.17942e-06
2.08431e-05
1.17676e-06
2.07097e-05
1.17539e-06
2.05659e-05
1.17573e-06
2.04121e-05
1.17816e-06
2.02488e-05
1.18295e-06
2.00764e-05
1.1903e-06
1.98951e-05
1.20026e-06
1.9705e-05
1.21276e-06
1.95059e-05
1.22766e-06
1.92974e-05
1.24473e-06
1.90783e-05
1.26371e-06
1.88475e-05
1.28422e-06
1.8603e-05
1.30563e-06
1.8343e-05
1.32682e-06
1.80661e-05
1.34602e-06
1.77717e-05
1.36086e-06
1.74613e-05
1.36879e-06
1.71382e-05
1.36787e-06
1.68072e-05
1.35754e-06
1.64743e-05
1.33914e-06
1.6145e-05
1.31578e-06
1.58232e-05
1.29151e-06
1.55107e-05
1.2702e-06
1.52071e-05
1.25451e-06
1.49107e-05
1.24545e-06
1.46191e-05
1.24251e-06
1.433e-05
1.24431e-06
1.40415e-05
1.24926e-06
1.37524e-05
1.256e-06
1.34618e-05
1.26364e-06
1.31691e-05
1.2717e-06
1.2874e-05
1.2799e-06
1.25762e-05
1.28812e-06
1.22754e-05
1.29623e-06
1.19714e-05
1.30412e-06
1.16639e-05
1.31167e-06
1.13528e-05
1.31878e-06
1.10379e-05
1.32532e-06
1.07191e-05
1.33121e-06
1.03963e-05
1.33635e-06
1.00696e-05
1.34065e-06
9.73871e-06
1.34402e-06
9.40378e-06
1.3464e-06
9.06478e-06
1.3477e-06
8.72172e-06
1.34787e-06
8.37467e-06
1.34686e-06
8.0237e-06
1.34462e-06
7.6689e-06
1.34115e-06
7.3104e-06
1.33642e-06
6.94833e-06
1.33044e-06
6.58286e-06
1.32326e-06
6.21414e-06
1.31492e-06
5.84238e-06
1.30551e-06
5.46778e-06
1.29512e-06
5.09054e-06
1.2839e-06
4.71089e-06
1.27201e-06
4.32905e-06
1.25965e-06
3.94526e-06
1.24706e-06
3.55976e-06
1.2345e-06
3.17278e-06
1.22226e-06
2.78461e-06
1.21067e-06
2.39553e-06
1.20006e-06
2.00591e-06
1.19075e-06
1.61619e-06
1.18262e-06
1.22716e-06
1.17311e-06
8.41722e-07
1.14917e-06
4.72115e-07
1.06751e-06
1.5881e-07
8.3379e-07
3.42452e-07
2.00179e-05
9.66195e-08
2.00709e-05
2.88994e-07
2.01518e-05
4.68226e-07
2.025e-05
6.25876e-07
2.03569e-05
7.59035e-07
2.04662e-05
8.68781e-07
2.05731e-05
9.57101e-07
2.06735e-05
1.02601e-06
2.07649e-05
1.07805e-06
2.08457e-05
1.11624e-06
2.09158e-05
1.1436e-06
2.09753e-05
1.16272e-06
2.10249e-05
1.17583e-06
2.10655e-05
1.18475e-06
2.10981e-05
1.19093e-06
2.11236e-05
1.19547e-06
2.11426e-05
1.19912e-06
2.11558e-05
1.2024e-06
2.11636e-05
1.20562e-06
2.11662e-05
1.20894e-06
2.11636e-05
1.21241e-06
2.11556e-05
1.21602e-06
2.11421e-05
1.21972e-06
2.11227e-05
1.22347e-06
2.1097e-05
1.2272e-06
2.10645e-05
1.23092e-06
2.10247e-05
1.23466e-06
2.09772e-05
1.23849e-06
2.09216e-05
1.24258e-06
2.08574e-05
1.24712e-06
2.07844e-05
1.25239e-06
2.07025e-05
1.25867e-06
2.06116e-05
1.2663e-06
2.05117e-05
1.27559e-06
2.0403e-05
1.28686e-06
2.02856e-05
1.30034e-06
2.01597e-05
1.31621e-06
2.00254e-05
1.33458e-06
1.98827e-05
1.35549e-06
1.97314e-05
1.37897e-06
1.95711e-05
1.40506e-06
1.94009e-05
1.4339e-06
1.92194e-05
1.46567e-06
1.90247e-05
1.50034e-06
1.88142e-05
1.53734e-06
1.85851e-05
1.57508e-06
1.83353e-05
1.61073e-06
1.80637e-05
1.6404e-06
1.77715e-05
1.66005e-06
1.74623e-05
1.66672e-06
1.71417e-05
1.65977e-06
1.6816e-05
1.64141e-06
1.64914e-05
1.61615e-06
1.61721e-05
1.58952e-06
1.58602e-05
1.56639e-06
1.55558e-05
1.54987e-06
1.52574e-05
1.5409e-06
1.4963e-05
1.53869e-06
1.46706e-05
1.54162e-06
1.43787e-05
1.54794e-06
1.4086e-05
1.55632e-06
1.37918e-05
1.5659e-06
1.34955e-05
1.57621e-06
1.31967e-05
1.58697e-06
1.28949e-05
1.59802e-06
1.25898e-05
1.60919e-06
1.22811e-05
1.62032e-06
1.19687e-05
1.63127e-06
1.16521e-05
1.64189e-06
1.13312e-05
1.65207e-06
1.10059e-05
1.66168e-06
1.0676e-05
1.6706e-06
1.03412e-05
1.67874e-06
1.00016e-05
1.68599e-06
9.65709e-06
1.69226e-06
9.30749e-06
1.69747e-06
8.95281e-06
1.70154e-06
8.59301e-06
1.70442e-06
8.22809e-06
1.70606e-06
7.85809e-06
1.70643e-06
7.48303e-06
1.7055e-06
7.103e-06
1.70329e-06
6.71809e-06
1.69983e-06
6.32842e-06
1.69517e-06
5.93414e-06
1.6894e-06
5.53542e-06
1.68261e-06
5.13247e-06
1.67496e-06
4.7255e-06
1.66662e-06
4.31477e-06
1.65779e-06
3.90056e-06
1.64871e-06
3.48317e-06
1.63964e-06
3.06297e-06
1.63087e-06
2.64036e-06
1.62267e-06
2.2158e-06
1.61531e-06
1.78985e-06
1.60857e-06
1.36343e-06
1.59953e-06
9.39632e-07
1.57297e-06
5.31369e-07
1.47577e-06
1.81926e-07
1.18323e-06
5.24378e-07
2.00129e-05
8.36722e-08
2.00515e-05
2.50439e-07
2.01115e-05
4.08266e-07
2.01864e-05
5.50988e-07
2.02698e-05
6.75561e-07
2.03568e-05
7.81781e-07
2.04433e-05
8.70648e-07
2.05258e-05
9.43497e-07
2.06018e-05
1.00204e-06
2.06697e-05
1.04839e-06
2.07285e-05
1.08475e-06
2.07781e-05
1.11317e-06
2.08184e-05
1.13544e-06
2.08501e-05
1.1531e-06
2.08736e-05
1.16743e-06
2.08896e-05
1.17943e-06
2.08989e-05
1.18987e-06
2.0902e-05
1.19931e-06
2.08994e-05
1.20815e-06
2.08917e-05
1.21666e-06
2.08791e-05
1.22501e-06
2.08618e-05
1.23331e-06
2.08399e-05
1.24163e-06
2.08134e-05
1.25e-06
2.07821e-05
1.25849e-06
2.07459e-05
1.26715e-06
2.07044e-05
1.27607e-06
2.06576e-05
1.28537e-06
2.0605e-05
1.29519e-06
2.05463e-05
1.30575e-06
2.04815e-05
1.31726e-06
2.04101e-05
1.32998e-06
2.03323e-05
1.34417e-06
2.02478e-05
1.3601e-06
2.01566e-05
1.37802e-06
2.00588e-05
1.39813e-06
1.99544e-05
1.42062e-06
1.98434e-05
1.44559e-06
1.97257e-05
1.47315e-06
1.96013e-05
1.50343e-06
1.94697e-05
1.53669e-06
1.93302e-05
1.57339e-06
1.91816e-05
1.6142e-06
1.90222e-05
1.65977e-06
1.88493e-05
1.71023e-06
1.86598e-05
1.76454e-06
1.84507e-05
1.81991e-06
1.82194e-05
1.8717e-06
1.79652e-05
1.91426e-06
1.76895e-05
1.94235e-06
1.73963e-05
1.953e-06
1.7091e-05
1.94667e-06
1.67799e-05
1.92733e-06
1.64681e-05
1.90123e-06
1.61596e-05
1.87493e-06
1.5856e-05
1.85351e-06
1.55572e-05
1.83964e-06
1.52623e-05
1.83362e-06
1.49697e-05
1.83424e-06
1.46779e-05
1.83972e-06
1.43858e-05
1.84844e-06
1.40924e-05
1.85924e-06
1.37972e-05
1.87143e-06
1.34996e-05
1.88461e-06
1.31991e-05
1.8985e-06
1.28954e-05
1.91291e-06
1.25881e-05
1.92762e-06
1.22769e-05
1.94247e-06
1.19615e-05
1.95728e-06
1.16416e-05
1.9719e-06
1.13171e-05
1.98619e-06
1.09877e-05
2.00001e-06
1.06532e-05
2.01324e-06
1.03134e-05
2.02575e-06
9.96825e-06
2.03745e-06
9.6175e-06
2.04822e-06
9.26107e-06
2.05798e-06
8.89885e-06
2.06664e-06
8.53078e-06
2.07413e-06
8.15679e-06
2.08041e-06
7.77687e-06
2.08542e-06
7.39101e-06
2.08916e-06
6.99924e-06
2.09161e-06
6.60161e-06
2.0928e-06
6.19821e-06
2.09279e-06
5.78917e-06
2.09165e-06
5.37465e-06
2.08948e-06
4.95484e-06
2.08643e-06
4.52998e-06
2.08265e-06
4.10037e-06
2.07833e-06
3.66632e-06
2.07369e-06
3.22822e-06
2.06896e-06
2.78653e-06
2.06437e-06
2.34175e-06
2.06009e-06
1.89449e-06
2.05583e-06
1.44574e-06
2.04828e-06
9.98795e-07
2.01991e-06
5.67155e-07
1.90741e-06
1.95964e-07
1.55442e-06
7.20342e-07
2.00096e-05
7.40724e-08
2.00383e-05
2.21762e-07
2.00835e-05
3.63053e-07
2.01411e-05
4.93419e-07
2.02064e-05
6.1019e-07
2.02756e-05
7.12609e-07
2.03452e-05
8.01e-07
2.04126e-05
8.76156e-07
2.04754e-05
9.39217e-07
2.05322e-05
9.91649e-07
2.05818e-05
1.03508e-06
2.06239e-05
1.0711e-06
2.06582e-05
1.10116e-06
2.06847e-05
1.12653e-06
2.07038e-05
1.14832e-06
2.07158e-05
1.16743e-06
2.07211e-05
1.18457e-06
2.07202e-05
1.2003e-06
2.07133e-05
1.21505e-06
2.07008e-05
1.22913e-06
2.0683e-05
1.24277e-06
2.06602e-05
1.25615e-06
2.06324e-05
1.26939e-06
2.05998e-05
1.2826e-06
2.05624e-05
1.29589e-06
2.05202e-05
1.30936e-06
2.04731e-05
1.32315e-06
2.04211e-05
1.3374e-06
2.0364e-05
1.35227e-06
2.03018e-05
1.36796e-06
2.02344e-05
1.38469e-06
2.01617e-05
1.4027e-06
2.00836e-05
1.42221e-06
2.00003e-05
1.44346e-06
1.99116e-05
1.46668e-06
1.98177e-05
1.49206e-06
1.97185e-05
1.51977e-06
1.96142e-05
1.54994e-06
1.95046e-05
1.58271e-06
1.93898e-05
1.61829e-06
1.92694e-05
1.6571e-06
1.91429e-05
1.69987e-06
1.90094e-05
1.7477e-06
1.88674e-05
1.80179e-06
1.87146e-05
1.86297e-06
1.85484e-05
1.9308e-06
1.83655e-05
2.00278e-06
1.81632e-05
2.07402e-06
1.79396e-05
2.13783e-06
1.76947e-05
2.18726e-06
1.74304e-05
2.21726e-06
1.71507e-05
2.22644e-06
1.68603e-05
2.21767e-06
1.65644e-05
2.19713e-06
1.62671e-05
2.17229e-06
1.59709e-05
2.14969e-06
1.5677e-05
2.13353e-06
1.53853e-05
2.1253e-06
1.50951e-05
2.12446e-06
1.48054e-05
2.12948e-06
1.45151e-05
2.13868e-06
1.42236e-05
2.15077e-06
1.39301e-05
2.16489e-06
1.36342e-05
2.1805e-06
1.33355e-05
2.19727e-06
1.30334e-05
2.21494e-06
1.27278e-05
2.23328e-06
1.24182e-05
2.25208e-06
1.21043e-05
2.27114e-06
1.17859e-05
2.29028e-06
1.14628e-05
2.30935e-06
1.11346e-05
2.32818e-06
1.08012e-05
2.34665e-06
1.04623e-05
2.36461e-06
1.01178e-05
2.38194e-06
9.76753e-06
2.39852e-06
9.41126e-06
2.41424e-06
9.04889e-06
2.42901e-06
8.68029e-06
2.44273e-06
8.30538e-06
2.45533e-06
7.92406e-06
2.46674e-06
7.5363e-06
2.47692e-06
7.14207e-06
2.48584e-06
6.74138e-06
2.49349e-06
6.33428e-06
2.49989e-06
5.92085e-06
2.50508e-06
5.50122e-06
2.50912e-06
5.07554e-06
2.51211e-06
4.64404e-06
2.51415e-06
4.20698e-06
2.51539e-06
3.76469e-06
2.51598e-06
3.31756e-06
2.51609e-06
2.86603e-06
2.51589e-06
2.41063e-06
2.51549e-06
1.95196e-06
2.51449e-06
1.49106e-06
2.50918e-06
1.03136e-06
2.47961e-06
5.86802e-07
2.35197e-06
2.03674e-07
1.93755e-06
9.24015e-07
2.00073e-05
6.68161e-08
2.0029e-05
2.00049e-07
2.00635e-05
3.28522e-07
2.01081e-05
4.48869e-07
2.01594e-05
5.58875e-07
2.02144e-05
6.57609e-07
2.02704e-05
7.45e-07
2.03251e-05
8.21446e-07
2.03766e-05
8.8768e-07
2.04235e-05
9.44716e-07
2.04649e-05
9.93737e-07
2.05e-05
1.03597e-06
2.05286e-05
1.07256e-06
2.05506e-05
1.10458e-06
2.05659e-05
1.13295e-06
2.05749e-05
1.15848e-06
2.05776e-05
1.18183e-06
2.05744e-05
1.20353e-06
2.05654e-05
1.22401e-06
2.0551e-05
1.24361e-06
2.05311e-05
1.26258e-06
2.05061e-05
1.28115e-06
2.04761e-05
1.29947e-06
2.0441e-05
1.31769e-06
2.04009e-05
1.33596e-06
2.03559e-05
1.3544e-06
2.03059e-05
1.37316e-06
2.02509e-05
1.39239e-06
2.01909e-05
1.41228e-06
2.01258e-05
1.433e-06
2.00557e-05
1.45477e-06
1.99807e-05
1.47779e-06
1.99006e-05
1.50229e-06
1.98156e-05
1.52847e-06
1.97257e-05
1.55655e-06
1.9631e-05
1.58672e-06
1.95317e-05
1.61913e-06
1.94276e-05
1.65394e-06
1.93191e-05
1.6913e-06
1.92058e-05
1.73151e-06
1.90878e-05
1.7751e-06
1.89647e-05
1.82305e-06
1.88356e-05
1.87679e-06
1.86993e-05
1.93802e-06
1.85542e-05
2.00809e-06
1.8398e-05
2.08706e-06
1.8228e-05
2.17275e-06
1.80418e-05
2.2602e-06
1.78375e-05
2.34212e-06
1.76143e-05
2.41044e-06
1.7373e-05
2.45861e-06
1.71158e-05
2.48369e-06
1.6846e-05
2.48739e-06
1.65677e-05
2.47543e-06
1.62845e-05
2.45555e-06
1.5999e-05
2.43518e-06
1.57129e-05
2.41958e-06
1.5427e-05
2.41127e-06
1.5141e-05
2.41044e-06
1.48545e-05
2.41594e-06
1.4567e-05
2.42624e-06
1.42777e-05
2.44001e-06
1.39863e-05
2.45633e-06
1.36922e-05
2.4746e-06
1.3395e-05
2.49442e-06
1.30945e-05
2.51551e-06
1.27901e-05
2.5376e-06
1.24818e-05
2.56045e-06
1.21691e-05
2.58386e-06
1.18517e-05
2.60762e-06
1.15295e-05
2.63155e-06
1.12022e-05
2.6555e-06
1.08695e-05
2.67931e-06
1.05313e-05
2.70282e-06
1.01874e-05
2.7259e-06
9.83747e-06
2.74841e-06
9.48148e-06
2.77024e-06
9.11922e-06
2.79127e-06
8.75056e-06
2.81138e-06
8.3754e-06
2.83049e-06
7.99363e-06
2.84851e-06
7.60518e-06
2.86537e-06
7.21e-06
2.88101e-06
6.8081e-06
2.8954e-06
6.39947e-06
2.90851e-06
5.98419e-06
2.92036e-06
5.56236e-06
2.93096e-06
5.13412e-06
2.94035e-06
4.69966e-06
2.9486e-06
4.25925e-06
2.9558e-06
3.81319e-06
2.96204e-06
3.36186e-06
2.96742e-06
2.9057e-06
2.97206e-06
2.44519e-06
2.97599e-06
1.98095e-06
2.97874e-06
1.514e-06
2.97613e-06
1.04788e-06
2.94573e-06
5.96773e-07
2.80308e-06
2.07595e-07
2.32673e-06
1.13161e-06
2.00056e-05
6.12609e-08
2.00222e-05
1.83412e-07
2.00488e-05
3.01914e-07
2.00835e-05
4.14214e-07
2.01238e-05
5.18517e-07
2.01675e-05
6.13897e-07
2.02124e-05
7.00078e-07
2.02567e-05
7.77198e-07
2.02987e-05
8.45701e-07
2.03371e-05
9.06278e-07
2.03711e-05
9.59784e-07
2.03999e-05
1.00714e-06
2.04232e-05
1.04927e-06
2.04407e-05
1.08704e-06
2.04524e-05
1.12123e-06
2.04584e-05
1.15253e-06
2.04587e-05
1.18156e-06
2.04534e-05
1.2088e-06
2.04427e-05
1.23469e-06
2.04268e-05
1.25955e-06
2.04057e-05
1.28368e-06
2.03795e-05
1.30731e-06
2.03484e-05
1.33062e-06
2.03123e-05
1.3538e-06
2.02712e-05
1.377e-06
2.02253e-05
1.40037e-06
2.01743e-05
1.42407e-06
2.01185e-05
1.44827e-06
2.00576e-05
1.47313e-06
1.99918e-05
1.49884e-06
1.9921e-05
1.52558e-06
1.98452e-05
1.55355e-06
1.97645e-05
1.58296e-06
1.9679e-05
1.614e-06
1.95887e-05
1.64687e-06
1.94937e-05
1.68174e-06
1.9394e-05
1.71877e-06
1.92899e-05
1.75811e-06
1.91812e-05
1.79995e-06
1.90681e-05
1.84464e-06
1.89503e-05
1.89285e-06
1.88276e-05
1.94575e-06
1.86993e-05
2.00511e-06
1.85643e-05
2.073e-06
1.84212e-05
2.15117e-06
1.82683e-05
2.24004e-06
1.81034e-05
2.3376e-06
1.79248e-05
2.43883e-06
1.77308e-05
2.53606e-06
1.75208e-05
2.62048e-06
1.72948e-05
2.68457e-06
1.70542e-05
2.72432e-06
1.68011e-05
2.74051e-06
1.65382e-05
2.7383e-06
1.62684e-05
2.7254e-06
1.59939e-05
2.70961e-06
1.57166e-05
2.69689e-06
1.54374e-05
2.6905e-06
1.51566e-05
2.69124e-06
1.48742e-05
2.69837e-06
1.45898e-05
2.71058e-06
1.43032e-05
2.72662e-06
1.4014e-05
2.74559e-06
1.37217e-05
2.76686e-06
1.34261e-05
2.79002e-06
1.31269e-05
2.81476e-06
1.28237e-05
2.84079e-06
1.25162e-05
2.86788e-06
1.22043e-05
2.89579e-06
1.18876e-05
2.9243e-06
1.15659e-05
2.95324e-06
1.1239e-05
2.98242e-06
1.09066e-05
3.01168e-06
1.05686e-05
3.04085e-06
1.02247e-05
3.06979e-06
9.87478e-06
3.09834e-06
9.51865e-06
3.12638e-06
9.15615e-06
3.15376e-06
8.78716e-06
3.18038e-06
8.41155e-06
3.2061e-06
8.02923e-06
3.23083e-06
7.64013e-06
3.25447e-06
7.24419e-06
3.27695e-06
6.8414e-06
3.29819e-06
6.43178e-06
3.31814e-06
6.01538e-06
3.33676e-06
5.59229e-06
3.35404e-06
5.16266e-06
3.36998e-06
4.72668e-06
3.38458e-06
4.28459e-06
3.39789e-06
3.83669e-06
3.40993e-06
3.38335e-06
3.42076e-06
2.92499e-06
3.43042e-06
2.46208e-06
3.4389e-06
1.99521e-06
3.44561e-06
1.52541e-06
3.44593e-06
1.05622e-06
3.41492e-06
6.01905e-07
3.2574e-06
2.09657e-07
2.71898e-06
1.34127e-06
2.00043e-05
5.69751e-08
2.00171e-05
1.70569e-07
2.00378e-05
2.8129e-07
2.00648e-05
3.87171e-07
2.00966e-05
4.86763e-07
2.01312e-05
5.79224e-07
2.01671e-05
6.64188e-07
2.02027e-05
7.41633e-07
2.02366e-05
8.11804e-07
2.02677e-05
8.7516e-07
2.02952e-05
9.32313e-07
2.03183e-05
9.83959e-07
2.03368e-05
1.03082e-06
2.03503e-05
1.07359e-06
2.03586e-05
1.11293e-06
2.03616e-05
1.14945e-06
2.03595e-05
1.18367e-06
2.03523e-05
1.21606e-06
2.03399e-05
1.24702e-06
2.03226e-05
1.27688e-06
2.03004e-05
1.30593e-06
2.02732e-05
1.33442e-06
2.02413e-05
1.36256e-06
2.02046e-05
1.39054e-06
2.0163e-05
1.41853e-06
2.01167e-05
1.4467e-06
2.00656e-05
1.47521e-06
2.00096e-05
1.50423e-06
1.99488e-05
1.53393e-06
1.98832e-05
1.56448e-06
1.98127e-05
1.59608e-06
1.97373e-05
1.62889e-06
1.96572e-05
1.6631e-06
1.95723e-05
1.69891e-06
1.94827e-05
1.73649e-06
1.93884e-05
1.77601e-06
1.92895e-05
1.81763e-06
1.91861e-05
1.8615e-06
1.90782e-05
1.90783e-06
1.89659e-05
1.95702e-06
1.88489e-05
2.00986e-06
1.87268e-05
2.06776e-06
1.85992e-05
2.13274e-06
1.8465e-05
2.20724e-06
1.83228e-05
2.29333e-06
1.81712e-05
2.39164e-06
1.80086e-05
2.50021e-06
1.78336e-05
2.61387e-06
1.7645e-05
2.72457e-06
1.74425e-05
2.823e-06
1.72261e-05
2.90097e-06
1.69967e-05
2.95378e-06
1.67556e-05
2.98161e-06
1.65047e-05
2.98919e-06
1.6246e-05
2.98408e-06
1.59814e-05
2.97422e-06
1.57123e-05
2.96594e-06
1.54399e-05
2.96298e-06
1.51645e-05
2.9666e-06
1.48864e-05
2.97642e-06
1.46056e-05
2.99137e-06
1.43219e-05
3.01033e-06
1.40351e-05
3.03245e-06
1.37448e-05
3.05713e-06
1.34508e-05
3.08397e-06
1.3153e-05
3.11265e-06
1.28509e-05
3.14289e-06
1.25443e-05
3.17442e-06
1.22331e-05
3.20703e-06
1.19169e-05
3.24048e-06
1.15956e-05
3.27459e-06
1.12688e-05
3.30916e-06
1.09365e-05
3.34401e-06
1.05984e-05
3.37898e-06
1.02542e-05
3.4139e-06
9.90398e-06
3.44861e-06
9.54738e-06
3.48297e-06
9.18432e-06
3.51683e-06
8.81466e-06
3.55004e-06
8.43829e-06
3.58247e-06
8.05511e-06
3.614e-06
7.66508e-06
3.64451e-06
7.26814e-06
3.67389e-06
6.86429e-06
3.70204e-06
6.45354e-06
3.72888e-06
6.03598e-06
3.75433e-06
5.61169e-06
3.77833e-06
5.18082e-06
3.80085e-06
4.74357e-06
3.82183e-06
4.30019e-06
3.84127e-06
3.85097e-06
3.85915e-06
3.39629e-06
3.87545e-06
2.93654e-06
3.89017e-06
2.47221e-06
3.90323e-06
2.00384e-06
3.91397e-06
1.53246e-06
3.91732e-06
1.06157e-06
3.8858e-06
6.05392e-07
3.71358e-06
2.11136e-07
3.11324e-06
1.5524e-06
2.00033e-05
5.36557e-08
2.00133e-05
1.60617e-07
2.00293e-05
2.6526e-07
2.00504e-05
3.66052e-07
2.00754e-05
4.61822e-07
2.01028e-05
5.51831e-07
2.01313e-05
6.35692e-07
2.01596e-05
7.1329e-07
2.01867e-05
7.84738e-07
2.02115e-05
8.50332e-07
2.02333e-05
9.10506e-07
2.02515e-05
9.6578e-07
2.02656e-05
1.01672e-06
2.02753e-05
1.06388e-06
2.02804e-05
1.10782e-06
2.02808e-05
1.14904e-06
2.02764e-05
1.18803e-06
2.02673e-05
1.22519e-06
2.02534e-05
1.26091e-06
2.02348e-05
1.29549e-06
2.02115e-05
1.32924e-06
2.01835e-05
1.36239e-06
2.01509e-05
1.39517e-06
2.01137e-05
1.42778e-06
2.00718e-05
1.4604e-06
2.00253e-05
1.4932e-06
1.99742e-05
1.52635e-06
1.99184e-05
1.56003e-06
1.98579e-05
1.59441e-06
1.97927e-05
1.62964e-06