/*--------------------------------*- C++ -*----------------------------------*\
| =========                 |                                                 |
| \\      /  F ield         | OpenFOAM: The Open Source CFD Toolbox           |
|  \\    /   O peration     | Version:  4.1                                   |
|   \\  /    A nd           | Web:      www.OpenFOAM.org                      |
|    \\/     M anipulation  |                                                 |
\*---------------------------------------------------------------------------*/
FoamFile
{
    version     2.0;
    format      ascii;
    class       volScalarField;
    location    "0.051";
    object      k_0;
}
// * * * * * * * * * * * * * * * * * * * * * * * * * * * * * * * * * * * * * //

dimensions      [0 2 -2 0 0 0 0];

internalField   nonuniform List<scalar> 
43750
(
3.62704e-05
6.32721e-05
9.21508e-05
0.000110907
0.000119434
0.000120371
0.000117298
0.000100221
7.37213e-05
6.14437e-05
5.89511e-05
5.92784e-05
5.8102e-05
5.75339e-05
5.84057e-05
6.64173e-05
0.00011961
0.000430829
0.00117993
0.00146795
0.0014653
0.00132903
0.00120278
0.0011897
0.00124734
0.00149514
0.00173563
0.00184271
0.00186399
0.00184559
0.0017852
0.00174247
0.00171821
0.00170505
0.00169869
0.00169656
0.0016968
0.0016998
0.00170726
0.00171516
0.00172387
0.00173377
0.00174495
0.0017574
0.00177108
0.00178594
0.00180193
0.00181896
0.00183699
0.00185588
0.00187563
0.00189594
0.00191707
0.00193822
0.00196035
0.00198158
0.0020042
0.00202475
0.00204696
0.00206624
0.00208671
0.002104
0.00212143
0.0021354
0.00214865
0.00215763
0.0021652
0.00216707
0.00216538
0.00216052
0.0021505
0.00213516
0.00211448
0.00208803
0.0020556
0.00201712
0.00197243
0.00192121
0.00186315
0.00179806
0.00172587
0.00164664
0.00156057
0.001468
0.00136944
0.00126557
0.00115728
0.00104562
0.000931843
0.000817377
0.00070379
0.000592772
0.000486085
0.000385521
0.000292826
0.000209783
0.000137623
8.015e-05
3.50363e-05
2.49795e-06
2.00266e-05
2.02378e-05
2.06409e-05
2.0797e-05
2.07848e-05
2.06008e-05
2.03739e-05
2.03686e-05
2.0509e-05
2.06411e-05
2.06351e-05
2.05514e-05
2.05226e-05
2.05643e-05
2.07313e-05
2.11678e-05
2.24131e-05
2.60932e-05
3.02544e-05
3.59118e-05
4.84124e-05
7.67373e-05
0.00010593
0.00012801
0.000142218
0.00014891
0.000149284
0.000143236
0.000124963
0.000110704
0.000102246
9.79347e-05
9.62272e-05
9.58831e-05
9.59859e-05
9.65424e-05
9.79841e-05
9.96851e-05
0.000101496
0.000103441
0.000105546
0.000107829
0.000110302
0.000112971
0.000115844
0.000118926
0.000122222
0.000125736
0.000129477
0.00013344
0.000137646
0.000142063
0.000146758
0.000151617
0.00015682
0.000162093
0.000167807
0.00017347
0.000179631
0.00018569
0.00019217
0.000198595
0.000205277
0.000211925
0.000218692
0.000225373
0.000232016
0.000238473
0.000244706
0.000250536
0.000256077
0.000260945
0.000265352
0.000268958
0.000271542
0.00027374
0.000273984
0.000273556
0.000272271
0.000269523
0.00026502
0.000258946
0.000251253
0.00024191
0.00023092
0.000218333
0.000204255
0.00018884
0.000172312
0.000154931
0.000137064
0.000119062
0.000101427
8.47314e-05
6.95295e-05
5.64921e-05
4.57385e-05
3.45247e-05
1.01805e-05
8.83243e-07
2.00193e-05
1.99739e-05
1.9801e-05
1.9491e-05
1.93218e-05
1.88481e-05
1.76615e-05
1.72557e-05
1.73116e-05
1.73035e-05
1.66868e-05
1.39949e-05
1.25095e-05
1.25925e-05
1.35692e-05
1.45254e-05
1.46177e-05
1.40921e-05
1.17869e-05
1.03108e-05
1.02797e-05
1.11599e-05
1.41204e-05
1.63542e-05
1.70628e-05
1.69123e-05
1.52176e-05
1.09389e-05
7.71021e-06
5.73013e-06
4.64746e-06
4.16443e-06
4.00834e-06
3.98743e-06
3.99922e-06
4.05181e-06
4.17349e-06
4.3036e-06
4.43977e-06
4.58604e-06
4.74504e-06
4.91869e-06
5.10837e-06
5.31526e-06
5.54057e-06
5.7855e-06
6.05143e-06
6.33959e-06
6.65187e-06
6.98893e-06
7.3542e-06
7.74594e-06
8.17217e-06
8.62389e-06
9.1203e-06
9.63719e-06
1.02122e-05
1.0802e-05
1.1459e-05
1.21341e-05
1.28715e-05
1.36416e-05
1.4462e-05
1.5325e-05
1.6233e-05
1.71829e-05
1.81731e-05
1.91964e-05
2.02606e-05
2.13315e-05
2.24414e-05
2.35315e-05
2.46415e-05
2.57296e-05
2.67611e-05
2.77953e-05
2.87398e-05
2.95952e-05
3.03898e-05
3.1085e-05
3.1642e-05
3.2041e-05
3.22974e-05
3.23058e-05
3.22163e-05
3.19709e-05
3.15034e-05
3.09007e-05
3.01664e-05
2.93553e-05
2.84128e-05
2.7389e-05
2.60454e-05
2.39866e-05
2.09089e-05
1.62584e-05
1.18072e-05
6.40705e-06
1.85652e-06
1.71585e-07
2.03701e-05
2.09524e-05
2.15477e-05
2.17949e-05
2.18727e-05
2.19351e-05
2.1962e-05
2.19115e-05
2.16139e-05
2.12344e-05
2.10322e-05
2.09527e-05
2.09514e-05
2.09762e-05
2.09934e-05
2.10314e-05
2.1081e-05
2.11016e-05
2.11383e-05
2.13885e-05
2.26069e-05
2.77236e-05
3.65729e-05
4.16611e-05
4.32677e-05
4.31631e-05
4.08895e-05
3.12215e-05
1.89902e-05
1.09711e-05
6.13812e-06
3.39245e-06
1.90819e-06
1.1458e-06
7.75059e-07
6.1043e-07
5.50626e-07
5.38342e-07
5.39725e-07
5.48577e-07
5.71913e-07
5.98778e-07
6.26722e-07
6.56722e-07
6.8923e-07
7.24528e-07
7.62869e-07
8.04458e-07
8.49606e-07
8.98437e-07
9.51502e-07
1.00857e-06
1.0709e-06
1.13721e-06
1.2104e-06
1.28705e-06
1.3726e-06
1.46125e-06
1.55994e-06
1.66302e-06
1.7752e-06
1.89455e-06
2.02167e-06
2.1573e-06
2.30103e-06
2.45307e-06
2.61334e-06
2.78088e-06
2.95766e-06
3.13787e-06
3.3275e-06
3.5174e-06
3.71272e-06
3.90911e-06
4.09961e-06
4.29011e-06
4.47546e-06
4.64791e-06
4.80842e-06
4.95473e-06
5.08205e-06
5.18544e-06
5.26361e-06
5.30959e-06
5.32593e-06
5.31638e-06
5.2865e-06
5.22903e-06
5.15886e-06
5.09548e-06
5.03375e-06
5.01168e-06
4.95852e-06
4.79744e-06
4.40947e-06
3.55162e-06
2.5482e-06
1.30647e-06
3.6452e-07
3.41623e-08
2.0963e-05
2.10746e-05
2.12762e-05
2.19326e-05
2.26974e-05
2.27902e-05
2.25595e-05
2.22166e-05
2.18682e-05
2.1611e-05
2.14643e-05
2.14096e-05
2.14091e-05
2.14639e-05
2.15734e-05
2.15965e-05
2.15583e-05
2.14974e-05
2.15151e-05
2.17273e-05
2.28612e-05
2.78062e-05
3.89201e-05
4.59904e-05
4.84461e-05
4.84791e-05
4.63972e-05
3.63632e-05
2.15533e-05
1.17929e-05
6.05122e-06
2.92449e-06
1.34364e-06
5.95183e-07
2.61387e-07
1.20821e-07
6.50755e-08
4.45373e-08
3.80749e-08
3.70325e-08
3.7386e-08
3.8905e-08
4.14782e-08
4.41129e-08
4.69428e-08
5.00425e-08
5.34569e-08
5.72194e-08
6.13731e-08
6.59426e-08
7.10005e-08
7.65373e-08
8.27072e-08
8.93916e-08
9.69293e-08
1.0498e-07
1.14158e-07
1.23892e-07
1.34933e-07
1.46793e-07
1.59922e-07
1.74305e-07
1.89949e-07
2.07084e-07
2.25718e-07
2.45952e-07
2.67856e-07
2.91415e-07
3.1699e-07
3.43898e-07
3.73042e-07
4.03416e-07
4.35544e-07
4.69173e-07
5.03259e-07
5.38347e-07
5.74328e-07
6.09903e-07
6.44689e-07
6.78464e-07
7.10615e-07
7.40272e-07
7.66759e-07
7.89361e-07
8.07773e-07
8.22288e-07
8.33279e-07
8.42241e-07
8.48764e-07
8.62158e-07
8.7582e-07
9.08839e-07
9.5109e-07
9.5164e-07
9.16549e-07
7.81477e-07
5.54516e-07
2.78201e-07
7.49892e-08
7.01746e-09
2.07498e-05
2.10718e-05
2.13455e-05
2.13549e-05
2.13355e-05
2.13167e-05
2.13548e-05
2.16153e-05
2.17435e-05
2.17261e-05
2.15722e-05
2.14805e-05
2.15027e-05
2.16282e-05
2.16703e-05
2.16311e-05
2.14231e-05
2.12745e-05
2.12835e-05
2.1552e-05
2.30352e-05
2.94561e-05
4.1259e-05
4.8164e-05
5.03639e-05
5.02657e-05
4.7597e-05
3.60088e-05
2.10537e-05
1.13919e-05
5.74343e-06
2.71418e-06
1.20814e-06
5.08782e-07
2.0378e-07
7.83209e-08
2.94949e-08
1.14937e-08
5.22645e-09
3.20314e-09
2.66935e-09
2.62485e-09
2.68597e-09
2.88273e-09
3.13313e-09
3.39602e-09
3.68634e-09
4.01049e-09
4.37428e-09
4.78128e-09
5.2403e-09
5.75154e-09
6.33327e-09
6.97446e-09
7.71424e-09
8.51869e-09
9.45704e-09
1.04738e-08
1.16506e-08
1.29485e-08
1.44122e-08
1.606e-08
1.7893e-08
1.99501e-08
2.22457e-08
2.48027e-08
2.7641e-08
3.0778e-08
3.42768e-08
3.80637e-08
4.22729e-08
4.68139e-08
5.17411e-08
5.70707e-08
6.26663e-08
6.85847e-08
7.48723e-08
8.13627e-08
8.79544e-08
9.46223e-08
1.01284e-07
1.07795e-07
1.14041e-07
1.19971e-07
1.25501e-07
1.30657e-07
1.3534e-07
1.40194e-07
1.4466e-07
1.51639e-07
1.58647e-07
1.71685e-07
1.89895e-07
1.98375e-07
1.95953e-07
1.75263e-07
1.24865e-07
6.10217e-08
1.59442e-08
1.48062e-09
2.06605e-05
2.10624e-05
2.13979e-05
2.14285e-05
2.12709e-05
2.10977e-05
2.11072e-05
2.12776e-05
2.14391e-05
2.154e-05
2.17835e-05
2.21301e-05
2.21974e-05
2.21156e-05
2.20983e-05
2.21076e-05
2.21168e-05
2.21627e-05
2.23062e-05
2.27085e-05
2.41635e-05
3.00358e-05
4.17702e-05
4.88911e-05
5.12092e-05
5.112e-05
4.83729e-05
3.64186e-05
2.11798e-05
1.14067e-05
5.73307e-06
2.70159e-06
1.19863e-06
5.02575e-07
1.99759e-07
7.54592e-08
2.7186e-08
9.3998e-09
3.16984e-09
1.09479e-09
4.40469e-10
2.49391e-10
2.06337e-10
2.05504e-10
2.14344e-10
2.37154e-10
2.62735e-10
2.90729e-10
3.22439e-10
3.58439e-10
3.99791e-10
4.46594e-10
5.00986e-10
5.6187e-10
6.33794e-10
7.13234e-10
8.0814e-10
9.12959e-10
1.03681e-09
1.17688e-09
1.33787e-09
1.52388e-09
1.73551e-09
1.97857e-09
2.25667e-09
2.5743e-09
2.93539e-09
3.34496e-09
3.81399e-09
4.33514e-09
4.92862e-09
5.58956e-09
6.32506e-09
7.14514e-09
8.0346e-09
9.00105e-09
1.00596e-08
1.11929e-08
1.23844e-08
1.36325e-08
1.49263e-08
1.62455e-08
1.75765e-08
1.89108e-08
2.0225e-08
2.15352e-08
2.28059e-08
2.42165e-08
2.55834e-08
2.7666e-08
2.98489e-08
3.34955e-08
3.90069e-08
4.26375e-08
4.29032e-08
3.96597e-08
2.87883e-08
1.36773e-08
3.47434e-09
3.19291e-10
2.08441e-05
2.07629e-05
2.08242e-05
2.10408e-05
2.1296e-05
2.14309e-05
2.15008e-05
2.15421e-05
2.15593e-05
2.16085e-05
2.18663e-05
2.23267e-05
2.25565e-05
2.26286e-05
2.26414e-05
2.26008e-05
2.24071e-05
2.23571e-05
2.24686e-05
2.29265e-05
2.43759e-05
2.97245e-05
3.99676e-05
4.62755e-05
4.83742e-05
4.83054e-05
4.58276e-05
3.48153e-05
2.03134e-05
1.09586e-05
5.51397e-06
2.60015e-06
1.1539e-06
4.83573e-07
1.91947e-07
7.23757e-08
2.5983e-08
8.90113e-09
2.91804e-09
9.20509e-10
2.83934e-10
9.04033e-11
3.46773e-11
2.00327e-11
1.75055e-11
1.78075e-11
1.93281e-11
2.19871e-11
2.48596e-11
2.8108e-11
3.18923e-11
3.6234e-11
4.13861e-11
4.72279e-11
5.42959e-11
6.22037e-11
7.18802e-11
8.2751e-11
9.58546e-11
1.11015e-10
1.28745e-10
1.49724e-10
1.74125e-10
2.02796e-10
2.36415e-10
2.75787e-10
3.21597e-10
3.7487e-10
4.37494e-10
5.08868e-10
5.92047e-10
6.87475e-10
7.96288e-10
9.21044e-10
1.06049e-09
1.21597e-09
1.39097e-09
1.58434e-09
1.79417e-09
2.02075e-09
2.26294e-09
2.51877e-09
2.78681e-09
3.066e-09
3.35221e-09
3.65104e-09
3.95297e-09
4.30429e-09
4.65584e-09
5.19442e-09
5.7863e-09
6.70942e-09
8.19906e-09
9.36392e-09
9.6267e-09
9.088e-09
6.75633e-09
3.11659e-09
7.71627e-10
7.01043e-11
2.05397e-05
2.08451e-05
2.09064e-05
2.09524e-05
2.10975e-05
2.132e-05
2.15978e-05
2.18089e-05
2.1801e-05
2.15835e-05
2.13876e-05
2.13395e-05
2.13274e-05
2.1329e-05
2.13683e-05
2.15421e-05
2.2025e-05
2.24745e-05
2.27779e-05
2.3239e-05
2.45774e-05
2.97735e-05
3.99752e-05
4.61165e-05
4.80679e-05
4.7954e-05
4.53826e-05
3.42679e-05
1.99913e-05
1.07934e-05
5.43642e-06
2.5666e-06
1.14052e-06
4.78706e-07
1.90341e-07
7.18778e-08
2.58353e-08
8.85663e-09
2.90128e-09
9.10013e-10
2.74085e-10
7.97674e-11
2.28788e-11
6.97189e-12
2.79061e-12
1.83975e-12
1.75893e-12
1.84624e-12
2.11331e-12
2.44609e-12
2.81897e-12
3.24625e-12
3.76152e-12
4.34986e-12
5.07589e-12
5.89561e-12
6.91671e-12
8.08148e-12
9.50493e-12
1.11854e-11
1.31778e-11
1.55809e-11
1.84269e-11
2.1827e-11
2.58892e-11
3.07598e-11
3.65657e-11
4.34878e-11
5.18391e-11
6.15969e-11
7.32325e-11
8.6965e-11
1.02998e-10
1.21868e-10
1.43573e-10
1.68394e-10
1.9705e-10
2.29644e-10
2.66075e-10
3.06527e-10
3.51e-10
3.99475e-10
4.51914e-10
5.08361e-10
5.68185e-10
6.33108e-10
7.00736e-10
7.82785e-10
8.66421e-10
9.96461e-10
1.14549e-09
1.36671e-09
1.74538e-09
2.07732e-09
2.18134e-09
2.08859e-09
1.58429e-09
7.18177e-10
1.73976e-10
1.56275e-11
2.05208e-05
2.07098e-05
2.07263e-05
2.07188e-05
2.06819e-05
2.06824e-05
2.07639e-05
2.08403e-05
2.08692e-05
2.09972e-05
2.12624e-05
2.14963e-05
2.16363e-05
2.16802e-05
2.16634e-05
2.15786e-05
2.15503e-05
2.15662e-05
2.16649e-05
2.20487e-05
2.36207e-05
3.00693e-05
4.30676e-05
5.09352e-05
5.35138e-05
5.34614e-05
5.08011e-05
3.88352e-05
2.2704e-05
1.22562e-05
6.17035e-06
2.91163e-06
1.29325e-06
5.42615e-07
2.15701e-07
8.14437e-08
2.92723e-08
1.00345e-08
3.28662e-09
1.03031e-09
3.09735e-10
8.95403e-11
2.50514e-11
6.89961e-12
1.94956e-12
6.63653e-13
3.58243e-13
3.08741e-13
3.15639e-13
3.52319e-13
4.10124e-13
4.7026e-13
5.39714e-13
6.18886e-13
7.131e-13
8.20966e-13
9.50997e-13
1.10049e-12
1.28087e-12
1.49086e-12
1.74299e-12
2.04224e-12
2.39953e-12
2.82827e-12
3.34079e-12
3.95875e-12
4.70211e-12
5.60788e-12
6.72552e-12
8.06456e-12
9.69687e-12
1.16711e-11
1.40249e-11
1.6864e-11
2.02204e-11
2.4153e-11
2.88015e-11
3.42321e-11
4.04745e-11
4.75912e-11
5.56295e-11
6.46536e-11
7.4711e-11
8.58873e-11
9.81004e-11
1.11845e-10
1.26526e-10
1.45081e-10
1.64269e-10
1.94755e-10
2.31105e-10
2.82857e-10
3.76428e-10
4.66184e-10
5.0004e-10
4.84022e-10
3.73797e-10
1.67042e-10
3.97196e-11
3.53009e-12
2.0995e-05
2.09405e-05
2.09325e-05
2.08975e-05
2.08708e-05
2.09098e-05
2.11731e-05
2.13487e-05
2.13142e-05
2.1223e-05
2.12172e-05
2.12679e-05
2.15076e-05
2.17428e-05
2.1785e-05
2.16873e-05
2.14047e-05
2.13314e-05
2.13769e-05
2.17416e-05
2.34622e-05
3.05968e-05
4.43113e-05
5.26689e-05
5.55265e-05
5.55419e-05
5.29856e-05
4.09957e-05
2.40852e-05
1.30487e-05
6.59303e-06
3.12234e-06
1.392e-06
5.86157e-07
2.33828e-07
8.85914e-08
3.19484e-08
1.09882e-08
3.6108e-09
1.13557e-09
3.42403e-10
9.92135e-11
2.77223e-11
7.51827e-12
2.0409e-12
6.08066e-13
2.52528e-13
1.76114e-13
1.67975e-13
1.75532e-13
1.99631e-13
2.25444e-13
2.51601e-13
2.80237e-13
3.11869e-13
3.46402e-13
3.85363e-13
4.25632e-13
4.74183e-13
5.22737e-13
5.81098e-13
6.43859e-13
7.11197e-13
7.92368e-13
8.77035e-13
9.75429e-13
1.08939e-12
1.21567e-12
1.37032e-12
1.56113e-12
1.79458e-12
2.07846e-12
2.42001e-12
2.8396e-12
3.34642e-12
3.95085e-12
4.67892e-12
5.5485e-12
6.57336e-12
7.77231e-12
9.16495e-12
1.0779e-11
1.26398e-11
1.47882e-11
1.72225e-11
2.00781e-11
2.3203e-11
2.73247e-11
3.16311e-11
3.86574e-11
4.73647e-11
5.9294e-11
8.20487e-11
1.05622e-10
1.15726e-10
1.1303e-10
8.86927e-11
3.91698e-11
9.16675e-12
8.0729e-13
2.05793e-05
2.05709e-05
2.09429e-05
2.14196e-05
2.15551e-05
2.15553e-05
2.14681e-05
2.11952e-05
2.1062e-05
2.10497e-05
2.10659e-05
2.11307e-05
2.13077e-05
2.16438e-05
2.18841e-05
2.18971e-05
2.17945e-05
2.17547e-05
2.1792e-05
2.20859e-05
2.35033e-05
2.94494e-05
4.23067e-05
5.06181e-05
5.36713e-05
5.379e-05
5.15688e-05
4.05137e-05
2.39153e-05
1.29886e-05
6.57722e-06
3.12138e-06
1.39426e-06
5.88297e-07
2.3518e-07
8.93019e-08
3.22799e-08
1.11293e-08
3.66645e-09
1.15611e-09
3.49547e-10
1.01559e-10
2.84593e-11
7.74921e-12
2.09926e-12
6.15146e-13
2.44743e-13
1.63174e-13
1.5292e-13
1.58376e-13
1.79061e-13
2.01864e-13
2.2469e-13
2.48986e-13
2.75324e-13
3.03066e-13
3.34133e-13
3.65831e-13
4.01128e-13
4.37186e-13
4.73911e-13
5.15262e-13
5.51463e-13
5.94429e-13
6.33164e-13
6.70382e-13
7.11443e-13
7.43223e-13
7.76719e-13
8.07819e-13
8.42284e-13
8.80956e-13
9.25764e-13
9.80091e-13
1.04435e-12
1.11831e-12
1.20662e-12
1.31228e-12
1.43768e-12
1.58924e-12
1.77398e-12
2.00188e-12
2.2868e-12
2.64826e-12
3.09471e-12
3.66447e-12
4.31409e-12
5.21929e-12
6.17222e-12
7.77492e-12
9.83871e-12
1.25608e-11
1.80417e-11
2.4126e-11
2.70023e-11
2.65786e-11
2.11461e-11
9.2624e-12
2.13648e-12
1.87155e-13
2.14094e-05
2.12955e-05
2.13649e-05
2.14712e-05
2.15451e-05
2.13673e-05
2.10541e-05
2.09537e-05
2.09454e-05
2.09773e-05
2.10623e-05
2.1102e-05
2.11246e-05
2.11636e-05
2.12003e-05
2.12223e-05
2.12421e-05
2.12826e-05
2.13983e-05
2.18319e-05
2.35792e-05
3.04801e-05
4.22695e-05
4.94462e-05
5.19697e-05
5.19983e-05
4.97389e-05
3.89263e-05
2.30504e-05
1.25676e-05
6.38816e-06
3.0428e-06
1.36376e-06
5.77188e-07
2.31381e-07
8.80832e-08
3.19144e-08
1.10277e-08
3.64062e-09
1.15028e-09
3.48454e-10
1.01429e-10
2.8469e-11
7.76505e-12
2.10602e-12
6.15825e-13
2.42553e-13
1.59716e-13
1.49029e-13
1.54261e-13
1.74747e-13
1.9811e-13
2.21196e-13
2.46062e-13
2.7287e-13
3.02244e-13
3.33015e-13
3.66637e-13
4.00712e-13
4.38881e-13
4.74881e-13
5.16137e-13
5.53778e-13
5.93313e-13
6.33141e-13
6.66328e-13
7.03837e-13
7.29788e-13
7.54096e-13
7.71862e-13
7.75253e-13
7.7762e-13
7.79242e-13
7.78759e-13
7.7382e-13
7.61998e-13
7.45387e-13
7.22998e-13
6.92823e-13
6.57517e-13
6.20518e-13
5.85224e-13
5.60899e-13
5.66875e-13
6.07311e-13
6.92427e-13
8.16075e-13
1.01012e-12
1.21831e-12
1.58204e-12
2.06802e-12
2.68982e-12
3.99291e-12
5.55066e-12
6.34638e-12
6.2904e-12
5.0658e-12
2.20742e-12
5.02916e-13
4.43973e-14
2.09375e-05
2.08233e-05
2.07905e-05
2.10364e-05
2.13098e-05
2.13809e-05
2.13458e-05
2.12313e-05
2.12064e-05
2.12204e-05
2.12949e-05
2.13688e-05
2.14155e-05
2.14421e-05
2.14128e-05
2.13148e-05
2.12848e-05
2.12938e-05
2.13817e-05
2.18217e-05
2.36916e-05
3.07462e-05
4.03623e-05
4.57572e-05
4.74751e-05
4.73656e-05
4.49197e-05
3.42303e-05
2.02091e-05
1.10564e-05
5.64785e-06
2.70538e-06
1.21998e-06
5.19685e-07
2.09676e-07
8.03188e-08
2.92773e-08
1.01757e-08
3.37839e-09
1.0733e-09
3.26878e-10
9.56482e-11
2.69848e-11
7.39672e-12
2.01617e-12
5.9249e-13
2.34347e-13
1.55103e-13
1.4523e-13
1.50825e-13
1.71949e-13
1.95862e-13
2.19693e-13
2.45631e-13
2.73619e-13
3.04051e-13
3.37267e-13
3.71833e-13
4.11359e-13
4.47794e-13
4.94885e-13
5.30621e-13
5.83396e-13
6.1896e-13
6.6834e-13
7.07883e-13
7.43657e-13
7.8138e-13
8.02104e-13
8.26816e-13
8.27347e-13
8.22916e-13
8.11891e-13
7.97497e-13
7.79703e-13
7.55469e-13
7.2299e-13
6.80822e-13
6.25065e-13
5.56471e-13
4.77769e-13
3.89884e-13
2.99757e-13
2.23065e-13
1.74294e-13
1.57623e-13
1.68517e-13
1.98441e-13
2.43349e-13
3.25651e-13
4.39527e-13
5.82074e-13
8.8923e-13
1.28577e-12
1.50196e-12
1.49828e-12
1.21989e-12
5.30276e-13
1.19941e-13
1.1209e-14
2.11431e-05
2.10966e-05
2.10077e-05
2.11352e-05
2.16851e-05
2.21246e-05
2.23658e-05
2.24425e-05
2.23526e-05
2.19145e-05
2.1498e-05
2.13866e-05
2.14144e-05
2.16719e-05
2.18989e-05
2.18533e-05
2.16054e-05
2.1512e-05
2.15528e-05
2.19337e-05
2.38168e-05
3.08349e-05
3.90113e-05
4.30817e-05
4.4057e-05
4.36412e-05
4.01385e-05
2.8224e-05
1.63837e-05
8.86921e-06
4.48929e-06
2.13414e-06
9.56531e-07
4.05513e-07
1.63102e-07
6.2394e-08
2.27468e-08
7.91712e-09
2.63511e-09
8.40065e-10
2.56959e-10
7.5584e-11
2.146e-11
5.93128e-12
1.63811e-12
4.95149e-13
2.07507e-13
1.45576e-13
1.39473e-13
1.4678e-13
1.69529e-13
1.93548e-13
2.18124e-13
2.45079e-13
2.74514e-13
3.06882e-13
3.42192e-13
3.80289e-13
4.21505e-13
4.66178e-13
5.10827e-13
5.64657e-13
6.0723e-13
6.71562e-13
7.1025e-13
7.74281e-13
8.16182e-13
8.63237e-13
9.05298e-13
9.32311e-13
9.56943e-13
9.54664e-13
9.42641e-13
9.14617e-13
8.71853e-13
8.28225e-13
7.80774e-13
7.26553e-13
6.60447e-13
5.80602e-13
4.90188e-13
3.90296e-13
2.85245e-13
1.87862e-13
1.12969e-13
6.68876e-14
4.7094e-14
4.5295e-14
5.12697e-14
6.74117e-14
9.46884e-14
1.27601e-13
1.99654e-13
3.00184e-13
3.58228e-13
3.59538e-13
2.95741e-13
1.28792e-13
2.94081e-14
3.42184e-15
2.07547e-05
2.10216e-05
2.14309e-05
2.15545e-05
2.14992e-05
2.13632e-05
2.13224e-05
2.13174e-05
2.13129e-05
2.13212e-05
2.13743e-05
2.16269e-05
2.2035e-05
2.21319e-05
2.20754e-05
2.17596e-05
2.14531e-05
2.13977e-05
2.1463e-05
2.19575e-05
2.43013e-05
3.24791e-05
4.07459e-05
4.44661e-05
4.51618e-05
4.45565e-05
4.03459e-05
2.74298e-05
1.5812e-05
8.4985e-06
4.2721e-06
2.01814e-06
8.99392e-07
3.79344e-07
1.51841e-07
5.78137e-08
2.09822e-08
7.2718e-09
2.41066e-09
7.65671e-10
2.33414e-10
6.84519e-11
1.93857e-11
5.34873e-12
1.4781e-12
4.50832e-13
1.93638e-13
1.39227e-13
1.34615e-13
1.42768e-13
1.66376e-13
1.90709e-13
2.1616e-13
2.44227e-13
2.74956e-13
3.09388e-13
3.46563e-13
3.88429e-13
4.31786e-13
4.82396e-13
5.30564e-13
5.91088e-13
6.42792e-13
7.09201e-13
7.67919e-13
8.28313e-13
8.96821e-13
9.44201e-13
1.00843e-12
1.04547e-12
1.08531e-12
1.10603e-12
1.10255e-12
1.08744e-12
1.05453e-12
9.8976e-13
9.17444e-13
8.53524e-13
7.73586e-13
6.79681e-13
5.74539e-13
4.51629e-13
3.20221e-13
2.03461e-13
1.15532e-13
5.97821e-14
2.90425e-14
1.60975e-14
1.33599e-14
1.53933e-14
2.09165e-14
2.87022e-14
4.56775e-14
7.10621e-14
8.65091e-14
8.73699e-14
7.26107e-14
3.20509e-14
7.83717e-15
1.57857e-15
2.13031e-05
2.11194e-05
2.10501e-05
2.10066e-05
2.10792e-05
2.1122e-05
2.11038e-05
2.10222e-05
2.1009e-05
2.10793e-05
2.14958e-05
2.22189e-05
2.24757e-05
2.24848e-05
2.2435e-05
2.21397e-05
2.16651e-05
2.15334e-05
2.15737e-05
2.19817e-05
2.40095e-05
3.18044e-05
4.13829e-05
4.60761e-05
4.71188e-05
4.65603e-05
4.22046e-05
2.86395e-05
1.64089e-05
8.77549e-06
4.39316e-06
2.06811e-06
9.18927e-07
3.86596e-07
1.54404e-07
5.86777e-08
2.12606e-08
7.35776e-09
2.43614e-09
7.72944e-10
2.35418e-10
6.89849e-11
1.95221e-11
5.38169e-12
1.4845e-12
4.49582e-13
1.90135e-13
1.35115e-13
1.30408e-13
1.38533e-13
1.62434e-13
1.87472e-13
2.13615e-13
2.42796e-13
2.75112e-13
3.10948e-13
3.51252e-13
3.9453e-13
4.44625e-13
4.94504e-13
5.5699e-13
6.10361e-13
6.8887e-13
7.40646e-13
8.34861e-13
8.85448e-13
9.79512e-13
1.04187e-12
1.10886e-12
1.18336e-12
1.21909e-12
1.27207e-12
1.28415e-12
1.27719e-12
1.25406e-12
1.20283e-12
1.11504e-12
1.0021e-12
9.17447e-13
8.11208e-13
6.87382e-13
5.61554e-13
4.16859e-13
2.6548e-13
1.43303e-13
6.80852e-14
2.99544e-14
1.28953e-14
6.1599e-15
4.77874e-15
5.46952e-15
7.11319e-15
1.10239e-14
1.74843e-14
2.15815e-14
2.19279e-14
1.8486e-14
8.59246e-15
2.65809e-15
1.1386e-15
2.0656e-05
2.09583e-05
2.11903e-05
2.13267e-05
2.13163e-05
2.1181e-05
2.11067e-05
2.11295e-05
2.141e-05
2.1963e-05
2.20627e-05
2.19534e-05
2.18027e-05
2.18197e-05
2.20542e-05
2.21989e-05
2.21395e-05
2.19508e-05
2.19478e-05
2.2246e-05
2.4011e-05
3.12861e-05
4.11344e-05
4.60726e-05
4.72499e-05
4.67753e-05
4.27569e-05
2.9461e-05
1.68693e-05
9.0155e-06
4.50924e-06
2.12055e-06
9.41275e-07
3.95644e-07
1.57903e-07
5.99754e-08
2.17237e-08
7.51713e-09
2.48912e-09
7.89945e-10
2.40685e-10
7.0559e-11
1.99747e-11
5.50532e-12
1.5146e-12
4.54461e-13
1.88348e-13
1.31347e-13
1.26153e-13
1.33943e-13
1.57874e-13
1.8359e-13
2.10559e-13
2.40735e-13
2.74575e-13
3.12357e-13
3.54796e-13
4.01754e-13
4.54133e-13
5.11724e-13
5.74169e-13
6.45268e-13
7.14262e-13
8.03886e-13
8.7081e-13
9.82215e-13
1.04224e-12
1.16128e-12
1.22579e-12
1.31766e-12
1.39447e-12
1.44194e-12
1.49932e-12
1.5013e-12
1.48878e-12
1.45236e-12
1.36989e-12
1.25656e-12
1.08568e-12
9.65093e-13
8.42913e-13
6.7677e-13
5.12682e-13
3.53116e-13
2.03566e-13
9.55101e-14
3.86144e-14
1.46202e-14
5.84316e-15
2.80454e-15
2.21982e-15
2.43484e-15
3.23028e-15
4.88954e-15
5.98057e-15
6.10045e-15
5.29227e-15
2.86841e-15
1.4052e-15
1.03283e-15
2.14246e-05
2.1949e-05
2.20365e-05
2.20363e-05
2.22902e-05
2.23415e-05
2.21039e-05
2.14874e-05
2.12374e-05
2.12402e-05
2.1377e-05
2.1469e-05
2.15333e-05
2.17201e-05
2.20793e-05
2.22678e-05
2.22826e-05
2.22908e-05
2.23697e-05
2.27314e-05
2.44713e-05
3.12565e-05
3.99835e-05
4.45549e-05
4.57362e-05
4.53455e-05
4.16333e-05
2.8882e-05
1.65259e-05
8.83209e-06
4.41887e-06
2.07883e-06
9.23131e-07
3.88196e-07
1.55013e-07
5.89145e-08
2.13549e-08
7.39567e-09
2.4512e-09
7.78737e-10
2.37548e-10
6.97273e-11
1.97651e-11
5.45422e-12
1.50149e-12
4.49114e-13
1.837e-13
1.26558e-13
1.21233e-13
1.28883e-13
1.52941e-13
1.79091e-13
2.06891e-13
2.37915e-13
2.73223e-13
3.12877e-13
3.57488e-13
4.08082e-13
4.63672e-13
5.27509e-13
5.94451e-13
6.7471e-13
7.51778e-13
8.51098e-13
9.36227e-13
1.05098e-12
1.14668e-12
1.26014e-12
1.37277e-12
1.46649e-12
1.58214e-12
1.65022e-12
1.73143e-12
1.77327e-12
1.76897e-12
1.74543e-12
1.68782e-12
1.56242e-12
1.39968e-12
1.1838e-12
9.81662e-13
8.44887e-13
6.5764e-13
4.37484e-13
2.64619e-13
1.40284e-13
6.05543e-14
2.10027e-14
6.91768e-15
2.80141e-15
1.60113e-15
1.39693e-15
1.52157e-15
1.90987e-15
2.21052e-15
2.25023e-15
2.05941e-15
1.46284e-15
1.09981e-15
1.00734e-15
2.14302e-05
2.13507e-05
2.11371e-05
2.11142e-05
2.12852e-05
2.16373e-05
2.16164e-05
2.1307e-05
2.11474e-05
2.11548e-05
2.1246e-05
2.12969e-05
2.13218e-05
2.13765e-05
2.1539e-05
2.16425e-05
2.16503e-05
2.16618e-05
2.17708e-05
2.23535e-05
2.48788e-05
3.28896e-05
4.02723e-05
4.35522e-05
4.41006e-05
4.33296e-05
3.8412e-05
2.52374e-05
1.44671e-05
7.71866e-06
3.85387e-06
1.80994e-06
8.02735e-07
3.37314e-07
1.34662e-07
5.1194e-08
1.85714e-08
6.44024e-09
2.13846e-09
6.80971e-10
2.08312e-10
6.13489e-11
1.74571e-11
4.83897e-12
1.33923e-12
4.03548e-13
1.67684e-13
1.18155e-13
1.14471e-13
1.23079e-13
1.48034e-13
1.74033e-13
2.02435e-13
2.34296e-13
2.70937e-13
3.12382e-13
3.59382e-13
4.12859e-13
4.73121e-13
5.40492e-13
6.17139e-13
6.98476e-13
7.98147e-13
8.87219e-13
1.02138e-12
1.10437e-12
1.27803e-12
1.35938e-12
1.53804e-12
1.63153e-12
1.77811e-12
1.90676e-12
1.9775e-12
2.09059e-12
2.11349e-12
2.1006e-12
2.05696e-12
1.95899e-12
1.80288e-12
1.50041e-12
1.27248e-12
1.01143e-12
7.93444e-13
5.96211e-13
3.67912e-13
1.85293e-13
8.07033e-14
3.01925e-14
1.00622e-14
3.35387e-15
1.62311e-15
1.19085e-15
1.14348e-15
1.21338e-15
1.29574e-15
1.30823e-15
1.26298e-15
1.11545e-15
1.02479e-15
1.00132e-15
2.06488e-05
2.0763e-05
2.11774e-05
2.17407e-05
2.19555e-05
2.19755e-05
2.18703e-05
2.16445e-05
2.16036e-05
2.16561e-05
2.16751e-05
2.16172e-05
2.15004e-05
2.14523e-05
2.14196e-05
2.13948e-05
2.13901e-05
2.14008e-05
2.14927e-05
2.19869e-05
2.42207e-05
3.19642e-05
3.97166e-05
4.31119e-05
4.36454e-05
4.27772e-05
3.72943e-05
2.38069e-05
1.35043e-05
7.135e-06
3.53399e-06
1.64862e-06
7.27031e-07
3.04028e-07
1.2088e-07
4.57981e-08
1.65673e-08
5.73219e-09
1.89997e-09
6.04225e-10
1.84668e-10
5.43576e-11
1.54654e-11
4.28813e-12
1.18895e-12
3.61132e-13
1.53228e-13
1.10308e-13
1.07774e-13
1.16865e-13
1.42333e-13
1.6832e-13
1.97056e-13
2.2988e-13
2.67412e-13
3.1091e-13
3.59978e-13
4.16599e-13
4.80498e-13
5.54029e-13
6.35424e-13
7.29414e-13
8.30316e-13
9.49811e-13
1.06769e-12
1.21928e-12
1.34366e-12
1.53348e-12
1.65461e-12
1.86498e-12
1.98784e-12
2.17584e-12
2.31045e-12
2.41107e-12
2.52313e-12
2.53048e-12
2.50657e-12
2.43413e-12
2.25369e-12
2.05527e-12
1.61555e-12
1.3053e-12
1.02152e-12
7.24208e-13
4.742e-13
2.71326e-13
1.26747e-13
4.81954e-14
1.52642e-14
4.68778e-15
1.83712e-15
1.19654e-15
1.05932e-15
1.05612e-15
1.07202e-15
1.07641e-15
1.06568e-15
1.02901e-15
1.00621e-15
1.0001e-15
2.10567e-05
2.11491e-05
2.12396e-05
2.12342e-05
2.11662e-05
2.11728e-05
2.13109e-05
2.15974e-05
2.17458e-05
2.17716e-05
2.1727e-05
2.15318e-05
2.13029e-05
2.11581e-05
2.10738e-05
2.10433e-05
2.1042e-05
2.10644e-05
2.12064e-05
2.18634e-05
2.46088e-05
3.30098e-05
4.03087e-05
4.34369e-05
4.38842e-05
4.29788e-05
3.74054e-05
2.38397e-05
1.35147e-05
7.13307e-06
3.52895e-06
1.64449e-06
7.24558e-07
3.02778e-07
1.20318e-07
4.55687e-08
1.64809e-08
5.70199e-09
1.8901e-09
6.01194e-10
1.83788e-10
5.41135e-11
1.53991e-11
4.26933e-12
1.18111e-12
3.55286e-13
1.47592e-13
1.04378e-13
1.01713e-13
1.10457e-13
1.3517e-13
1.62256e-13
1.90591e-13
2.24457e-13
2.62722e-13
3.07939e-13
3.59243e-13
4.18682e-13
4.86865e-13
5.65325e-13
6.53309e-13
7.57022e-13
8.66024e-13
1.00361e-12
1.1307e-12
1.3145e-12
1.44645e-12
1.6833e-12
1.82276e-12
2.07202e-12
2.24984e-12
2.46475e-12
2.67362e-12
2.81138e-12
2.9936e-12
3.05934e-12
3.04823e-12
2.99753e-12
2.87281e-12
2.59211e-12
2.29512e-12
1.69026e-12
1.30352e-12
9.86049e-13
6.33809e-13
3.515e-13
1.68378e-13
7.09697e-14
2.52605e-14
7.77138e-15
2.51652e-15
1.28024e-15
1.05893e-15
1.01943e-15
1.01854e-15
1.01913e-15
1.0165e-15
1.00733e-15
1.00157e-15
1e-15
2.04423e-05
2.127e-05
2.16058e-05
2.15934e-05
2.14476e-05
2.14112e-05
2.14911e-05
2.18037e-05
2.19533e-05
2.19173e-05
2.1824e-05
2.18254e-05
2.18223e-05
2.17486e-05
2.15452e-05
2.13888e-05
2.13475e-05
2.13606e-05
2.15003e-05
2.22242e-05
2.53763e-05
3.43887e-05
4.14336e-05
4.42958e-05
4.46376e-05
4.36477e-05
3.78046e-05
2.40209e-05
1.36367e-05
7.20392e-06
3.56696e-06
1.66353e-06
7.33537e-07
3.06789e-07
1.22023e-07
4.62603e-08
1.67492e-08
5.80163e-09
1.92558e-09
6.13309e-10
1.87753e-10
5.53555e-11
1.57698e-11
4.37277e-12
1.2068e-12
3.58848e-13
1.44243e-13
9.88119e-14
9.5505e-14
1.03937e-13
1.27201e-13
1.55009e-13
1.83748e-13
2.17432e-13
2.57207e-13
3.02957e-13
3.57157e-13
4.18618e-13
4.90477e-13
5.74218e-13
6.70571e-13
7.77752e-13
9.08555e-13
1.04197e-12
1.21768e-12
1.37041e-12
1.61552e-12
1.76742e-12
2.08257e-12
2.24816e-12
2.59055e-12
2.75993e-12
3.08008e-12
3.29497e-12
3.45776e-12
3.70188e-12
3.73779e-12
3.709e-12
3.61039e-12
3.3936e-12
2.96369e-12
2.4472e-12
1.74274e-12
1.22554e-12
8.40215e-13
5.17333e-13
2.59289e-13
1.03251e-13
3.57401e-14
1.09934e-14
3.369e-15
1.45954e-15
1.0778e-15
1.01588e-15
1.00576e-15
1.00496e-15
1.00415e-15
1.00185e-15
1.0004e-15
1e-15
2.13406e-05
2.1433e-05
2.1725e-05
2.19014e-05
2.19445e-05
2.19405e-05
2.1874e-05
2.18686e-05
2.19702e-05
2.20944e-05
2.21065e-05
2.19762e-05
2.18357e-05
2.18652e-05
2.19235e-05
2.18369e-05
2.16544e-05
2.16344e-05
2.17302e-05
2.23558e-05
2.52276e-05
3.4592e-05
4.29886e-05
4.6353e-05
4.67395e-05
4.55934e-05
3.8961e-05
2.44779e-05
1.38848e-05
7.32966e-06
3.62873e-06
1.69275e-06
7.46808e-07
3.12568e-07
1.24434e-07
4.72243e-08
1.71185e-08
5.93733e-09
1.97341e-09
6.29488e-10
1.93005e-10
5.69901e-11
1.62564e-11
4.51005e-12
1.24155e-12
3.63868e-13
1.40742e-13
9.29252e-14
8.88835e-14
9.67806e-14
1.19477e-13
1.4594e-13
1.76536e-13
2.09107e-13
2.50167e-13
2.96617e-13
3.5257e-13
4.17067e-13
4.92871e-13
5.79237e-13
6.83844e-13
8.02682e-13
9.37706e-13
1.09382e-12
1.2803e-12
1.47096e-12
1.71154e-12
1.95387e-12
2.23315e-12
2.5353e-12
2.84809e-12
3.1836e-12
3.49057e-12
3.86458e-12
4.11504e-12
4.36354e-12
4.56625e-12
4.5612e-12
4.50075e-12
4.33158e-12
4.00526e-12
3.38043e-12
2.41987e-12
1.70664e-12
1.16453e-12
6.83877e-13
3.45539e-13
1.5543e-13
5.81715e-14
1.8302e-14
5.302e-15
1.87398e-15
1.14007e-15
1.02038e-15
1.00381e-15
1.00146e-15
1.00107e-15
1.00047e-15
1.0001e-15
1e-15
2.07742e-05
2.11471e-05
2.17582e-05
2.20258e-05
2.20616e-05
2.20479e-05
2.19042e-05
2.16023e-05
2.14856e-05
2.14822e-05
2.1571e-05
2.18881e-05
2.21089e-05
2.21878e-05
2.221e-05
2.21461e-05
2.19696e-05
2.19452e-05
2.20201e-05
2.25224e-05
2.48688e-05
3.34616e-05
4.26615e-05
4.67162e-05
4.7382e-05
4.64538e-05
4.04839e-05
2.57558e-05
1.45668e-05
7.68215e-06
3.80144e-06
1.77334e-06
7.82678e-07
3.27824e-07
1.30641e-07
4.9643e-08
1.80219e-08
6.261e-09
2.08472e-09
6.66251e-10
2.04669e-10
6.05438e-11
1.72942e-11
4.79824e-12
1.31489e-12
3.78491e-13
1.39764e-13
8.7698e-14
8.24453e-14
8.85263e-14
1.12811e-13
1.35209e-13
1.67425e-13
2.01158e-13
2.40202e-13
2.89571e-13
3.45069e-13
4.13322e-13
4.91032e-13
5.85177e-13