/*--------------------------------*- C++ -*----------------------------------*\
| =========                 |                                                 |
| \\      /  F ield         | OpenFOAM: The Open Source CFD Toolbox           |
|  \\    /   O peration     | Version:  4.1                                   |
|   \\  /    A nd           | Web:      www.OpenFOAM.org                      |
|    \\/     M anipulation  |                                                 |
\*---------------------------------------------------------------------------*/
FoamFile
{
    version     2.0;
    format      ascii;
    class       volScalarField;
    location    "0.051";
    object      nut;
}
// * * * * * * * * * * * * * * * * * * * * * * * * * * * * * * * * * * * * * //

dimensions      [0 2 -1 0 0 0 0];

internalField   nonuniform List<scalar> 
43750
(
2.28666e-08
2.72199e-08
1.21188e-08
0
0
0
0
0
0
0
0
2.66535e-09
0
0
0
0
0
7.02314e-08
2.25863e-07
2.5367e-07
1.56602e-07
3.46375e-08
0
0
2.37886e-08
1.16799e-07
2.18556e-07
2.9685e-07
3.44551e-07
3.69027e-07
3.77056e-07
3.80827e-07
3.84381e-07
3.88708e-07
3.93961e-07
4.00017e-07
4.0671e-07
4.14098e-07
4.22413e-07
4.31187e-07
4.40486e-07
4.50384e-07
4.60922e-07
4.72131e-07
4.84039e-07
4.96673e-07
5.10061e-07
5.24231e-07
5.39215e-07
5.55032e-07
5.71729e-07
5.89302e-07
6.07841e-07
6.27263e-07
6.47779e-07
6.69128e-07
6.91749e-07
7.15106e-07
7.39904e-07
7.65378e-07
7.92335e-07
8.20006e-07
8.49076e-07
8.78872e-07
9.09972e-07
9.41621e-07
9.74396e-07
1.00741e-06
1.04147e-06
1.07703e-06
1.11387e-06
1.15201e-06
1.19148e-06
1.23217e-06
1.27408e-06
1.31725e-06
1.36173e-06
1.40746e-06
1.45438e-06
1.50242e-06
1.55155e-06
1.60172e-06
1.65292e-06
1.70512e-06
1.75835e-06
1.81265e-06
1.86811e-06
1.9249e-06
1.98324e-06
2.04344e-06
2.10588e-06
2.17092e-06
2.23863e-06
2.3081e-06
2.37539e-06
2.42877e-06
2.432e-06
2.33414e-06
1.68063e-06
0
1.7398e-08
1.67919e-08
7.205e-09
0
0
0
0
0
0
0
0
3.23193e-09
5.3626e-10
0
0
0
0
1.94387e-08
3.90775e-08
4.16857e-08
2.8481e-08
6.18072e-09
0
0
9.74239e-09
4.12471e-08
6.99479e-08
8.89498e-08
9.4969e-08
9.56533e-08
9.52121e-08
9.51506e-08
9.5859e-08
9.71832e-08
9.88028e-08
1.00755e-07
1.03284e-07
1.06074e-07
1.09052e-07
1.12236e-07
1.15652e-07
1.1932e-07
1.23259e-07
1.27488e-07
1.32023e-07
1.36884e-07
1.42092e-07
1.47665e-07
1.53629e-07
1.60003e-07
1.66822e-07
1.74091e-07
1.81878e-07
1.90143e-07
1.9903e-07
2.08399e-07
2.18527e-07
2.29134e-07
2.40626e-07
2.5265e-07
2.6561e-07
2.79234e-07
2.93796e-07
3.09151e-07
3.25469e-07
3.42656e-07
3.60797e-07
3.79868e-07
4.00044e-07
4.21403e-07
4.44233e-07
4.68358e-07
4.94107e-07
5.21335e-07
5.50006e-07
5.80998e-07
6.12897e-07
6.47324e-07
6.84439e-07
7.23864e-07
7.65523e-07
8.10013e-07
8.57669e-07
9.08895e-07
9.64193e-07
1.02422e-06
1.08983e-06
1.16214e-06
1.24264e-06
1.33319e-06
1.43635e-06
1.55487e-06
1.69208e-06
1.85027e-06
2.02421e-06
2.18499e-06
2.22372e-06
1.77204e-06
0
0
2.03155e-08
1.85395e-08
9.77186e-09
0
0
0
0
0
0
0
0
5.5017e-09
2.77954e-09
0
0
0
3.36244e-09
2.05206e-08
2.69426e-08
2.21818e-08
1.14561e-08
3.32192e-10
0
0
1.08623e-08
2.49894e-08
3.50936e-08
3.64413e-08
3.39933e-08
3.09693e-08
2.87668e-08
2.78118e-08
2.77991e-08
2.82585e-08
2.88728e-08
2.96808e-08
3.07962e-08
3.20024e-08
3.32935e-08
3.46899e-08
3.62076e-08
3.78615e-08
3.96652e-08
4.16325e-08
4.37783e-08
4.61189e-08
4.86727e-08
5.14587e-08
5.45007e-08
5.78193e-08
6.14489e-08
6.54047e-08
6.97463e-08
7.44641e-08
7.96733e-08
8.53053e-08
9.15681e-08
9.83154e-08
1.05838e-07
1.13973e-07
1.22993e-07
1.32838e-07
1.4368e-07
1.55579e-07
1.68662e-07
1.8304e-07
1.98846e-07
2.16211e-07
2.35402e-07
2.56478e-07
2.79904e-07
3.05615e-07
3.34193e-07
3.6574e-07
4.00427e-07
4.39183e-07
4.81854e-07
5.29021e-07
5.81615e-07
6.40053e-07
7.04732e-07
7.76204e-07
8.55411e-07
9.41513e-07
1.0369e-06
1.14062e-06
1.25011e-06
1.36371e-06
1.47538e-06
1.57578e-06
1.6466e-06
1.66573e-06
1.59959e-06
1.41845e-06
1.12413e-06
7.53798e-07
4.21032e-07
0
0
0
0
0
0
8.32065e-06
6.57985e-06
4.8105e-06
5.36262e-06
5.42044e-06
2.36706e-06
1.59697e-07
0
0
6.33221e-07
3.94722e-06
5.11834e-06
5.55395e-06
4.90627e-06
2.70103e-06
3.30592e-07
0
0
1.07975e-06
2.76855e-06
4.21832e-06
5.15907e-06
5.5407e-06
5.41099e-06
4.59473e-06
3.45983e-06
2.55512e-06
1.87239e-06
1.37212e-06
1.01809e-06
7.81898e-07
6.37787e-07
5.61437e-07
5.28892e-07
5.18625e-07
5.14829e-07
5.14332e-07
5.20142e-07
5.26876e-07
5.33307e-07
5.39797e-07
5.46437e-07
5.53237e-07
5.60176e-07
5.67213e-07
5.7433e-07
5.81439e-07
5.88585e-07
5.95555e-07
6.0258e-07
6.09144e-07
6.15883e-07
6.21755e-07
6.27937e-07
6.3291e-07
6.38054e-07
6.42006e-07
6.4556e-07
6.48194e-07
6.49892e-07
6.50658e-07
6.50313e-07
6.48785e-07
6.45961e-07
6.41604e-07
6.3584e-07
6.28022e-07
6.18796e-07
6.07342e-07
5.94216e-07
5.79124e-07
5.61685e-07
5.42484e-07
5.21346e-07
4.9806e-07
4.72973e-07
4.46267e-07
4.18049e-07
3.8849e-07
3.57947e-07
3.26609e-07
2.95003e-07
2.6364e-07
2.33016e-07
2.03301e-07
1.75102e-07
1.48931e-07
1.24803e-07
1.03221e-07
8.34732e-08
6.53112e-08
4.86294e-08
3.30698e-08
2.0198e-08
0
0
0
0
0
0
5.30615e-06
2.4305e-05
2.64749e-05
1.5907e-05
9.3215e-06
3.10693e-06
0
0
0
0
4.00826e-06
1.94095e-06
1.1417e-06
8.09647e-07
0
0
0
0
0
0
0
0
1.10431e-08
1.93865e-07
2.36777e-07
1.93463e-07
1.41146e-07
9.76674e-08
6.54396e-08
4.30674e-08
2.80547e-08
1.82671e-08
1.22194e-08
8.8323e-09
7.20228e-09
6.56742e-09
6.38977e-09
6.33529e-09
6.37765e-09
6.49942e-09
6.61566e-09
6.73616e-09
6.86505e-09
7.00371e-09
7.15238e-09
7.31169e-09
7.48089e-09
7.66175e-09
7.8512e-09
8.05445e-09
8.26265e-09
8.48836e-09
8.71286e-09
8.9581e-09
9.19696e-09
9.45354e-09
9.7058e-09
9.9657e-09
1.02296e-08
1.04952e-08
1.0766e-08
1.10375e-08
1.13061e-08
1.15666e-08
1.18127e-08
1.20501e-08
1.22639e-08
1.24651e-08
1.26273e-08
1.27489e-08
1.28168e-08
1.281e-08
1.27312e-08
1.25756e-08
1.23281e-08
1.19876e-08
1.15555e-08
1.10314e-08
1.04155e-08
9.71221e-09
8.9283e-09
8.07533e-09
7.1691e-09
6.22593e-09
5.26567e-09
4.30075e-09
3.36449e-09
2.44807e-09
1.58097e-09
7.45824e-10
0
0
0
0
0
0
0
0
0
1.27527e-06
4.58543e-06
6.37226e-06
0
0
2.65144e-06
0
0
0
0
3.02968e-06
6.77479e-06
4.14932e-06
2.58879e-06
2.14346e-06
1.86325e-06
2.08982e-06
2.53451e-06
3.18103e-07
0
0
0
0
0
0
0
0
0
8.12949e-10
1.00784e-09
8.05967e-10
6.09257e-10
4.2067e-10
2.68331e-10
1.67022e-10
1.06151e-10
7.28574e-11
5.7944e-11
5.37713e-11
5.42855e-11
5.59404e-11
5.90442e-11
6.27294e-11
6.65621e-11
7.06865e-11
7.51573e-11
8.00202e-11
8.52959e-11
9.1045e-11
9.72438e-11
1.0401e-10
1.11204e-10
1.19072e-10
1.27268e-10
1.36223e-10
1.45442e-10
1.55443e-10
1.65947e-10
1.77287e-10
1.89601e-10
2.02879e-10
2.17195e-10
2.32326e-10
2.47992e-10
2.64035e-10
2.80522e-10
2.97978e-10
3.15671e-10
3.32821e-10
3.47142e-10
3.57237e-10
3.62373e-10
3.61693e-10
3.54678e-10
3.40612e-10
3.18752e-10
2.89056e-10
2.5179e-10
2.07155e-10
1.55403e-10
9.69808e-11
3.2472e-11
0
0
0
0
0
0
0
0
0
0
0
0
0
0
0
0
2.81284e-06
9.24265e-07
0
1.15243e-06
0
0
0
0
2.67099e-07
0
0
1.65256e-06
7.77265e-06
1.19088e-05
8.8404e-06
5.91369e-06
4.48486e-06
4.82477e-06
6.52921e-06
6.53507e-06
3.06288e-06
5.38168e-07
0
0
0
0
0
0
0
0
7.16013e-11
0
0
0
0
3.93051e-13
3.37061e-12
3.97844e-12
3.16437e-12
2.1223e-12
1.43003e-12
1.10846e-12
1.01543e-12
1.00355e-12
1.00365e-12
1.02529e-12
1.03988e-12
1.04536e-12
1.04249e-12
1.02961e-12
1.00474e-12
9.63739e-13
9.0364e-13
8.17255e-13
7.01069e-13
5.46001e-13
3.49925e-13
1.09699e-13
0
0
0
0
0
0
0
0
0
0
0
0
0
0
0
0
0
0
0
0
0
0
0
0
0
0
0
0
0
0
0
0
0
3.16744e-12
6.53906e-12
9.39247e-12
1.14416e-11
1.15975e-11
1.04526e-11
0
0
0
5.57159e-06
6.14713e-06
3.88363e-06
0
0
0
0
6.49916e-06
4.0175e-06
0
0
2.7316e-06
8.34973e-06
1.04564e-05
8.18429e-06
8.52661e-06
9.96085e-06
1.21044e-05
1.31054e-05
1.06292e-05
5.0888e-06
1.73364e-06
6.54135e-07
2.24657e-07
1.76906e-08
0
0
0
0
5.04825e-10
1.76526e-09
1.14057e-09
5.79689e-10
2.9811e-10
1.47528e-10
6.62681e-11
2.90677e-11
1.3489e-11
6.5545e-12
3.26184e-12
1.67963e-12
9.13386e-13
5.56264e-13
4.18993e-13
3.89294e-13
3.90048e-13
4.02141e-13
4.22159e-13
4.38801e-13
4.52423e-13
4.6286e-13
4.68553e-13
4.69208e-13
4.61987e-13
4.47318e-13
4.21251e-13
3.85091e-13
3.3541e-13
2.73459e-13
1.97436e-13
1.05321e-13
0
0
0
0
0
0
0
0
0
0
0
0
0
0
0
0
0
0
0
0
0
0
0
0
0
0
4.90125e-13
2.3227e-12
4.43362e-12
6.8132e-12
9.64687e-12
1.32162e-11
1.677e-11
1.9699e-11
2.1335e-11
2.0968e-11
0
0
0
0
0
0
0
0
0
6.22458e-07
9.13651e-06
6.55355e-06
1.38409e-06
0
3.49539e-07
3.2061e-06
4.48851e-06
4.53978e-06
4.75217e-06
4.72038e-06
5.29988e-06
6.44594e-06
6.17083e-06
2.67173e-06
7.55952e-07
3.55499e-07
1.88218e-07
6.9412e-08
0
0
0
0
0
0
0
0
0
0
0
0
1.75008e-12
2.98074e-12
2.30348e-12
1.47044e-12
8.64955e-13
4.87698e-13
2.77506e-13
1.78702e-13
1.46483e-13
1.43735e-13
1.46931e-13
1.55929e-13
1.65413e-13
1.73938e-13
1.81508e-13
1.88462e-13
1.93708e-13
1.97943e-13
1.99427e-13
1.99184e-13
1.95308e-13
1.88182e-13
1.76293e-13
1.5846e-13
1.33281e-13
9.87426e-14
5.33358e-14
0
0
0
0
0
0
0
0
0
0
0
0
0
0
0
0
0
0
0
0
0
0
0
0
0
0
0
0
0
0
0
0
0
0
0
0
0
0
2.9738e-05
1.26682e-05
0
0
8.73297e-06
1.59827e-05
1.50972e-05
7.39565e-06
9.85589e-07
0
0
4.49182e-07
2.80201e-06
2.89019e-06
1.57699e-06
2.54286e-07
1.00084e-06
7.81025e-07
0
0
0
0
4.92978e-08
9.03801e-08
9.19015e-08
6.75145e-08
3.8036e-08
1.91389e-08
8.74642e-09
3.62901e-09
1.45275e-09
6.04322e-10
2.54339e-10
1.03073e-10
4.17716e-11
1.80321e-11
8.30242e-12
4.00082e-12
2.01098e-12
1.0415e-12
5.4514e-13
2.86497e-13
1.53234e-13
8.99774e-14
6.63663e-14
6.16625e-14
6.21619e-14
6.51526e-14
6.93696e-14
7.28598e-14
7.60515e-14
7.87649e-14
8.11037e-14
8.27082e-14
8.37098e-14
8.36094e-14
8.24237e-14
7.95711e-14
7.48566e-14
6.77984e-14
5.8005e-14
4.50547e-14
2.8463e-14
7.71117e-15
0
0
0
0
0
0
0
0
0
0
0
0
0
0
0
0
0
0
0
0
0
0
0
0
0
0
0
0
0
0
0
0
0
0
0
0
0
0
0
7.20046e-06
1.32819e-05
1.50808e-05
1.27426e-05
7.61527e-06
4.06342e-06
3.44041e-07
2.66453e-07
2.95512e-06
4.44356e-06
3.82319e-06
1.55847e-06
0
0
4.75079e-08
0
0
0
8.0912e-08
1.80163e-08
0
0
0
0
0
0
0
0
0
0
0
0
9.7801e-13
2.97226e-12
2.44874e-12
1.60418e-12
9.55993e-13
5.38239e-13
2.91978e-13
1.56491e-13
8.71477e-14
5.69053e-14
4.78951e-14
4.69425e-14
4.79287e-14
5.07922e-14
5.33539e-14
5.53858e-14
5.70734e-14
5.83791e-14
5.91954e-14
5.95435e-14
5.90663e-14
5.81166e-14
5.60017e-14
5.31433e-14
4.91215e-14
4.38697e-14
3.75361e-14
2.96901e-14
2.04138e-14
9.53238e-15
0
0
0
0
0
0
0
0
0
0
0
0
0
0
0
0
0
0
0
0
0
0
0
0
0
0
0
0
0
0
0
0
0
0
0
5.47898e-06
6.01871e-06
1.13626e-05
7.91665e-06
5.36272e-06
3.66989e-06
1.31852e-06
1.37833e-06
1.47923e-06
0
0
3.74501e-06
4.03523e-06
2.19415e-06
0
0
0
0
0
0
0
0
0
0
0
0
0
1.80193e-09
3.50183e-09
1.89949e-09
8.47046e-10
3.88322e-10
1.77695e-10
7.63667e-11
3.27708e-11
1.51676e-11
7.4821e-12
3.82137e-12
2.01128e-12
1.07809e-12
5.77941e-13
3.07348e-13
1.63293e-13
9.01156e-14
5.77481e-14
4.77275e-14
4.66147e-14
4.76689e-14
5.07013e-14
5.35993e-14
5.60097e-14
5.80746e-14
5.97912e-14
6.10152e-14
6.18588e-14
6.19778e-14
6.15399e-14
6.02061e-14
5.79076e-14
5.48305e-14
5.04263e-14
4.52663e-14
3.88605e-14
3.13774e-14
2.29686e-14
1.34814e-14
3.18922e-15
0
0
0
0
0
0
0
0
0
0
0
0
0
0
0
0
0
0
0
0
0
0
0
0
0
0
0
0
0
0
0
1.11056e-06
4.16937e-07
0
7.26246e-06
1.83939e-05
1.12092e-05
5.31126e-06
0
0
0
0
0
0
0
2.29341e-07
0
0
0
0
0
0
0
0
0
0
0
0
0
0
0
0
0
0
0
0
0
0
2.42362e-12
3.36972e-12
2.55867e-12
1.64389e-12
9.78775e-13
5.54705e-13
3.04123e-13
1.64465e-13
9.16702e-14
5.89265e-14
4.87327e-14
4.77984e-14
4.91801e-14
5.27063e-14
5.62672e-14
5.933e-14
6.21356e-14
6.46306e-14
6.68062e-14
6.8448e-14
6.96236e-14
7.00103e-14
6.98226e-14
6.84482e-14
6.6384e-14
6.30064e-14
5.8667e-14
5.32494e-14
4.65034e-14
3.88861e-14
2.99993e-14
2.02538e-14
9.69959e-15
0
0
0
0
0
0
0
0
0
0
0
0
0
0
0
0
0
0
0
0
0
0
0
0
0
0
0
0
0
0
2.41681e-06
4.21242e-06
7.65023e-06
1.80804e-05
2.44652e-05
1.56753e-05
7.08966e-06
2.76736e-08
0
0
0
0
0
1.37576e-06
1.62571e-06
0
0
0
0
0
0
0
0
0
0
0
0
0
0
0
2.58601e-10
7.66547e-10
3.73703e-10
1.83987e-10
9.30864e-11
4.34046e-11
2.05171e-11
1.07264e-11
5.89852e-12
3.26578e-12
1.82026e-12
1.01533e-12
5.59824e-13
3.04162e-13
1.64477e-13
9.20677e-14
5.9536e-14
4.96056e-14
4.90084e-14
5.08061e-14
5.49644e-14
5.92056e-14
6.30111e-14
6.6654e-14
7.00475e-14
7.31586e-14
7.59342e-14
7.81201e-14
7.99897e-14
8.06385e-14
8.11813e-14
7.96748e-14
7.82763e-14
7.45508e-14
7.0497e-14
6.47171e-14
5.76412e-14
4.95289e-14
3.98829e-14
2.94615e-14
1.79193e-14
5.8988e-15
0
0
0
0
0
0
0
0
0
0
0
0
0
0
0
0
0
0
0
0
0
0
0
0
0
0
0
0
0
0
0
5.67709e-06
1.37798e-05
1.11102e-05
7.57307e-06
5.75164e-06
3.21786e-06
8.30697e-07
0
0
4.92866e-06
8.1085e-06
5.23182e-06
2.04558e-06
0
0
0
0
0
0
0
0
0
0
0
0
0
0
0
0
0
0
0
0
3.84848e-12
4.52467e-12
3.58877e-12
2.38425e-12
1.46548e-12
8.62807e-13
4.90808e-13
2.72168e-13
1.49719e-13
8.56614e-14
5.73935e-14
4.95388e-14
4.98075e-14
5.2289e-14
5.72905e-14
6.21746e-14
6.67673e-14
7.12962e-14
7.56909e-14
7.99208e-14
8.38849e-14
8.74591e-14
9.05683e-14
9.31098e-14
9.45855e-14
9.56895e-14
9.45978e-14
9.38738e-14
9.00354e-14
8.64493e-14
8.0218e-14
7.29246e-14
6.40925e-14
5.35372e-14
4.1857e-14
2.87675e-14
1.50259e-14
9.28548e-16
0
0
0
0
0
0
0
0
0
0
0
0
0
0
0
0
0
0
0
0
0
0
0
0
0
0
8.43656e-07
3.77213e-07
1.77381e-06
3.09261e-05
1.66641e-05
1.18683e-05
8.21486e-06
6.51781e-06
4.21198e-06
3.92639e-06
5.84472e-06
8.04708e-06
8.64894e-06
7.66152e-06
5.13344e-06
2.63233e-06
4.86602e-07
0
0
0
0
0
0
0
0
0
0
0
0
0
0
4.39225e-10
2.57164e-10
1.28749e-10
6.52852e-11
3.04966e-11
1.47183e-11
8.01823e-12
4.58455e-12
2.61507e-12
1.49163e-12
8.47698e-13
4.75057e-13
2.62252e-13
1.44487e-13
8.33396e-14
5.67953e-14
4.9893e-14
5.06756e-14
5.37125e-14
5.94637e-14
6.50549e-14
7.05011e-14
7.59871e-14
8.1432e-14
8.68904e-14
9.21159e-14
9.7253e-14
1.01772e-13
1.06214e-13
1.09319e-13
1.12433e-13
1.13342e-13
1.14125e-13
1.12794e-13
1.10088e-13
1.06292e-13
9.96478e-14
9.2282e-14
8.20976e-14
7.05981e-14
5.71649e-14
4.21164e-14
2.61667e-14
9.63532e-15
0
0
0
0
0
0
0
0
0
0
0
0
0
0
0
0
0
0
0
0
0
0
0
0
0
0
0
0
2.03188e-06
5.4119e-06
0
0
6.82537e-07
6.94416e-06
1.03685e-05
1.3739e-05
1.46733e-05
1.14117e-05
6.51245e-06
3.34326e-06
1.9016e-06
6.9236e-07
0
0
0
0
0
0
0
0
0
0
0
0
0
0
2.62043e-10
1.24219e-10
6.02931e-11
3.50424e-11
1.82946e-11
1.01221e-11
6.38209e-12
4.02862e-12
2.43419e-12
1.4362e-12
8.32875e-13
4.72734e-13
2.63292e-13
1.46009e-13
8.44706e-14
5.74727e-14
5.04885e-14
5.15319e-14
5.49809e-14
6.14093e-14
6.78112e-14
7.41253e-14
8.06274e-14
8.72393e-14
9.39194e-14
1.00693e-13
1.07218e-13
1.1388e-13
1.19616e-13
1.25796e-13
1.29694e-13
1.34763e-13
1.35671e-13
1.38783e-13
1.36533e-13
1.35829e-13
1.30958e-13
1.2452e-13
1.16494e-13
1.04693e-13
9.18723e-14
7.59587e-14
5.82906e-14
3.93733e-14
1.95728e-14
0
0
0
0
0
0
0
0
0
0
0
0
0
0
0
0
0
0
0
0
0
0
0
0
0
0
2.86228e-06
6.08564e-06
7.03542e-06
4.59857e-06
6.96699e-07
3.91282e-07
2.89164e-06
6.15508e-06
1.08986e-05
1.55885e-05
1.50157e-05
7.73638e-06
4.04769e-06
3.1562e-06
3.32523e-06
4.0423e-06
4.11422e-06
0
0
0
0
0
0
0
0
0
0
0
0
0
0
1.83462e-11
2.53383e-11
1.67446e-11
1.01065e-11
6.48701e-12
4.0753e-12
2.447e-12
1.44002e-12
8.36083e-13
4.76301e-13
2.66556e-13
1.48453e-13
8.59912e-14
5.82627e-14
5.09991e-14
5.22266e-14
5.60275e-14
6.30996e-14
7.03424e-14
7.7589e-14
8.51416e-14
9.29846e-14
1.01056e-13
1.09348e-13
1.17704e-13
1.26107e-13
1.34356e-13
1.42211e-13
1.49868e-13
1.55785e-13
1.62208e-13
1.64573e-13
1.69158e-13
1.67276e-13
1.67912e-13
1.62241e-13
1.56092e-13
1.46581e-13
1.33249e-13
1.18157e-13
9.89195e-14
7.77288e-14
5.4784e-14
3.05041e-14
6.28338e-15
0
0
0
0
0
0
0
0
0
0
0
0
0
0
0
0
0
0
0
0
0
0
0
0
8.79782e-06
1.61003e-05
1.29055e-05
7.97215e-06
5.69516e-06
5.66699e-06
3.79368e-06
2.73949e-06
4.63087e-06
6.3377e-06
4.52765e-06
1.92039e-06
2.17302e-06
3.23518e-06
6.01918e-06
8.97894e-06
5.33557e-06
6.83319e-07
0
0
0
0
0
0
0
0
0
0
7.7886e-10
7.70414e-10
2.75017e-10
1.05773e-10
4.88934e-11
2.21641e-11
1.0924e-11
6.37433e-12
3.89263e-12
2.33275e-12
1.38293e-12
8.10937e-13
4.66529e-13
2.63454e-13
1.47907e-13
8.61513e-14
5.83761e-14
5.11079e-14
5.25831e-14
5.67751e-14
6.45231e-14
7.25863e-14
8.08058e-14
8.94311e-14
9.85662e-14
1.08107e-13
1.18032e-13
1.28366e-13
1.38789e-13
1.49607e-13
1.59875e-13
1.70704e-13
1.79623e-13
1.89367e-13
1.95551e-13
2.02701e-13
2.05702e-13
2.07858e-13
2.07209e-13
2.0236e-13
1.96053e-13
1.83826e-13
1.69445e-13
1.50302e-13
1.26864e-13
1.00848e-13
7.2428e-14
4.2115e-14
1.21224e-14
0
0
0
0
0
0
0
0
0
0
0
0
0
0
0
0
0
0
0
0
0
0
0
1.62942e-05
2.09167e-05
1.07111e-05
6.58373e-06
7.68211e-06
9.68823e-06
3.72362e-06
2.94948e-07
2.50672e-07
0
0
0
3.41636e-07
1.30429e-06
2.36326e-06
1.11698e-06
0
0
0
9.51208e-09
0
0
0
0
0
0
0
0
0
0
0
0
0
0
3.42375e-12
3.83211e-12
2.94908e-12
1.9453e-12
1.20925e-12
7.2872e-13
4.26926e-13
2.44492e-13
1.38936e-13
8.18883e-14
5.63326e-14
5.02112e-14
5.22812e-14
5.71057e-14
6.57142e-14
7.44865e-14
8.36647e-14
9.34031e-14
1.0387e-13
1.1495e-13
1.26653e-13
1.38987e-13
1.51829e-13
1.65037e-13
1.78712e-13
1.91919e-13
2.06147e-13
2.17195e-13
2.31502e-13
2.37704e-13
2.50954e-13
2.52277e-13
2.59524e-13
2.56181e-13
2.53604e-13
2.45877e-13
2.3079e-13
2.14434e-13
1.89833e-13
1.60748e-13
1.2807e-13
9.20309e-14
5.41544e-14
1.6054e-14
0
0
0
0
0
0
0
0
0
0
0
0
0
0
0
0
0
0
0
0
2.24644e-06
0
0
3.52648e-06
6.48883e-06
4.42779e-06
7.06914e-06
7.55968e-06
4.093e-06
4.09997e-06
4.19388e-06
2.73277e-06
1.86934e-07
0
0
0
0
0
0
0
0
0
0
0
0
0
0
0
0
0
0
7.3345e-10
2.81144e-10
9.24704e-11
3.53361e-11
1.40121e-11
6.6546e-12
4.16175e-12
2.74631e-12
1.74333e-12
1.08087e-12
6.5704e-13
3.89237e-13
2.2535e-13
1.29427e-13
7.72537e-14
5.41215e-14
4.91082e-14
5.16867e-14
5.70423e-14
6.64386e-14
7.59524e-14
8.60521e-14
9.69658e-14
1.08729e-13
1.2148e-13
1.35002e-13
1.49517e-13
1.64787e-13
1.81006e-13
1.97637e-13
2.15134e-13
2.3228e-13
2.50203e-13
2.65682e-13
2.82713e-13
2.93838e-13
3.08904e-13
3.13622e-13
3.22892e-13
3.20362e-13
3.18667e-13
3.08228e-13
2.90915e-13
2.69501e-13
2.38045e-13
2.01434e-13
1.59753e-13
1.12794e-13
6.52022e-14
1.71711e-14
0
0
0
0
0
0
0
0
0
0
0
0
0
0
0
0
0
0
0
6.73308e-06
6.35574e-06
2.57757e-06
0
2.50883e-06
6.24626e-07
2.45892e-06
8.49715e-06
1.11594e-05
1.11927e-05
1.11751e-05
1.19515e-05
7.41351e-06
6.88903e-07
0
0
0
0
0
0
0
0
0
0
0
0
0
0
0
0
0
0
0
0
0
7.60833e-13
2.26477e-12
2.5986e-12
2.14298e-12
1.49498e-12
9.75009e-13
6.11716e-13
3.70258e-13
2.17753e-13
1.26483e-13
7.59064e-14
5.30819e-14
4.81059e-14
5.09152e-14
5.65906e-14
6.64616e-14
7.6981e-14
8.78382e-14
9.99759e-14
1.13038e-13
1.27466e-13
1.42933e-13
1.59695e-13
1.77672e-13
1.96919e-13
2.17049e-13
2.38784e-13
2.60099e-13
2.83994e-13
3.04207e-13
3.2919e-13
3.44612e-13
3.68947e-13
3.78695e-13
3.95542e-13
4.0058e-13
4.03758e-13
4.00562e-13
3.86147e-13
3.68565e-13
3.37558e-13
2.96984e-13
2.49757e-13
1.95581e-13
1.34395e-13
7.3504e-14
1.37871e-14
0
0
0
0
0
0
0
0
0
0
0
0
0
0
0
0
0
0
1.95531e-06
0
0
1.91497e-06
2.50007e-07
0
1.39116e-07
3.36732e-06
7.55351e-06
9.73392e-06
1.16737e-05
1.70403e-05
2.15858e-05
6.7222e-06
1.32217e-06
0
0
0
0
0
0
0
0
0
0
0
0
0
0
0
0
1.68566e-11
1.99339e-11
1.10022e-12
4.12763e-12
2.97558e-12
2.39768e-12
2.35155e-12
1.92221e-12
1.35803e-12
9.023e-13
5.77077e-13
3.55326e-13
2.11989e-13
1.24503e-13
7.50803e-14
5.21266e-14
4.68701e-14
4.97626e-14
5.57344e-14
6.58592e-14
7.73021e-14
8.90944e-14
1.02185e-13
1.1675e-13
1.32647e-13
1.50283e-13
1.6924e-13
1.89973e-13
2.12522e-13
2.36735e-13
2.61998e-13
2.90067e-13
3.17067e-13
3.48369e-13
3.73688e-13
4.07999e-13
4.2679e-13
4.60744e-13
4.73189e-13
4.98571e-13
5.01047e-13
5.10499e-13
5.03564e-13
4.85301e-13
4.64456e-13
4.22367e-13
3.69788e-13
3.07603e-13
2.35779e-13
1.55356e-13
7.60963e-14
4.34127e-15
0
0
0
0
0
0
0
0
0
0
0
0
0
0
0
0
0
0
0
0
0
8.14022e-07
3.67883e-06
4.61393e-06
1.97042e-06
6.74453e-07
2.09967e-06
5.12961e-06
1.21752e-05
1.57245e-05
8.91062e-06
4.20681e-06
1.42105e-06
0
0
0
0
0
0
0
0
0
0
0
0
0
0
0
0
0
0
0
0
0
3.5028e-13
1.07727e-12
1.00442e-12
7.55581e-13
5.17213e-13
3.31666e-13
2.03129e-13
1.21355e-13
7.36723e-14
5.07365e-14
4.52002e-14
4.81194e-14
5.42897e-14
6.48443e-14
7.6654e-14
8.97462e-14
1.03536e-13
1.19577e-13
1.36997e-13
1.56628e-13
1.7808e-13
2.01754e-13
2.27269e-13
2.55843e-13
2.86334e-13
3.18733e-13
3.53402e-13
3.91104e-13
4.26905e-13
4.66514e-13
5.02185e-13
5.38032e-13
5.71261e-13
5.99628e-13
6.23308e-13
6.364e-13
6.46565e-13
6.36726e-13
6.16845e-13
5.83085e-13
5.26091e-13
4.57062e-13
3.74602e-13
2.7977e-13
1.74191e-13
6.97056e-14
0
0
0
0
0
0
0
0
0
0
0
0
0
0
0
0
0
0
0
0
0
6.15302e-07
7.48885e-06
8.4671e-06
3.05855e-06
0
0
1.07629e-06
3.42816e-06
6.19644e-06
8.00021e-06
5.39357e-06
2.59368e-06
0
0
0
0
0
0
5.20698e-08
2.76573e-08
0
0
0
0
0
0
0
1.16349e-10
7.53021e-11
1.86514e-11
8.59199e-12
3.12481e-12
1.45325e-12
1.44743e-12
1.31113e-12
1.00502e-12
7.19275e-13
4.90552e-13
3.17977e-13
1.97443e-13
1.19314e-13
7.26853e-14
4.94502e-14
4.33555e-14
4.61393e-14
5.20822e-14
6.36229e-14
7.49639e-14
8.9312e-14
1.04339e-13
1.2102e-13
1.40515e-13
1.61652e-13
1.85848e-13
2.12141e-13
2.41817e-13
2.73741e-13
3.09047e-13
3.48754e-13
3.90344e-13
4.32528e-13
4.85421e-13
5.26612e-13
5.85867e-13
6.21318e-13
6.86405e-13
7.12108e-13
7.65265e-13
7.81486e-13
8.12786e-13
8.17968e-13
8.08901e-13
7.86277e-13
7.34008e-13
6.58094e-13
5.64194e-13
4.50178e-13
3.19799e-13
1.8589e-13
5.56874e-14
0
0
0
0
0
0
0
0
0
0
0
0
0
0
0
0
0
1.89193e-05
3.901e-05
2.17523e-05
9.91105e-06
7.4194e-06
1.04489e-06
0
0
0
0
0
1.21897e-06
2.99836e-06
2.67526e-06
1.70703e-06
0
0
0
0
0
0
0
0
0
0
0
0
0
0
0
0
0
0
0
0
0
0
0
3.82843e-13
4.82177e-13
4.00099e-13
2.84015e-13
1.85264e-13
1.15248e-13
7.11095e-14
4.79279e-14
4.11117e-14
4.3793e-14
4.95493e-14
6.03526e-14
7.42589e-14
8.68172e-14
1.04265e-13
1.21609e-13
1.42231e-13
1.65679e-13
1.9176e-13
2.21439e-13
2.53959e-13
2.90972e-13
3.32202e-13
3.75154e-13
4.25976e-13
4.81553e-13
5.3424e-13
6.00665e-13
6.62262e-13
7.29798e-13
7.8506e-13
8.64762e-13
9.07011e-13
9.70623e-13
1.00486e-12
1.04566e-12
1.03447e-12
1.03481e-12
9.97644e-13
9.21262e-13
8.21435e-13
6.96343e-13
5.43107e-13
3.58794e-13
1.77348e-13
2.87691e-14
0
0
0
0
0
0
0
0
0
0
0
0
0
0
0
0
0
1.92745e-05
1.85815e-05
1.1086e-07
0
0
0
0
0
0
0
2.53683e-07
4.66991e-07
4.40117e-07
0
0
0
0
0
0
0
0
0
0
0
0
0
0
0
0
1.36552e-10
1.51788e-10
4.93559e-11
1.75297e-11
4.32894e-12
5.29935e-13
3.43674e-13
5.13559e-13
5.22691e-13
4.56636e-13
3.58389e-13
2.55836e-13
1.70046e-13
1.07823e-13
6.74385e-14
4.54066e-14
3.84303e-14
4.07607e-14
4.68452e-14
5.65089e-14
7.09368e-14
8.56185e-14
1.00965e-13
1.21734e-13
1.42244e-13
1.67826e-13
1.96052e-13
2.28602e-13
2.64902e-13
3.05735e-13
3.51172e-13
4.04893e-13
4.59401e-13
5.22057e-13
5.94248e-13
6.70978e-13
7.38201e-13
8.44404e-13
9.09364e-13
1.00532e-12
1.08391e-12
1.18283e-12
1.22214e-12
1.29121e-12
1.35131e-12
1.33348e-12
1.32967e-12
1.27818e-12
1.16323e-12
1.01646e-12
8.39838e-13
6.38821e-13
3.96823e-13
1.55421e-13
0
0
0
0
0
0
0
0
0
0
0
0
0
0
0
2.5697e-05
3.46917e-05
3.99335e-05
1.86764e-05
0
0
0
0
0
0
0
0
1.81474e-06
0
0
0
0
0
0
0
0
0
0
0
0
0
0
0
0
0
0
0
0
0
0
0
0
0
0
0
1.4443e-13
2.24752e-13
1.9619e-13
1.42743e-13
9.51253e-14
6.1185e-14
4.14255e-14
3.48023e-14
3.71326e-14
4.28234e-14
5.38324e-14
6.61368e-14
8.20429e-14
9.91953e-14
1.17865e-13
1.42382e-13
1.67066e-13
1.98799e-13
2.32718e-13
2.73327e-13
3.18186e-13
3.69645e-13
4.26568e-13
4.93762e-13
5.67002e-13
6.45058e-13
7.33528e-13
8.43838e-13
9.32288e-13
1.0647e-12
1.16037e-12
1.29323e-12
1.3773e-12
1.52512e-12
1.5961e-12
1.65643e-12
1.73673e-12
1.74736e-12
1.69318e-12
1.63784e-12
1.49064e-12
1.28705e-12
1.01058e-12
7.22425e-13
4.02873e-13
1.14993e-13
0
0
0
0
0
0
0
0
0
0
0
0
0
0
1.19114e-05
6.88524e-06
0
0
0
0
0
0
4.54223e-07
1.10315e-06
8.55626e-07
2.88657e-07
0
0
0
0
0
0
0
0
0
0
0
0
0
0
0
0
0
0
0
4.30901e-10
3.80287e-10
1.28924e-10
3.63759e-11
6.06859e-12
0
0
0
0
7.48339e-14
1.55041e-13
1.51179e-13
1.17656e-13
8.19592e-14
5.41235e-14
3.69375e-14
3.08653e-14
3.30479e-14
3.85491e-14
4.90599e-14
6.2074e-14
7.74537e-14
9.42911e-14
1.15478e-13
1.37964e-13
1.67057e-13
1.97109e-13
2.35768e-13
2.7757e-13
3.27439e-13
3.83977e-13
4.47785e-13
5.21579e-13
6.04068e-13
6.99161e-13
8.05185e-13
9.20058e-13
1.04126e-12
1.20337e-12
1.31808e-12
1.50997e-12
1.64327e-12
1.79338e-12
1.94869e-12
2.11895e-12
2.1677e-12
2.21938e-12
2.32763e-12
2.21091e-12
2.07238e-12
1.87832e-12
1.60643e-12
1.2433e-12
7.88988e-13
3.73138e-13
5.60359e-14
0
0
0
0
0
0
0
0
0
0
0
0
0
0
0
4.15811e-06
0
0
0
0
0
0
0
0
0
0
0
0
0
0
0
0
0
0
0
0
0
0
0
0
0
0
0
0
0
0
0
0
0
0
0
0
0
0
1.29445e-14
8.49415e-14
8.64653e-14
6.72331e-14
4.69982e-14
3.26966e-14
2.69869e-14
2.87971e-14
3.41438e-14
4.28492e-14
5.77522e-14
7.03683e-14
8.98924e-14
1.08442e-13
1.34484e-13
1.61419e-13
1.96081e-13
2.33438e-13
2.80164e-13
3.32039e-13
3.93654e-13
4.64756e-13
5.44769e-13
6.38059e-13
7.48474e-13
8.63677e-13
9.99623e-13
1.17123e-12
1.31171e-12
1.53778e-12
1.70048e-12
1.97238e-12
2.1093e-12
2.35754e-12
2.51553e-12
2.79742e-12
2.84838e-12
2.91997e-12
3.06744e-12
2.89796e-12
2.67221e-12
2.39126e-12
2.01341e-12
1.4957e-12
8.35199e-13
3.0415e-13
0
0
0
0
0
0
0
0
0
0
0
0
0
0
3.84218e-06
1.81546e-06
0
0
1.03373e-07
1.36319e-06
0
0
0
0
0
0
0
0
0
0
0
0
0
0
0
0
0
0
0
0
0
0
0
0
0
0
0
0
0
0
0
0
0
0
0
1.87974e-14
5.45212e-14
5.23746e-14
4.00053e-14
2.87675e-14
2.33042e-14
2.45651e-14
2.92214e-14
3.81065e-14
4.94335e-14
6.58216e-14
8.05243e-14
1.03386e-13
1.24821e-13
1.56439e-13
1.88388e-13
2.30718e-13
2.76219e-13
3.33967e-13
3.97362e-13
4.75451e-13
5.63029e-13
6.67409e-13
7.8159e-13
9.2577e-13
1.08422e-12
1.252e-12
1.46682e-12
1.68815e-12
1.95741e-12
2.19556e-12
2.57144e-12
2.77573e-12
3.09706e-12
3.33506e-12
3.74572e-12
3.77786e-12
3.86857e-12
4.07942e-12
3.84782e-12
3.4965e-12
3.02185e-12
2.47911e-12
1.75365e-12
8.28643e-13
2.14239e-13
0
0
0
0
0
0
0
0
0
0
0
0
0
0
3.34739e-06
0
0
0
8.84759e-07
2.24503e-07
0
0
0
0
4.49935e-06
2.99996e-08
0
0
0
0
0
0
0
0
0
0
0
0
0
0
0
0
0
0
1.70175e-11
0
0
0
0
0
0
0
0
0
0
1.10312e-14
3.22317e-14
3.07379e-14
2.39268e-14
1.93796e-14
2.00649e-14
2.42277e-14
3.14362e-14
4.33256e-14
5.70449e-14
7.42429e-14
9.26358e-14
1.18632e-13
1.44649e-13
1.82181e-13
2.19646e-13
2.71816e-13
3.26733e-13
3.98313e-13
4.76487e-13
5.74001e-13
6.86278e-13
8.14491e-13
9.70392e-13
1.14071e-12
1.35684e-12
1.58293e-12
1.8697e-12
2.15675e-12
2.5031e-12
2.86196e-12
3.38389e-12
3.66536e-12
4.12195e-12
4.46826e-12
5.04301e-12
5.06667e-12
5.1993e-12
5.4608e-12
5.13721e-12
4.63778e-12
3.92558e-12
3.01389e-12
1.8886e-12
7.59017e-13
1.04335e-13
0
0
0
0
0
0
0
0
0
0
0
0
5.72185e-06
4.99562e-06
2.97087e-06
1.3739e-06
5.35507e-07
0
0
0
0
0
3.3638e-06
1.26532e-05
5.91232e-06
9.66131e-07
0
0
0
0
0
0
0
0
0
0
0
0
0
0
0
0
0
0
0
0
0
0
0
0
0
0
0
0
0
6.43233e-15
1.83015e-14
1.75866e-14
1.50087e-14
1.54641e-14
1.91945e-14
2.50072e-14
3.65293e-14
4.77808e-14
6.53297e-14
8.21377e-14
1.06919e-13
1.34603e-13
1.67481e-13
2.11405e-13
2.56711e-13
3.19742e-13
3.87494e-13
4.74408e-13
5.73401e-13
6.93593e-13
8.37339e-13
9.99152e-13
1.20073e-12
1.4248e-12
1.71318e-12
1.99205e-12
2.41449e-12
2.77709e-12
3.24935e-12
3.75256e-12
4.49095e-12
4.89375e-12
5.5328e-12
6.04485e-12
6.90506e-12
6.90621e-12
7.06772e-12
7.34767e-12
6.91275e-12
6.20443e-12
5.15534e-12
3.59999e-12
1.91796e-12
6.29267e-13
0
0
0
0
0
0
0
0
0
0
0
7.77171e-07
3.99673e-06
3.44545e-06
2.67729e-06
2.8126e-06
3.75117e-06
2.61918e-06
0
0
0
0
4.99535e-07
9.35656e-06
4.17018e-06
1.6864e-06
6.28181e-07
0
0
0
0
0
0
0
0
0
0
0
0
0
0
0
0
0
0
0
0
0
0
0
0
0
0
0
0
0
3.05423e-15
9.9404e-15
1.03024e-14
1.09966e-14
1.4088e-14
1.90625e-14
2.7778e-14
4.04558e-14
5.31736e-14
7.31126e-14
9.20616e-14
1.22046e-13
1.52314e-13
1.9383e-13
2.43108e-13
3.00732e-13
3.74646e-13
4.58755e-13
5.67016e-13
6.86157e-13
8.4383e-13
1.01877e-12
1.23433e-12
1.48808e-12
1.78293e-12
2.15339e-12
2.54657e-12
3.13331e-12
3.59785e-12
4.25283e-12
4.9775e-12
6.01728e-12
6.59698e-12
7.52409e-12
8.31023e-12
9.58215e-12
9.54789e-12
9.77915e-12
1.00271e-11
9.41454e-12
8.38953e-12
6.73098e-12
4.13332e-12
1.87749e-12
4.27774e-13
0
0
0
0
0
0
0
0
0
0
0
0
1.97935e-06
2.72788e-06
6.78558e-06
9.7226e-06
8.60024e-06
5.35539e-06
6.39208e-07
0
0
0
4.81213e-06
2.73012e-06
1.31463e-06
5.34291e-07
0
0
0
0
0
0
8.45931e-09
1.00088e-07
7.00806e-08
0
0
0
0
0
0
0
1.31664e-11
0
0
0
0
0
0
0
0
0
0
0
0
0
1.03945e-15
5.28579e-15
6.78149e-15
9.33636e-15
1.34712e-14
2.00621e-14
3.17504e-14
4.2675e-14
6.00111e-14
7.94105e-14
1.0376e-13
1.37037e-13
1.71737e-13
2.23889e-13
2.77908e-13
3.50491e-13
4.40192e-13
5.39199e-13
6.75735e-13
8.24321e-13
1.01998e-12
1.24845e-12
1.52227e-12
1.8413e-12
2.26159e-12
2.69732e-12
3.2749e-12
4.05668e-12
4.7084e-12
5.62027e-12
6.65943e-12
8.12774e-12
9.0499e-12
1.0325e-11
1.15632e-11
1.35203e-11
1.34486e-11
1.3767e-11
1.39986e-11
1.30162e-11
1.12992e-11
8.44549e-12
4.58296e-12
1.69601e-12
1.57177e-13
0
0
0
0
0
0
0
0
0
7.12231e-07
0
0
3.0621e-06
6.64468e-06
7.15421e-06
4.78425e-06
1.12241e-06
0
0
0
0
6.85782e-07
4.60513e-07
1.45178e-07
1.68919e-09
0
0
0
0
0
0
0
0
0
0
0
0
0
0
0
0
0
0
0
0
0
0
0
0
0
0
0
0
0
0
0
0
2.94036e-15
5.18448e-15
8.21646e-15
1.34781e-14
2.16858e-14
3.32953e-14
4.57168e-14
6.53344e-14
8.59761e-14
1.16759e-13
1.51793e-13
1.94951e-13
2.52697e-13
3.19876e-13
4.05023e-13
5.09999e-13
6.43827e-13
7.94118e-13
9.9852e-13
1.23179e-12
1.52842e-12
1.877e-12
2.30435e-12
2.8405e-12
3.43861e-12
4.22273e-12
5.27771e-12
6.26284e-12
7.40707e-12
9.0841e-12
1.09099e-11
1.26889e-11
1.45222e-11
1.64082e-11
1.93513e-11
1.92785e-11
1.95244e-11
1.99485e-11
1.86246e-11
1.5431e-11
9.83806e-12
4.77232e-12
1.30616e-12
0
0
0
0
0
0
0
0
0
2.76052e-07
0
0
0
2.56489e-06
1.83558e-06
0
0
0
0
0
0
0
5.07133e-07
8.15413e-08
0
0
0
0
0
0
0
0
0
0
0
0
0
0
0
0
0
0
0
0
0
0
0
0
0
0
0
0
0
0
0
0
0
0
1.78742e-15
4.11488e-15
7.66197e-15
1.33589e-14
2.33738e-14
3.35504e-14
5.01552e-14
6.81359e-14
9.33715e-14
1.27989e-13
1.64472e-13
2.22405e-13
2.8217e-13
3.60987e-13
4.74431e-13
5.80857e-13
7.57556e-13
9.35383e-13
1.19019e-12
1.49335e-12
1.8714e-12
2.31683e-12
2.88285e-12
3.58014e-12
4.38917e-12
5.48678e-12
6.80547e-12
8.49132e-12
1.00036e-11
1.24657e-11
1.51381e-11
1.73979e-11
2.08048e-11
2.38217e-11
2.78504e-11
2.89542e-11
2.87904e-11
2.83953e-11
2.6375e-11
2.09225e-11
1.17415e-11
4.72134e-12
7.029e-13
0
0
0
0
0
0
0
0
2.93806e-06
3.60336e-06
1.83841e-06
0
0
0
0
0
0
0
0