/*--------------------------------*- C++ -*----------------------------------*\
| =========                 |                                                 |
| \\      /  F ield         | OpenFOAM: The Open Source CFD Toolbox           |
|  \\    /   O peration     | Version:  4.1                                   |
|   \\  /    A nd           | Web:      www.OpenFOAM.org                      |
|    \\/     M anipulation  |                                                 |
\*---------------------------------------------------------------------------*/
FoamFile
{
    version     2.0;
    format      ascii;
    class       surfaceScalarField;
    location    "0.051";
    object      phi;
}
// * * * * * * * * * * * * * * * * * * * * * * * * * * * * * * * * * * * * * //

dimensions      [0 3 -1 0 0 0 0];

internalField   nonuniform List<scalar> 
87025
(
0.0200015
4.18814e-05
0.0199549
4.66049e-05
0.0198974
5.74965e-05
0.0198469
5.05216e-05
0.0198146
3.2315e-05
0.019807
7.56049e-06
0.0198171
-1.00691e-05
0.0198132
3.86656e-06
0.0197776
3.56242e-05
0.0197249
5.26858e-05
0.0196816
4.32929e-05
0.0196567
2.49502e-05
0.0196358
2.09166e-05
0.0195977
3.81016e-05
0.0195341
6.35414e-05
0.019456
7.81464e-05
0.0193823
7.36169e-05
0.019325
5.73594e-05
0.0192801
4.48772e-05
0.0192314
4.87214e-05
0.0191599
7.15209e-05
0.019055
0.000104847
0.0189189
0.000136102
0.0187624
0.000156497
0.0185979
0.000164512
0.018434
0.000163959
0.018274
0.000159959
0.0181178
0.00015618
0.0179637
0.000154129
0.0178099
0.000153778
0.0176553
0.000154562
0.0174994
0.000155951
0.0173418
0.000157621
0.0171823
0.000159425
0.017021
0.000161314
0.0168578
0.00016328
0.0166924
0.000165326
0.016525
0.000167457
0.0163553
0.000169675
0.0161833
0.000171981
0.0160089
0.000174378
0.0158321
0.000176866
0.0156526
0.000179445
0.0154705
0.000182115
0.0152856
0.000184878
0.0150979
0.000187732
0.0149072
0.000190679
0.0147135
0.000193716
0.0145167
0.000196845
0.0143166
0.000200063
0.0141132
0.000203369
0.0139065
0.000206763
0.0136962
0.000210242
0.0134824
0.000213803
0.013265
0.000217444
0.0130438
0.000221161
0.0128189
0.000224952
0.0125901
0.000228811
0.0123573
0.000232734
0.0121206
0.000236716
0.0118799
0.000240751
0.011635
0.000244832
0.0113861
0.000248949
0.011133
0.000253096
0.0108757
0.000257262
0.0106143
0.00026144
0.0103487
0.000265607
0.010079
0.000269713
0.00980513
0.000273828
0.00952721
0.000277917
0.00924526
0.00028195
0.00895935
0.000285912
0.00866956
0.000289789
0.00837599
0.000293565
0.00807877
0.000297226
0.00777801
0.000300753
0.00747388
0.00030413
0.00716654
0.000307342
0.00685617
0.000310372
0.00654296
0.000313208
0.00622713
0.000315837
0.00590888
0.00031825
0.00558844
0.000320437
0.00526604
0.000322394
0.00494193
0.000324118
0.00461632
0.00032561
0.00428944
0.000326875
0.00396152
0.000327922
0.00363276
0.000328763
0.00330334
0.000329413
0.00297345
0.000329892
0.00264323
0.000330221
0.00231281
0.000330425
0.00198228
0.000330527
0.00165173
0.000330552
0.0013212
0.000330525
0.000990732
0.00033047
0.000660338
0.000330394
0.000329986
0.000330352
0.000329986
0.0199649
8.58503e-06
0.0199514
6.00581e-05
0.019962
4.68885e-05
0.0199726
3.99978e-05
0.0199586
4.62912e-05
0.0199285
3.76783e-05
0.0199056
1.27517e-05
0.0199056
3.88094e-06
0.0199145
2.67371e-05
0.019905
6.22244e-05
0.0198674
8.08388e-05
0.0198183
7.40561e-05
0.0197816
5.76497e-05
0.0197664
5.32922e-05
0.019759
7.09361e-05
0.0197338
0.000103371
0.0196758
0.00013157
0.0195942
0.000139012
0.0195143
0.000124702
0.0194594
0.000103675
0.0194355
9.53941e-05
0.0194296
0.000110786
0.0194187
0.000146973
0.0193831
0.000192107
0.0193137
0.000233923
0.0192123
0.000265398
0.0190867
0.000285465
0.0189462
0.000296682
0.0187978
0.000302581
0.0186456
0.000306015
0.0184914
0.000308665
0.0183361
0.000311285
0.0181796
0.00031411
0.0180219
0.000317173
0.0178627
0.000320452
0.0177021
0.000323928
0.0175398
0.000327591
0.0173758
0.000331439
0.01721
0.000335473
0.0170423
0.000339693
0.0168726
0.000344102
0.0167008
0.000348702
0.0165267
0.000353496
0.0163504
0.000358486
0.0161716
0.000363673
0.0159902
0.000369058
0.0158063
0.000374642
0.0156196
0.000380427
0.01543
0.000386413
0.0152375
0.0003926
0.0150418
0.000398987
0.014843
0.000405575
0.0146409
0.00041236
0.0144354
0.000419343
0.0142263
0.000426521
0.0140136
0.000433889
0.0137971
0.000441446
0.0135767
0.000449187
0.0133523
0.000457106
0.0131238
0.0004652
0.0128911
0.000473461
0.0126541
0.00048188
0.0124126
0.000490446
0.0121665
0.000499148
0.0119158
0.000507973
0.0116603
0.000516905
0.0114
0.000525929
0.0111347
0.000535033
0.0108643
0.00054421
0.0105888
0.000553437
0.0103081
0.000562689
0.010022
0.000571943
0.00973065
0.000581177
0.00943385
0.000590368
0.00913158
0.000599489
0.00882382
0.000608513
0.00851054
0.000617412
0.00819172
0.000626158
0.00786738
0.00063472
0.00753752
0.00064307
0.00720217
0.000651178
0.00686141
0.000659015
0.00651529
0.000666555
0.00616392
0.000673769
0.0058074
0.000680634
0.00544588
0.000687126
0.00507953
0.000693226
0.00470854
0.000698917
0.00433312
0.000704183
0.00395352
0.000709015
0.00357001
0.000713404
0.00318288
0.000717345
0.00279247
0.000720836
0.00239912
0.000723876
0.00200321
0.000726466
0.00160513
0.000728608
0.00120529
0.00073031
0.000804108
0.000731571
0.000401922
0.000732539
0.000731907
0.0199605
0.000116249
0.0199992
2.13885e-05
0.0199983
4.77847e-05
0.0199323
0.000105946
0.0198731
0.000105516
0.019824
8.67699e-05
0.0197779
5.88289e-05
0.0197436
3.81581e-05
0.019736
3.43699e-05
0.0197535
4.4687e-05
0.0197735
6.08835e-05
0.0197696
7.79155e-05
0.0197315
9.5796e-05
0.0196672
0.000117582
0.0195939
0.000144234
0.0195277
0.00016957
0.0194767
0.00018254
0.019441
0.000174767
0.0194151
0.00015054
0.019391
0.000127804
0.0193594
0.000127007
0.0193122
0.000157977
0.0192441
0.000215039
0.0191537
0.000282601
0.0190427
0.000344858
0.0189156
0.000392482
0.0187773
0.000423778
0.018632
0.000442025
0.0184825
0.000452042
0.0183306
0.000457905
0.0181771
0.000462187
0.0180222
0.000466165
0.017866
0.000470333
0.0177084
0.000474816
0.0175492
0.000479619
0.0173884
0.000484718
0.0172259
0.000490101
0.0170616
0.000495761
0.0168953
0.000501697
0.0167271
0.00050791
0.0165568
0.000514405
0.0163843
0.000521184
0.0162096
0.000528251
0.0160325
0.000535607
0.0158529
0.000543256
0.0156707
0.0005512
0.0154859
0.00055944
0.0152984
0.000567978
0.015108
0.000576814
0.0149146
0.00058595
0.0147182
0.000595384
0.0145187
0.000605117
0.0143159
0.000615146
0.0141098
0.000625469
0.0139002
0.000636085
0.0136871
0.000646989
0.0134704
0.000658177
0.0132499
0.000669644
0.0130257
0.000681383
0.0127975
0.000693388
0.0125653
0.00070565
0.012329
0.000718157
0.0120886
0.000730897
0.0118438
0.000743857
0.0115948
0.000757021
0.0113413
0.000770373
0.0110834
0.000783897
0.0108208
0.000797573
0.0105537
0.000811381
0.0102818
0.000825298
0.0100052
0.000839299
0.00972377
0.000853357
0.0094375
0.000867445
0.00914634
0.000881531
0.00885024
0.000895583
0.00854919
0.000909566
0.00824316
0.000923446
0.00793213
0.000937184
0.00761611
0.000950741
0.0072951
0.000964076
0.00696913
0.00097715
0.00663823
0.000989919
0.00630244
0.00100234
0.00596184
0.00101437
0.0056165
0.00102597
0.00526653
0.0010371
0.00491206
0.0010477
0.00455322
0.00105775
0.00419021
0.0010672
0.00382322
0.00107601
0.00345247
0.00108415
0.00307825
0.00109157
0.00270082
0.00109826
0.00232052
0.00110418
0.00193769
0.0011093
0.00155269
0.0011136
0.00116594
0.00111706
0.000777858
0.00111966
0.000388818
0.00112158
0.00112072
0.0197485
6.37703e-05
0.0198199
-5.0024e-05
0.0198549
1.27935e-05
0.0198616
9.91827e-05
0.0198306
0.000136523
0.0198009
0.000116476
0.0197722
8.7577e-05
0.0197453
6.50063e-05
0.0197309
4.87412e-05
0.0197301
4.55765e-05
0.0197274
6.3518e-05
0.0197092
9.60898e-05
0.019679
0.000126063
0.0196515
0.000145024
0.019634
0.000161781
0.0196166
0.000186924
0.0195838
0.000215333
0.0195285
0.000230079
0.0194569
0.000222168
0.0193813
0.000203417
0.0193096
0.000198724
0.0192404
0.000227114
0.0191662
0.000289286
0.0190789
0.000369878
0.0189748
0.000448988
0.0188546
0.000512649
0.0187219
0.000556457
0.0185807
0.000583227
0.0184341
0.000598628
0.0182841
0.000607905
0.0181318
0.00061456
0.0179775
0.000620438
0.0178215
0.000626323
0.0176639
0.000632478
0.0175045
0.000638968
0.0173434
0.000645806
0.0171805
0.000652993
0.0170157
0.000660535
0.016849
0.000668439
0.0166802
0.000676709
0.0165093
0.000685353
0.0163361
0.000694374
0.0161605
0.000703778
0.0159826
0.000713568
0.0158021
0.000723747
0.015619
0.000734319
0.0154331
0.000745286
0.0152445
0.000756649
0.0150529
0.000768409
0.0148582
0.000780567
0.0146605
0.000793123
0.0144595
0.000806075
0.0142553
0.000819423
0.0140476
0.000833162
0.0138364
0.000847291
0.0136216
0.000861803
0.013403
0.000876694
0.0131807
0.000891956
0.0129545
0.000907581
0.0127244
0.000923559
0.0124901
0.000939879
0.0122518
0.000956526
0.0120092
0.000973486
0.0117623
0.00099074
0.011511
0.00100827
0.0112554
0.00102606
0.0109952
0.00104408
0.0107304
0.00106231
0.0104611
0.00108071
0.0101871
0.00109927
0.00990847
0.00111796
0.0096251
0.00113673
0.009337
0.00115554
0.00904416
0.00117437
0.00874657
0.00119317
0.00844423
0.0012119
0.00813717
0.00123051
0.0078254
0.00124895
0.00750897
0.00126717
0.00718792
0.00128513
0.0068623
0.00130276
0.0065322
0.00132002
0.00619769
0.00133685
0.00585888
0.00135318
0.00551589
0.00136897
0.00516883
0.00138415
0.00481786
0.00139867
0.00446314
0.00141247
0.00410486
0.00142548
0.00374321
0.00143766
0.00337841
0.00144894
0.00301072
0.00145927
0.00264037
0.0014686
0.00226767
0.00147688
0.00189289
0.00148407
0.00151636
0.00149013
0.0011384
0.00149502
0.000759358
0.0014987
0.000379552
0.00150139
0.00150028
0.0198744
-8.51669e-05
0.0199568
-0.000132418
0.0199953
-2.56372e-05
0.0200015
9.29132e-05
0.0199904
0.000147658
0.0199583
0.000148565
0.0199276
0.000118284
0.0198977
9.48965e-05
0.0198582
8.82848e-05
0.0198129
9.08275e-05
0.0197765
9.99756e-05
0.019755
0.000117536
0.0197393
0.000141741
0.0197136
0.000170759
0.0196677
0.00020771
0.0196018
0.00025278
0.0195249
0.000292301
0.0194487
0.000306261
0.0193822
0.000288664
0.0193273
0.000258277
0.0192788
0.000247261
0.0192272
0.000278744
0.0191632
0.000353202
0.0190812
0.00045192
0.0189796
0.000550604
0.0188606
0.000631646
0.0187283
0.000688724
0.0185871
0.000724477
0.0184402
0.000745483
0.0182899
0.000758196
0.0181374
0.000767127
0.017983
0.000774768
0.0178271
0.000782247
0.0176696
0.000789983
0.0175105
0.000798106
0.0173496
0.000806649
0.017187
0.000815625
0.0170225
0.000825044
0.016856
0.000834915
0.0166875
0.000845245
0.0165168
0.000856042
0.0163438
0.000867312
0.0161685
0.000879062
0.0159908
0.000891295
0.0158106
0.000904016
0.0156276
0.000917229
0.015442
0.000930936
0.0152535
0.00094514
0.0150621
0.000959842
0.0148676
0.000975044
0.01467
0.000990744
0.0144691
0.00100694
0.0142649
0.00102363
0.0140572
0.00104082
0.013846
0.00105849
0.0136312
0.00107665
0.0134126
0.00109528
0.0131902
0.00111438
0.0129638
0.00113394
0.0127334
0.00115394
0.0124989
0.00117437
0.0122603
0.00119521
0.0120173
0.00121645
0.01177
0.00123806
0.0115182
0.00126002
0.011262
0.00128231
0.0110012
0.00130489
0.0107357
0.00132773
0.0104656
0.00135081
0.0101908
0.00137409
0.00991127
0.00139751
0.00962694
0.00142106
0.00933782
0.00144467
0.0090439
0.0014683
0.00874518
0.00149189
0.00844169
0.0015154
0.00813344
0.00153876
0.00782047
0.00156191
0.00750285
0.0015848
0.00718062
0.00160736
0.00685387
0.00162951
0.0065227
0.0016512
0.0061872
0.00167234
0.0058475
0.00169288
0.00550375
0.00171273
0.00515608
0.00173182
0.00480468
0.00175007
0.00444972
0.00176743
0.00409141
0.0017838
0.00372995
0.00179911
0.00336558
0.00181331
0.00299855
0.00182631
0.0026291
0.00183805
0.00225751
0.00184847
0.00188406
0.00185752
0.00150904
0.00186515
0.00113276
0.00187131
0.000755532
0.00187593
0.000377621
0.0018793
0.0018779
0.0199265
-0.000227989
0.0198672
-7.30967e-05
0.0198233
1.8243e-05
0.0198075
0.000108646
0.0198147
0.000140514
0.0198582
0.000105058
0.0198932
8.33087e-05
0.0198886
9.94939e-05
0.0198527
0.000124113
0.0198112
0.000132345
0.0197792
0.000131996
0.0197551
0.000141617
0.0197282
0.000168675
0.0196861
0.000212855
0.0196232
0.00027064
0.0195465
0.000329466
0.0194724
0.000366353
0.0194165
0.000362226
0.0193826
0.000322546
0.0193608
0.00028004
0.0193339
0.000274159
0.0192871
0.000325556
0.019214
0.000426337
0.0191162
0.000549672
0.0189997
0.000667094
0.0188706
0.000760728
0.0187335
0.000825883
0.018591
0.000866967
0.0184447
0.000891756
0.0182956
0.000907354
0.0181441
0.000918612
0.0179906
0.000928236
0.0178354
0.000937503
0.0176784
0.000946942
0.0175197
0.000956757
0.0173594
0.000967029
0.0171972
0.000977799
0.0170331
0.00098909
0.0168671
0.00100092
0.0166991
0.0010133
0.0165289
0.00102625
0.0163564
0.00103976
0.0161816
0.00105385
0.0160044
0.00106852
0.0158247
0.00108378
0.0156423
0.00109963
0.0154571
0.00111607
0.0152691
0.00113312
0.0150782
0.00115076
0.0148843
0.00116901
0.0146872
0.00118785
0.0144868
0.0012073
0.0142831
0.00122734
0.0140759
0.00124798
0.0138652
0.00126921
0.0136508
0.00129102
0.0134327
0.00131341
0.0132107
0.00133636
0.0129848
0.00135986
0.0127549
0.0013839
0.0125208
0.00140846
0.0122825
0.00143353
0.0120398
0.00145907
0.0117928
0.00148507
0.0115413
0.0015115
0.0112853
0.00153832
0.0110247
0.00156551
0.0107594
0.00159302
0.0104894
0.00162082
0.0102146
0.00164886
0.00993504
0.0016771
0.00965062
0.00170548
0.00936134
0.00173395
0.00906719
0.00176244
0.00876818
0.0017909
0.00846431
0.00181926
0.00815561
0.00184745
0.00784213
0.0018754
0.0075239
0.00190303
0.00720099
0.00193026
0.0068735
0.00195701
0.0065415
0.00198319
0.00620512
0.00200872
0.00586448
0.00203351
0.00551973
0.00205748
0.00517103
0.00208052
0.00481855
0.00210255
0.00446249
0.00212348
0.00410306
0.00214323
0.00374048
0.00216169
0.00337499
0.0021788
0.00300684
0.00219446
0.00263629
0.0022086
0.00226361
0.00222115
0.0018891
0.00223203
0.00151305
0.0022412
0.00113575
0.00224861
0.000757517
0.00225416
0.000378616
0.0022582
0.00225651
0.0200692
-3.30902e-05
0.0200137
-1.76515e-05
0.0199687
6.32546e-05
0.019932
0.00014533
0.0199152
0.000157368
0.0199047
0.000115502
0.0198995
8.85227e-05
0.019895
0.000104047
0.0198801
0.00013897
0.0198395
0.000172923
0.0197686
0.000202908
0.0196851
0.000225152
0.0196187
0.000235084
0.0195868
0.000244739
0.0195792
0.000278249
0.0195693
0.000339329
0.0195383
0.000397381
0.0194874
0.000413141
0.0194313
0.000378578
0.0193828
0.000328626
0.0193415
0.000315389
0.0192962
0.00037088
0.0192331
0.000489475
0.0191445
0.000638232
0.0190314
0.000780243
0.0188999
0.00089219
0.0187574
0.000968371
0.0186094
0.001015
0.0184588
0.00104229
0.018307
0.00105917
0.0181542
0.00107144
0.0180003
0.00108218
0.017845
0.00109273
0.0176884
0.00110361
0.0175301
0.00111498
0.0173702
0.00112692
0.0172086
0.00113944
0.0170451
0.00115259
0.0168797
0.00116636
0.0167122
0.00118079
0.0165425
0.00119587
0.0163707
0.00121162
0.0161965
0.00122804
0.0160199
0.00124515
0.0158407
0.00126294
0.0156589
0.00128142
0.0154744
0.0013006
0.015287
0.00132049
0.0150967
0.00134107
0.0149033
0.00136236
0.0147068
0.00138435
0.0145071
0.00140704
0.014304
0.00143044
0.0140974
0.00145454
0.0138873
0.00147932
0.0136736
0.0015048
0.013456
0.00153094
0.0132346
0.00155776
0.0130093
0.00158522
0.0127798
0.00161332
0.0125463
0.00164203
0.0123085
0.00167134
0.0120663
0.00170121
0.0118198
0.00173163
0.0115687
0.00176255
0.0113131
0.00179395
0.0110528
0.00182578
0.0107878
0.001858
0.0105181
0.00189057
0.0102435
0.00192343
0.00996411
0.00195652
0.00967979
0.00198979
0.00939056
0.00202318
0.00909639
0.00205661
0.00879729
0.00209001
0.00849326
0.0021233
0.00818431
0.0021564
0.0078705
0.00218922
0.00755186
0.00222167
0.00722845
0.00225367
0.00690036
0.0022851
0.00656768
0.00231588
0.00623051
0.00234589
0.005889
0.00237503
0.00554327
0.0024032
0.0051935
0.00243029
0.00483986
0.00245619
0.00448255
0.00248079
0.00412178
0.002504
0.00375778
0.0025257
0.00339079
0.00254579
0.00302107
0.00256418
0.00264888
0.00258078
0.00227452
0.00259551
0.00189827
0.00260828
0.00152043
0.00261904
0.00114132
0.00262772
0.000761251
0.00263423
0.000380489
0.00263896
0.002637
0.0201463
0.000256865
0.020091
3.76903e-05
0.0200899
6.4349e-05
0.0200613
0.000173921
0.0200236
0.000195127
0.0199962
0.000142892
0.0199831
0.000101611
0.019972
0.000115098
0.019944
0.000166996
0.0198945
0.000222378
0.0198373
0.00026018
0.0197885
0.00027392
0.0197536
0.000269995
0.0197286
0.000269704
0.01971
0.000296901
0.019695
0.000354341
0.0196789
0.000413427
0.0196538
0.000438307
0.0196118
0.000420525
0.0195498
0.000390625
0.0194697
0.00039551
0.0193758
0.000464811
0.0192712
0.000594006
0.0191571
0.000752355
0.0190335
0.000903896
0.0189009
0.00102473
0.0187611
0.00110817
0.0186161
0.00116001
0.0184677
0.00119073
0.018317
0.00120983
0.0181647
0.0012237
0.0180111
0.00123577
0.0178563
0.00124763
0.0177
0.00125988
0.0175422
0.00127274
0.0173829
0.00128627
0.0172218
0.00130051
0.0170589
0.00131547
0.0168941
0.00133118
0.0167273
0.00134763
0.0165583
0.00136483
0.0163871
0.00138281
0.0162136
0.00140156
0.0160377
0.00142109
0.0158592
0.00144141
0.0156781
0.00146252
0.0154943
0.00148443
0.0153076
0.00150715
0.015118
0.00153067
0.0149254
0.001555
0.0147296
0.00158014
0.0145305
0.00160609
0.0143281
0.00163284
0.0141223
0.0016604
0.0139128
0.00168875
0.0136997
0.00171789
0.0134829
0.00174781
0.0132621
0.0017785
0.0130374
0.00180994
0.0128086
0.00184212
0.0125756
0.001875
0.0123384
0.00190857
0.0120968
0.00194281
0.0118508
0.00197767
0.0116002
0.00201312
0.011345
0.00204913
0.0110851
0.00208565
0.0108205
0.00212262
0.0105511
0.00216001
0.0102768
0.00219774
0.00999754
0.00223575
0.00971335
0.00227398
0.00942418
0.00231235
0.00913
0.00235079
0.0088308
0.0023892
0.00852659
0.0024275
0.00821739
0.0024656
0.00790322
0.00250339
0.00758414
0.00254076
0.00726018
0.00257762
0.00693145
0.00261384
0.00659801
0.00264931
0.00625999
0.00268391
0.0059175
0.00271752
0.0055707
0.00275
0.00521974
0.00278125
0.0048648
0.00281113
0.00450608
0.00283951
0.0041438
0.00286628
0.00377817
0.00289132
0.00340946
0.0029145
0.00303793
0.00293572
0.00266385
0.00295487
0.0022875
0.00297185
0.0019092
0.00298658
0.00152926
0.00299898
0.00114798
0.00300899
0.000765716
0.00301649
0.000382729
0.00302195
0.00301973
0.019861
4.01615e-06
0.0199344
-3.56405e-05
0.0199512
4.75421e-05
0.0200018
0.000123322
0.0200455
0.000151364
0.0200548
0.000133583
0.0200312
0.000125212
0.0199804
0.000165911
0.0199124
0.000235075
0.0198405
0.00029422
0.0197792
0.000321466
0.0197381
0.000315009
0.0197175
0.000290622
0.0197066
0.000280566
0.0196893
0.000314239
0.0196545
0.000389109
0.019603
0.000464994
0.0195448
0.000496452
0.0194904
0.000474946
0.0194421
0.000438971
0.0193928
0.000444783
0.0193318
0.000525839
0.0192515
0.000674235
0.0191509
0.000852983
0.0190332
0.00102162
0.0189031
0.00115482
0.0187648
0.00124649
0.0186212
0.00130359
0.0184742
0.00133767
0.018325
0.00135905
0.0181741
0.00137463
0.0180217
0.0013882
0.0178678
0.0014015
0.0177124
0.00141523
0.0175555
0.00142964
0.017397
0.00144482
0.0172367
0.00146079
0.0170746
0.00147759
0.0169105
0.00149522
0.0167445
0.0015137
0.0165763
0.00153303
0.0164059
0.00155322
0.0162331
0.00157429
0.016058
0.00159624
0.0158803
0.00161908
0.0157
0.00164282
0.015517
0.00166746
0.0153311
0.00169301
0.0151423
0.00171946
0.0149505
0.00174683
0.0147555
0.00177512
0.0145573
0.00180432
0.0143557
0.00183444
0.0141506
0.00186546
0.013942
0.00189739
0.0137297
0.00193021
0.0135136
0.00196392
0.0132936
0.0019985
0.0130696
0.00203393
0.0128415
0.0020702
0.0126092
0.00210728
0.0123726
0.00214515
0.0121317
0.00218378
0.0118862
0.00222312
0.0116362
0.00226314
0.0113815
0.00230381
0.0111221
0.00234506
0.0108579
0.00238684
0.0105888
0.0024291
0.0103148
0.00247176
0.0100358
0.00251476
0.00975173
0.00255802
0.00946262
0.00260146
0.00916842
0.00264499
0.00886911
0.00268851
0.0085647
0.00273191
0.0082552
0.0027751
0.00794062
0.00281796
0.00762102
0.00286037
0.00729644
0.0029022
0.00696695
0.00294332
0.00663266
0.00298361
0.00629365
0.00302292
0.00595005
0.00306111
0.00560201
0.00309804
0.00524969
0.00313357
0.00489326
0.00316756
0.00453293
0.00319985
0.00416891
0.0032303
0.00380144
0.00325879
0.00343076
0.00328517
0.00305716
0.00330932
0.00268091
0.00333112
0.00230231
0.00335045
0.00192167
0.00336722
0.00153932
0.00338134
0.00115558
0.00339273
0.000770806
0.00340127
0.000385281
0.00340747
0.00340501
0.0200704
0.000182627
0.0199968
3.80442e-05
0.019958
8.63229e-05
0.0199131
0.00016818
0.0198928
0.000171679
0.0198776
0.000148797
0.0198441
0.000158654
0.0198097
0.000200376
0.0197972
0.000247578
0.0198032
0.000288227
0.0198007
0.000323924
0.0197703
0.000345446
0.0197198
0.000341072
0.0196732
0.000327212
0.0196413
0.000346164
0.0196137
0.000416701
0.0195748
0.000503825
0.0195226
0.00054869
0.0194692
0.000528319
0.0194268
0.000481397
0.0193945
0.000477067
0.0193586
0.000561776
0.0193021
0.000730727
0.0192153
0.00093981
0.0190988
0.00113807
0.0189606
0.001293
0.0188103
0.00139681
0.0186553
0.00145862
0.0184996
0.00149331
0.0183448
0.00151386
0.0181908
0.00152867
0.0180369
0.00154204
0.0178827
0.00155577
0.0177275
0.00157042
0.017571
0.00158607
0.0174131
0.00160272
0.0172536
0.00162034
0.0170923
0.00163892
0.016929
0.00165844
0.0167638
0.00167892
0.0165965
0.00170036
0.0164269
0.00172276
0.0162551
0.00174614
0.0160808
0.00177051
0.0159041
0.00179586
0.0157247
0.00182222
0.0155425
0.00184958
0.0153576
0.00187795
0.0151697
0.00190734
0.0149788
0.00193775
0.0147847
0.00196919
0.0145874
0.00200165
0.0143867
0.00203512
0.0141825
0.00206962
0.0139748
0.00210513
0.0137634
0.00214164
0.0135481
0.00217915
0.013329
0.00221764
0.0131058
0.00225709
0.0128786
0.00229748
0.0126471
0.00233878
0.0124112
0.00238098
0.012171
0.00242402
0.0119262
0.00246789
0.0116768
0.00251253
0.0114228
0.0025579
0.0111639
0.00260393
0.0109001
0.00265058
0.0106314
0.00269778
0.0103578
0.00274545
0.010079
0.00279352
0.00979514
0.00284189
0.00950611
0.00289049
0.0092119
0.0029392
0.00891248
0.00298792
0.00860785
0.00303654
0.00829802
0.00308494
0.00798299
0.00313299
0.00766281
0.00318055
0.00733752
0.00322748
0.0070072
0.00327364
0.00667193
0.00331888
0.0063318
0.00336304
0.00598695
0.00340596
0.00563751
0.00344749
0.00528364
0.00348744
0.00492552
0.00352567
0.00456336
0.00356201
0.00419737
0.00359629
0.0038278
0.00362836
0.0034549
0.00365807
0.00307895
0.00368527
0.00270024
0.00370983
0.00231908
0.00373161
0.00193579
0.00375051
0.00155071
0.00376642
0.00116418
0.00377926
0.000776567
0.00378888
0.000388171
0.00379587
0.00379318
0.0197486
-0.000121715
0.0198463
-5.96646e-05
0.0198713
6.13836e-05
0.0199255
0.000113992
0.0199632
0.000133963
0.0199617
0.000150276
0.0199364
0.000183957
0.0199095
0.000227238
0.0198917
0.000265452
0.0198721
0.00030778
0.0198348
0.000361214
0.0197768
0.000403435
0.0197088
0.000409106
0.0196433
0.000392703
0.0195883
0.000401183
0.0195448
0.000460153
0.0195103
0.000538397
0.0194815
0.000577469
0.0194557
0.000554159
0.0194289
0.000508137
0.0193953
0.000510683
0.0193475
0.000609621
0.0192789
0.000799291
0.0191865
0.00103217
0.0190719
0.00125265
0.0189404
0.00142456
0.0187982
0.00153896
0.0186508
0.00160607
0.0185013
0.00164285
0.018351
0.00166412
0.0182003
0.00167941
0.0180488
0.00169349
0.0178964
0.00170824
0.0177426
0.00172416
0.0175874
0.00174128
0.0174306
0.00175953
0.0172721
0.00177886
0.0171118
0.00179925
0.0169495
0.00182069
0.0167853
0.00184317
0.0166189
0.00186672
0.0164503
0.00189133
0.0162795
0.00191701
0.0161062
0.00194378
0.0159304
0.00197164
0.015752
0.00200061
0.0155709
0.00203069
0.015387
0.00206188
0.0152001
0.0020942
0.0150102
0.00212765
0.0148172
0.00216223
0.0146209
0.00219795
0.0144212
0.00223479
0.0142181
0.00227277
0.0140113
0.00231187
0.0138009
0.00235209
0.0135866
0.00239341
0.0133684
0.00243582
0.0131462
0.0024793
0.0129199
0.00252383
0.0126893
0.00256939
0.0124543
0.00261595
0.0122149
0.00266346
0.0119709
0.00271189
0.0117222
0.00276119
0.0114688
0.00281131
0.0112105
0.0028622
0.0109473
0.00291378
0.0106791
0.00296599
0.0104058
0.00301875
0.0101274
0.00307196
0.0098437
0.00312555
0.00955479
0.0031794
0.00926059
0.0032334
0.00896106
0.00328745
0.00865621
0.0033414
0.00834601
0.00339513
0.0080305
0.0034485
0.00770969
0.00350136
0.00738363
0.00355354
0.00705238
0.00360489
0.00671603
0.00365524
0.00637466
0.00370441
0.00602841
0.00375222
0.0056774
0.00379849
0.00532181
0.00384304
0.0049618
0.00388568
0.00459759
0.00392622
0.0042294
0.00396449
0.00385746
0.0040003
0.00348206
0.00403348
0.00310347
0.00406387
0.00272199
0.00409131
0.00233795
0.00411566
0.00195168
0.00413678
0.00156353
0.00415457
0.00117386
0.00416893
0.000783051
0.00417969
0.000391422
0.0041875
0.00418461
0.0198756
-0.000286573
0.0199258
-0.00010987
0.0199399
4.72309e-05
0.0199325
0.000121385
0.0199293
0.000137259
0.0199227
0.000156848
0.0199022
0.000204464
0.0198727
0.000256703
0.0198375
0.00030066
0.0198021
0.000343207
0.0197773
0.000386025
0.0197696
0.000411132
0.0197718
0.00040691
0.0197644
0.000400076
0.0197281
0.000437475
0.019658
0.00053021
0.0195661
0.00063029
0.0194724
0.000671258
0.0193938
0.000632763
0.0193369
0.000564982
0.0192961
0.00055152
0.0192574
0.000648341
0.0192061
0.000850549
0.0191331
0.00110514
0.0190368
0.00134902
0.0189207
0.00154061
0.0187908
0.00166891
0.0186522
0.00174467
0.0185086
0.00178643
0.0183621
0.00181058
0.0182138
0.00182774
0.018064
0.00184331
0.0179127
0.00185947
0.01776
0.00187683
0.0176059
0.00189547
0.01745
0.00191533
0.0172925
0.00193637
0.0171332
0.00195856
0.016972
0.0019819
0.0168088
0.00200638
0.0166435
0.00203202
0.016476
0.00205882
0.0163062
0.0020868
0.0161341
0.00211596
0.0159594
0.00214632
0.0157821
0.00217789
0.0156021
0.00221068
0.0154193
0.00224469
0.0152336
0.00227993
0.0150448
0.00231642
0.0148529
0.00235415
0.0146577
0.00239312
0.0144592
0.00243334
0.0142572
0.0024748
0.0140515
0.00251749
0.0138422
0.00256142
0.013629
0.00260657
0.0134119
0.00265293
0.0131908
0.00270047
0.0129654
0.00274917
0.0127358
0.00279901
0.0125018
0.00284996
0.0122633
0.00290197
0.0120201
0.00295502
0.0117723
0.00300903
0.0115196
0.00306397
0.0112621
0.00311977
0.0109995
0.00317636
0.0107318
0.00323366
0.010459
0.00329159
0.0101809
0.00335005
0.00989752
0.00340894
0.00960876
0.00346816
0.00931459
0.00352757
0.00901498
0.00358706
0.00870989
0.00364648
0.00839933
0.00370569
0.0080833
0.00376453
0.00776182
0.00382284
0.00743492
0.00388044
0.00710267
0.00393714
0.00676513
0.00399277
0.00642241
0.00404713
0.00607461
0.00410002
0.00572188
0.00415122
0.00536438
0.00420055
0.00500228
0.00424778
0.00463579
0.00429271
0.00426514
0.00433513
0.00389059
0.00437485
0.00351239
0.00441167
0.00313086
0.0044454
0.00274629
0.00447587
0.00235904
0.00450291
0.00196943
0.00452638
0.00157786
0.00454615
0.00118468
0.0045621
0.000790299
0.00457407
0.000395057
0.00458274
0.00457966
0.02008
3.01057e-05
0.0199708
-6.35667e-07
0.019989
2.90071e-05
0.0200107
9.97137e-05
0.019975
0.000172888
0.0199206
0.000211247
0.0198958
0.000229324
0.0198966
0.000255856
0.0198911
0.000306169
0.0198583
0.000376066
0.0198038
0.000440486
0.0197474
0.000467553
0.0197031
0.000451171
0.0196731
0.000430045
0.0196503
0.000460349
0.0196224
0.000558045
0.0195795
0.000673246
0.0195184
0.000732323
0.0194441
0.0007071
0.019366
0.000643023
0.0192929
0.000624668
0.0192268
0.000714415
0.0191624
0.000914961
0.0190906
0.00117697
0.0190041
0.00143551
0.0189005
0.00164414
0.0187819
0.0017876
0.0186519
0.00187466
0.0185144
0.00192394
0.0183721
0.00195285
0.0182267
0.00197311
0.0180791
0.00199094
0.0179296
0.00200895
0.0177784
0.00202802
0.0176256
0.00204833
0.017471
0.0020699
0.0173147
0.00209269
0.0171565
0.0021167
0.0169965
0.00214195
0.0168345
0.00216842
0.0166703
0.00219614
0.016504
0.00222513
0.0163354
0.00225539
0.0161644
0.00228694
0.015991
0.00231979
0.0158149
0.00235395
0.0156361
0.00238944
0.0154546
0.00242626
0.0152701
0.00246443
0.0150825
0.00250394
0.0148919
0.00254481
0.014698
0.00258704
0.0145007
0.00263063
0.0142999
0.00267558
0.0140955
0.00272189
0.0138874
0.00276954
0.0136754
0.00281853
0.0134595
0.00286885
0.0132395
0.00292047
0.0130153
0.00297337
0.0127867
0.00302753
0.0125538
0.00308291
0.0123163
0.00313947
0.0120742
0.00319717
0.0118272
0.00325596
0.0115754
0.00331578
0.0113186
0.00337656
0.0110568
0.00343823
0.0107897
0.0035007
0.0105174
0.00356389
0.0102398
0.0036277
0.00995669
0.00369202
0.00966813
0.00375672
0.00937403
0.00382167
0.00907435
0.00388675
0.00876905
0.00395178
0.00845812
0.00401663
0.00814155
0.0040811
0.00781935
0.00414503
0.00749156
0.00420823
0.00715823
0.00427048
0.00681942
0.00433159
0.00647522
0.00439133
0.00612574
0.00444949
0.00577113
0.00450584
0.00541153
0.00456014
0.00504713
0.00461217
0.00467814
0.0046617
0.00430479
0.00470848
0.00392734
0.00475231
0.00354606
0.00479295
0.00316127
0.0048302
0.00277329
0.00486385
0.00238246
0.00489374
0.00198917
0.00491968
0.00159378
0.00494153
0.0011967
0.00495918
0.000798356
0.00497241
0.000399097
0.004982
0.00497876
0.0202362
0.00028185
0.0200442
0.000191395
0.0199381
0.000135129
0.0198953
0.000142495
0.0198913
0.000176848
0.019873
0.000229573
0.0198385
0.000263797
0.0198204
0.000273998
0.0198278
0.000298732
0.0198387
0.000365169
0.0198279
0.000451343
0.0197906
0.000504849
0.0197407
0.000501085
0.0196923
0.000478441
0.0196501
0.000502507
0.0196125
0.000595675
0.0195759
0.000709799
0.0195371
0.000771187
0.0194922
0.000751992
0.0194373
0.000697928
0.0193702
0.000691727
0.0192922
0.000792382
0.0192063
0.00100086
0.0191141
0.00126923
0.0190146
0.00153502
0.018906
0.00175267
0.0187877
0.0019059
0.0186605
0.00200192
0.018526
0.00205837
0.0183864
0.00209252
0.018243
0.00211647
0.018097
0.00213697
0.0179488
0.00215708
0.0177989
0.00217797
0.0176472
0.0022
0.0174938
0.00222327
0.0173387
0.00224781
0.0171818
0.00227363
0.017023
0.00230076
0.0168622
0.00232922
0.0166993
0.00235901
0.0165343
0.00239017
0.016367
0.0024227
0.0161973
0.00245662
0.0160251
0.00249195
0.0158504
0.00252869
0.015673
0.00256687
0.0154927
0.00260649
0.0153096
0.00264757
0.0151234
0.00269011
0.0149341
0.00273412
0.0147416
0.00277961
0.0145456
0.00282658
0.0143462
0.00287502
0.0141431
0.00292494
0.0139363
0.00297633
0.0137257
0.00302917
0.0135111
0.00308347
0.0132924
0.00313919
0.0130694