/*--------------------------------*- C++ -*----------------------------------*\
| =========                 |                                                 |
| \\      /  F ield         | OpenFOAM: The Open Source CFD Toolbox           |
|  \\    /   O peration     | Version:  4.1                                   |
|   \\  /    A nd           | Web:      www.OpenFOAM.org                      |
|    \\/     M anipulation  |                                                 |
\*---------------------------------------------------------------------------*/
FoamFile
{
    version     2.0;
    format      ascii;
    class       surfaceScalarField;
    location    "0.051";
    object      phi_0;
}
// * * * * * * * * * * * * * * * * * * * * * * * * * * * * * * * * * * * * * //

dimensions      [0 3 -1 0 0 0 0];

internalField   nonuniform List<scalar> 
87025
(
0.0198997
-8.11046e-05
0.0199051
-5.38351e-06
0.0198776
2.74773e-05
0.0198442
3.34578e-05
0.0198221
2.2042e-05
0.0198208
1.30877e-06
0.0198348
-1.39743e-05
0.0198334
1.45017e-06
0.0197993
3.40938e-05
0.0197476
5.16647e-05
0.019705
4.26278e-05
0.0196803
2.46276e-05
0.0196594
2.09315e-05
0.019621
3.83809e-05
0.0195571
6.39613e-05
0.0194785
7.86024e-05
0.0194044
7.40815e-05
0.0193465
5.78626e-05
0.0193011
4.54671e-05
0.0192516
4.942e-05
0.0191793
7.23032e-05
0.0190737
0.000105654
0.0189368
0.000136878
0.0187796
0.000157215
0.0186144
0.000165176
0.0184498
0.000164586
0.0182893
0.000160566
0.0181325
0.000156778
0.0179778
0.000154717
0.0178234
0.000154354
0.0176683
0.000155122
0.0175118
0.000156493
0.0173536
0.000158144
0.0171937
0.000159928
0.0170319
0.000161798
0.0168682
0.000163744
0.0167024
0.000165772
0.0165345
0.000167884
0.0163644
0.000170085
0.0161921
0.000172374
0.0160173
0.000174754
0.0158401
0.000177226
0.0156603
0.000179789
0.0154778
0.000182445
0.0152927
0.000185194
0.0151046
0.000188034
0.0149137
0.000190968
0.0147197
0.000193993
0.0145226
0.000197109
0.0143222
0.000200316
0.0141186
0.000203612
0.0139116
0.000206995
0.0137012
0.000210463
0.0134872
0.000214015
0.0132695
0.000217646
0.0130481
0.000221355
0.012823
0.000225137
0.012594
0.000228988
0.0123611
0.000232904
0.0121242
0.000236879
0.0118833
0.000240908
0.0116384
0.000244981
0.0113893
0.000249092
0.011136
0.000253233
0.0108786
0.000257394
0.0106171
0.000261567
0.0103513
0.000265728
0.0100815
0.00026983
0.00980757
0.000273941
0.00952954
0.000278025
0.00924749
0.000282055
0.00896147
0.000286013
0.00867159
0.000289886
0.00837793
0.000293659
0.00808061
0.000297317
0.00777977
0.000300841
0.00747555
0.000304216
0.00716813
0.000307425
0.00685768
0.000310453
0.00654439
0.000313287
0.00622847
0.000315915
0.00591015
0.000318325
0.00558964
0.000320511
0.00526717
0.000322467
0.00494298
0.00032419
0.0046173
0.000325682
0.00429035
0.000326946
0.00396236
0.000327993
0.00363353
0.000328833
0.00330404
0.000329483
0.00297408
0.000329962
0.00264379
0.000330291
0.0023133
0.000330494
0.0019827
0.000330596
0.00165208
0.000330622
0.00132148
0.000330595
0.000990943
0.000330541
0.000660479
0.000330464
0.000330056
0.000330423
0.000330056
0.0199268
-4.08352e-05
0.0199309
-9.46288e-06
0.0199578
5.34197e-07
0.0199782
1.3124e-05
0.0199701
3.00769e-05
0.0199443
2.71554e-05
0.0199246
5.72405e-06
0.0199267
-6.39011e-07
0.019937
2.3822e-05
0.0199282
6.04495e-05
0.019891
7.97928e-05
0.0198421
7.35484e-05
0.0198054
5.76277e-05
0.01979
5.37254e-05
0.0197823
7.17445e-05
0.0197564
0.000104422
0.0196978
0.000132715
0.0196155
0.000140162
0.0195351
0.000125856
0.0194796
0.000104893
0.0194552
9.67318e-05
0.0194486
0.000112247
0.019437
0.000148507
0.0194006
0.000193645
0.0193303
0.000235409
0.0192281
0.000266807
0.0191019
0.000286796
0.0189607
0.000297945
0.0188116
0.00030379
0.0186588
0.000307178
0.0185042
0.000309788
0.0183483
0.000312367
0.0181913
0.000315153
0.018033
0.000318177
0.0178734
0.000321417
0.0177123
0.000324855
0.0175496
0.000328482
0.0173852
0.000332293
0.017219
0.000336291
0.0170509
0.000340477
0.0168808
0.000344853
0.0167086
0.000349422
0.0165342
0.000354186
0.0163575
0.000359146
0.0161784
0.000364304
0.0159967
0.000369662
0.0158125
0.00037522
0.0156255
0.00038098
0.0154357
0.000386942
0.0152429
0.000393106
0.015047
0.000399472
0.014848
0.000406038
0.0146456
0.000412804
0.0144399
0.000419768
0.0142306
0.000426927
0.0140177
0.000434279
0.013801
0.000441819
0.0135804
0.000449544
0.0133559
0.000457448
0.0131272
0.000465527
0.0128944
0.000473775
0.0126572
0.000482181
0.0124155
0.000490735
0.0121693
0.000499425
0.0119185
0.000508239
0.0116629
0.000517161
0.0114025
0.000526175
0.011137
0.000535268
0.0108665
0.000544436
0.0105909
0.000553655
0.01031
0.000562899
0.0100239
0.000572146
0.00973243
0.000581373
0.00943553
0.000590556
0.00913318
0.000599671
0.00882533
0.000608689
0.00851196
0.000617583
0.00819306
0.000626323
0.00786864
0.00063488
0.0075387
0.000643225
0.00720328
0.000651329
0.00686245
0.000659163
0.00651626
0.000666699
0.00616482
0.00067391
0.00580823
0.000680772
0.00544665
0.000687262
0.00508024
0.000693359
0.00470919
0.000699048
0.00433371
0.000704312
0.00395405
0.000709142
0.00357048
0.00071353
0.0031833
0.00071747
0.00279284
0.00072096
0.00239943
0.000723999
0.00200347
0.000726588
0.00160533
0.00072873
0.00120544
0.000730432
0.00080421
0.000731693
0.000401973
0.00073266
0.000732029
0.0199734
-2.40414e-05
0.0200167
-5.27728e-05
0.0200115
5.76201e-06
0.0199463
7.83151e-05
0.0198901
8.62775e-05
0.0198434
7.38865e-05
0.0197991
5.00252e-05
0.0197663
3.21856e-05
0.0197597
3.04268e-05
0.0197778
4.22762e-05
0.019798
5.96197e-05
0.019794
7.75263e-05
0.0197556
9.60916e-05
0.0196909
0.000118419
0.0196171
0.000145476
0.0195505
0.000171079
0.019499
0.000184187
0.0194627
0.000176479
0.0194362
0.000152321
0.0194114
0.000129712
0.019379
0.000129089
0.0193311
0.000160219
0.0192622
0.000217367
0.0191709
0.000284923
0.0190592
0.0003471
0.0189314
0.000394608
0.0187925
0.000425785
0.0186465
0.00044393
0.0184964
0.000453863
0.0183439
0.000459654
0.0181898
0.000463871
0.0180344
0.00046779
0.0178777
0.000471898
0.0177195
0.000476322
0.0175599
0.000481066
0.0173986
0.000486109
0.0172357
0.000491436
0.0170709
0.000497041
0.0169043
0.000502924
0.0167357
0.000509086
0.016565
0.000515532
0.0163922
0.000522263
0.0162171
0.000529283
0.0160396
0.000536596
0.0158597
0.000544202
0.0156773
0.000552105
0.0154922
0.000560307
0.0153044
0.000568807
0.0151137
0.000577608
0.0149201
0.000586709
0.0147234
0.000596111
0.0145237
0.000605812
0.0143207
0.000615811
0.0141143
0.000626107
0.0139046
0.000636695
0.0136913
0.000647573
0.0134743
0.000658736
0.0132537
0.00067018
0.0130293
0.000681897
0.0128009
0.00069388
0.0125686
0.000706122
0.0123321
0.00071861
0.0120915
0.000731332
0.0118467
0.000744274
0.0115975
0.000757421
0.0113439
0.000770757
0.0110858
0.000784266
0.0108232
0.000797928
0.0105559
0.000811722
0.0102839
0.000825626
0.0100072
0.000839615
0.00972567
0.000853663
0.0094393
0.000867739
0.00914804
0.000881815
0.00885186
0.000895857
0.00855072
0.000909832
0.0082446
0.000923703
0.00793349
0.000937433
0.00761738
0.000950982
0.0072963
0.000964311
0.00697025
0.000977377
0.00663927
0.00099014
0.00630342
0.00100256
0.00596274
0.00101458
0.00561734
0.00102618
0.0052673
0.0010373
0.00491276
0.0010479
0.00455387
0.00105794
0.00419079
0.00106739
0.00382374
0.00107619
0.00345294
0.00108433
0.00307866
0.00109175
0.00270118
0.00109844
0.00232082
0.00110435
0.00193794
0.00110947
0.0015529
0.00111377
0.0011661
0.00111723
0.000777959
0.00111983
0.000388868
0.00112175
0.0011209
0.0198264
2.47517e-05
0.0198641
-9.04399e-05
0.0198879
-1.80084e-05
0.0198883
7.79154e-05
0.0198543
0.00012021
0.0198243
0.000103914
0.0197961
7.8257e-05
0.0197699
5.83942e-05
0.019756
4.43079e-05
0.0197554
4.29159e-05
0.0197527
6.22838e-05
0.0197343
9.59401e-05
0.0197037
0.000126699
0.0196758
0.00014626
0.0196578
0.00016352
0.0196398
0.000189063
0.0196063
0.000217721
0.0195502
0.000232568
0.0194778
0.000224699
0.0194015
0.000206033
0.0193291
0.000201498
0.0192592
0.000230066
0.0191842
0.000292356
0.0190962
0.000372959
0.0189913
0.000451982
0.0188704
0.000515499
0.0187371
0.000559153
0.0185952
0.000585783
0.018448
0.000601068
0.0182974
0.000610245
0.0181445
0.000616811
0.0179897
0.000622606
0.0178331
0.00062841
0.017675
0.000634485
0.0175152
0.000640897
0.0173536
0.000647658
0.0171903
0.00065477
0.0170251
0.00066224
0.0168579
0.000670073
0.0166887
0.000678275
0.0165174
0.000686852
0.0163439
0.00069581
0.016168
0.000705152
0.0159897
0.000714884
0.0158089
0.000725007
0.0156255
0.000735524
0.0154394
0.000746439
0.0152504
0.000757752
0.0150586
0.000769465
0.0148637
0.000781577
0.0146657
0.00079409
0.0144645
0.000807001
0.01426
0.000820308
0.0140521
0.00083401
0.0138407
0.000848103
0.0136257
0.000862581
0.013407
0.000877438
0.0131845
0.000892669
0.0129581
0.000908264
0.0127278
0.000924214
0.0124934
0.000940507
0.0122549
0.000957128
0.0120122
0.000974064
0.0117651
0.000991295
0.0115138
0.0010088
0.011258
0.00102657
0.0109976
0.00104457
0.0107328
0.00106278
0.0104634
0.00108117
0.0101893
0.00109971
0.0099105
0.00111838
0.00962703
0.00113713
0.00933883
0.00115594
0.00904589
0.00117475
0.00874821
0.00119354
0.00844579
0.00121225
0.00813864
0.00123085
0.00782679
0.00124928
0.00751028
0.0012675
0.00718915
0.00128544
0.00686346
0.00130307
0.00653328
0.00132032
0.0061987
0.00133713
0.00585982
0.00135346
0.00551676
0.00136924
0.00516963
0.00138442
0.0048186
0.00139893
0.00446382
0.00141272
0.00410547
0.00142573
0.00374376
0.0014379
0.00337891
0.00144918
0.00301115
0.00145951
0.00264076
0.00146884
0.00226799
0.00147712
0.00189316
0.0014843
0.00151658
0.00149036
0.00113856
0.00149525
0.000759465
0.00149892
0.000379606
0.00150161
0.0015005
0.0199767
-4.26942e-05
0.0200163
-0.000130049
0.0200335
-3.52707e-05
0.020032
7.94689e-05
0.0200182
0.000134008
0.0199852
0.000136916
0.0199543
0.000109162
0.0199244
8.82993e-05
0.0198848
8.39123e-05
0.0198394
8.83012e-05
0.0198027
9.89572e-05
0.0197809
0.000117732
0.0197647
0.00014289
0.0197383
0.000172656
0.0196916
0.000210196
0.019625
0.000255688
0.0195473
0.000295435
0.0194704
0.00030946
0.0194032
0.000291884
0.0193477
0.000261591
0.0192984
0.000250765
0.019246
0.000282464
0.0191813
0.000357065
0.0190985
0.000455795
0.0189961
0.000554372
0.0188763
0.000635235
0.0187434
0.000692118
0.0186015
0.00072769
0.018454
0.000748544
0.0183031
0.000761128
0.01815
0.000769944
0.0179951
0.000777478
0.0178387
0.000784854
0.0176806
0.00079249
0.017521
0.000800514
0.0173597
0.000808961
0.0171967
0.000817843
0.0170317
0.000827171
0.0168648
0.000836953
0.0166959
0.000847197
0.0165249
0.000857912
0.0163516
0.000869103
0.0161759
0.000880776
0.0159979
0.000892935
0.0158173
0.000905586
0.0156341
0.000918731
0.0154482
0.000932374
0.0152594
0.000946516
0.0150677
0.000961158
0.014873
0.000976303
0.0146751
0.000991949
0.014474
0.00100809
0.0142696
0.00102474
0.0140617
0.00104188
0.0138503
0.00105951
0.0136353
0.00107762
0.0134165
0.00109621
0.0131939
0.00111527
0.0129674
0.00113479
0.0127369
0.00115475
0.0125022
0.00117515
0.0122634
0.00119596
0.0120203
0.00121717
0.0117728
0.00123875
0.0115209
0.00126068
0.0112646
0.00128294
0.0110036
0.0013055
0.0107381
0.00132832
0.0104679
0.00135138
0.010193
0.00137463
0.0099133
0.00139804
0.00962887
0.00142156
0.00933965
0.00144516
0.00904563
0.00146877
0.00874683
0.00149235
0.00844325
0.00151584
0.00813491
0.00153918
0.00782187
0.00156233
0.00750416
0.0015852
0.00718186
0.00160775
0.00685503
0.00162989
0.00652379
0.00165156
0.00618822
0.0016727
0.00584845
0.00169323
0.00550463
0.00171307
0.0051569
0.00173215
0.00480543
0.0017504
0.00445041
0.00176774
0.00409204
0.00178411
0.00373052
0.00179942
0.00336609
0.00181361
0.002999
0.0018266
0.00262949
0.00183834
0.00225784
0.00184876
0.00188434
0.00185781
0.00150927
0.00186543
0.00113293
0.00187159
0.000755642
0.00187621
0.000377676
0.00187958
0.00187818
0.0199804
-0.000148325
0.0199027
-5.2358e-05
0.0198584
8.98789e-06
0.019839
9.89339e-05
0.0198447
0.00012825
0.0198878
9.38205e-05
0.0199225
7.45383e-05
0.0199174
9.33426e-05
0.0198811
0.000120197
0.0198392
0.000130273
0.0198066
0.000131495
0.0197819
0.000142445
0.0197542
0.000170578
0.0197113
0.000215599
0.0196475
0.000273999
0.01957
0.000333205
0.0194951
0.000370244
0.0194385
0.000366132
0.0194039
0.000326482
0.0193813
0.000284126
0.0193536
0.000278501
0.0193059
0.000330148
0.0192319
0.000431064
0.0191333
0.000554371
0.0190161
0.000671634
0.0188863
0.000765041
0.0187484
0.000829959
0.0186053
0.00087083
0.0184584
0.000895437
0.0183087
0.000910879
0.0181566
0.000921997
0.0180026
0.00093149
0.0178468
0.000940631
0.0176894
0.000949948
0.0175302
0.000959643
0.0173694
0.000969798
0.0172068
0.000980454
0.0170423
0.000991636
0.0168759
0.00100336
0.0167075
0.00101564
0.0165369
0.00102848
0.0163641
0.0010419
0.016189
0.0010559
0.0160114
0.00107048
0.0158314
0.00108566
0.0156487
0.00110143
0.0154632
0.00111779
0.015275
0.00113476
0.0150838
0.00115234
0.0148896
0.00117051
0.0146923
0.00118929
0.0144917
0.00120868
0.0142878
0.00122866
0.0140804
0.00124924
0.0138695
0.00127042
0.0136549
0.00129218
0.0134366
0.00131452
0.0132145
0.00133742
0.0129884
0.00136088
0.0127583
0.00138488
0.012524
0.0014094
0.0122855
0.00143442
0.0120428
0.00145993
0.0117956
0.0014859
0.011544
0.00151229
0.0112879
0.00153908
0.0110271
0.00156624
0.0107617
0.00159373
0.0104916
0.0016215
0.0102167
0.00164952
0.00993705
0.00167773
0.00965253
0.00170609
0.00936315
0.00173453
0.00906891
0.00176301
0.00876981
0.00179145
0.00846586
0.00181979
0.00815708
0.00184796
0.00784351
0.0018759
0.0075252
0.00190351
0.00720222
0.00193073
0.00687465
0.00195746
0.00654258
0.00198363
0.00620613
0.00200915
0.00586543
0.00203393
0.00552061
0.00205788
0.00517184
0.00208092
0.0048193
0.00210294
0.00446318
0.00212387
0.00410369
0.0021436
0.00374105
0.00216206
0.0033755
0.00217916
0.00300729
0.00219482
0.00263668
0.00220895
0.00226395
0.00222149
0.00188938
0.00223238
0.00151327
0.00224154
0.00113591
0.00224894
0.000757627
0.00225449
0.000378671
0.00225853
0.00225685
0.0200708
8.37703e-06
0.0200337
-1.52802e-05
0.0199911
5.16708e-05
0.0199606
0.000129439
0.0199463
0.000142501
0.0199366
0.000103548
0.0199312
7.98806e-05
0.0199261
9.84252e-05
0.0199105
0.000135852
0.0198689
0.000171818
0.019797
0.00020341
0.0197126
0.000226895
0.0196454
0.000237792
0.0196127
0.000248265
0.0196042
0.00028248
0.0195934
0.000344046
0.0195613
0.000402281
0.0195095
0.000417998
0.0194526
0.000383374
0.0194032
0.000333515
0.0193612
0.000320537
0.019315
0.000376316
0.019251
0.000495072
0.0191616
0.000643791
0.0190476
0.000785597
0.0189154
0.000897257
0.0187722
0.000973144
0.0186235
0.00101951
0.0184724
0.00104658
0.01832
0.00106328
0.0181666
0.00107539
0.0180121
0.00108598
0.0178564
0.00109638
0.0176992
0.00110711
0.0175405
0.00111834
0.0173802
0.00113014
0.0172181
0.00114253
0.0170542
0.00115555
0.0168883
0.0011692
0.0167204
0.00118351
0.0165505
0.00119847
0.0163782
0.00121411
0.0162037
0.00123043
0.0160268
0.00124743
0.0158473
0.00126512
0.0156652
0.00128351
0.0154804
0.0013026
0.0152928
0.0013224
0.0151022
0.0013429
0.0149086
0.00136411
0.0147119
0.00138602
0.0145119
0.00140865
0.0143086
0.00143197
0.0141019
0.001456
0.0138915
0.00148073
0.0136776
0.00150614
0.0134599
0.00153223
0.0132383
0.00155899
0.0130128
0.0015864
0.0127832
0.00161445
0.0125495
0.00164312
0.0123115
0.00167238
0.0120692
0.00170221
0.0118225
0.00173259
0.0115714
0.00176347
0.0113156
0.00179483
0.0110552
0.00182663
0.0107901
0.00185882
0.0105203
0.00189135
0.0102456
0.00192418
0.00996609
0.00195725
0.00968168
0.0019905
0.00939235
0.00202386
0.0090981
0.00205726
0.0087989
0.00209064
0.00849479
0.00212391
0.00818576
0.00215699
0.00787187
0.00218979
0.00755315
0.00222223
0.00722966
0.00225421
0.0069015
0.00228563
0.00656875
0.00231639
0.00623151
0.00234638
0.00588993
0.00237552
0.00554414
0.00240367
0.0051943
0.00243075
0.0048406
0.00245664
0.00448323
0.00248124
0.0041224
0.00250443
0.00375834
0.00252612
0.00339129
0.00254621
0.00302151
0.0025646
0.00264927
0.00258119
0.00227485
0.00259591
0.00189855
0.00260868
0.00152065
0.00261943
0.00114148
0.00262811
0.00076136
0.00263462
0.000380544
0.00263935
0.00263739
0.0200865
9.54009e-05
0.0200891
-1.78224e-05
0.020111
2.9732e-05
0.0200916
0.000148905
0.0200573
0.000176732
0.0200309
0.000129926
0.0200176
9.32403e-05
0.0200056
0.000110403
0.0199764
0.000165104
0.0199256
0.000222562
0.0198671
0.000261902
0.0198172
0.000276806
0.0197812
0.000273814
0.0197551
0.000274323
0.0197354
0.000302199
0.0197193
0.000360102
0.0197023
0.00041936
0.0196761
0.000444195
0.0196331
0.00042634
0.0195701
0.000396499
0.0194891
0.000401591
0.0193943
0.000471127
0.0192889
0.000600438
0.019174
0.000758715
0.0190495
0.000910019
0.0189163
0.00103053
0.0187758
0.00111364
0.0186301
0.00116518
0.0184811
0.00119565
0.0183298
0.00121454
0.018177
0.00122821
0.0180228
0.0012401
0.0178674
0.00125179
0.0177107
0.00126387
0.0175524
0.00127657
0.0173926
0.00128994
0.0172311
0.00130403
0.0170678
0.00131885
0.0169026
0.00133441
0.0167354
0.00135072
0.0165661
0.00136779
0.0163946
0.00138564
0.0162207
0.00140427
0.0160445
0.00142368
0.0158657
0.00144389
0.0156843
0.0014649
0.0155002
0.0014867
0.0153133
0.00150932
0.0151234
0.00153275
0.0149306
0.00155699
0.0147345
0.00158204
0.0145353
0.00160791
0.0143327
0.00163458
0.0141266
0.00166206
0.013917
0.00169035
0.0137037
0.00171942
0.0134867
0.00174928
0.0132658
0.00177991
0.0130409
0.00181129
0.0128119
0.0018434
0.0125788
0.00187624
0.0123414
0.00190976
0.0120997
0.00194395
0.0118535
0.00197876
0.0116028
0.00201417
0.0113475
0.00205014
0.0110875
0.00208662
0.0108228
0.00212355
0.0105532
0.0021609
0.0102788
0.0021986
0.0099995
0.00223658
0.00971522
0.00227478
0.00942595
0.00231313
0.00913168
0.00235153
0.0088324
0.00238992
0.0085281
0.0024282
0.00821882
0.00246627
0.00790457
0.00250404
0.00758541
0.00254139
0.00726138
0.00257823
0.00693257
0.00261444
0.00659907
0.00264989
0.00626098
0.00268447
0.00591843
0.00271807
0.00557156
0.00275054
0.00522054
0.00278178
0.00486553
0.00281164
0.00450675
0.00284002
0.00414441
0.00286678
0.00377873
0.0028918
0.00340996
0.00291498
0.00303837
0.00293619
0.00266423
0.00295533
0.00228783
0.00297231
0.00190948
0.00298704
0.00152947
0.00299944
0.00114815
0.00300944
0.000765824
0.00301694
0.000382783
0.00302239
0.00302018
0.0198968
5.99218e-05
0.0199631
-8.40437e-05
0.0199855
7.33487e-06
0.0200414
9.2944e-05
0.0200859
0.00013226
0.0200942
0.000121623
0.0200691
0.000118363
0.0200165
0.000162979
0.0199467
0.000234958
0.0198731
0.000296072
0.0198103
0.000324716
0.0197678
0.000319302
0.0197459
0.000295775
0.0197337
0.000286502
0.019715
0.000320843
0.019679
0.00039613
0.0196263
0.000472096
0.0195671
0.000503395
0.0195117
0.000481727
0.0194624
0.000445769
0.0194122
0.000451785
0.0193503
0.000533076
0.0192692
0.000681569
0.0191677
0.000860202
0.0190491
0.00102855
0.0189183
0.00116137
0.0187793
0.00125266
0.018635
0.00130942
0.0184875
0.00134322
0.0183377
0.00136435
0.0181862
0.00137971
0.0180332
0.00139307
0.0178788
0.00140617
0.017723
0.00141971
0.0175656
0.00143394
0.0174066
0.00144894
0.0172459
0.00146474
0.0170834
0.00148137
0.0169189
0.00149884
0.0167525
0.00151716
0.016584
0.00153634
0.0164132
0.00155639
0.0162402
0.00157733
0.0160647
0.00159915
0.0158867
0.00162186
0.0157061
0.00164548
0.0155228
0.00167
0.0153367
0.00169544
0.0151477
0.00172179
0.0149556
0.00174906
0.0147604
0.00177725
0.014562
0.00180636
0.0143602
0.00183639
0.0141549
0.00186733
0.0139461
0.00189917
0.0137336
0.00193192
0.0135173
0.00196556
0.0132971
0.00200007
0.013073
0.00203543
0.0128447
0.00207164
0.0126123
0.00210867
0.0123756
0.00214648
0.0121345
0.00218505
0.0118889
0.00222434
0.0116388
0.00226432
0.011384
0.00230493
0.0111245
0.00234614
0.0108601
0.00238788
0.0105909
0.0024301
0.0103168
0.00247272
0.0100377
0.00251569
0.00975356
0.00255892
0.00946436
0.00260233
0.00917007
0.00264582
0.00887068
0.00268931
0.00856619
0.00273269
0.0082566
0.00277586
0.00794195
0.00281869
0.00762227
0.00286107
0.00729762
0.00290288
0.00696807
0.00294399
0.0066337
0.00298426
0.00629462
0.00302355
0.00595096
0.00306173
0.00560286
0.00309865
0.00525047
0.00313416
0.00489398
0.00316813
0.00453359
0.00320041
0.00416951
0.00323086
0.00380198
0.00325933
0.00343125
0.00328571
0.00305759
0.00330985
0.00268129
0.00333164
0.00230263
0.00335097
0.00192194
0.00336773
0.00153953
0.00338184
0.00115574
0.00339323
0.000770912
0.00340177
0.000385335
0.00340797
0.00340551
0.0200552
-5.07501e-05
0.0200313
-6.01417e-05
0.0200041
3.45611e-05
0.0199596
0.000137508
0.0199389
0.000152919
0.0199217
0.000138791
0.0198857
0.000154423
0.0198487
0.000199954
0.0198339
0.000249746
0.0198377
0.000292234
0.0198332
0.000329256
0.0198008
0.000351681
0.0197487
0.00034793
0.0197006
0.000334617
0.0196673
0.000354113
0.0196384
0.00042503
0.0195983
0.00051219
0.0195449
0.000556791
0.0194905
0.000536123
0.0194471
0.000489125
0.0194139
0.000484976
0.0193771
0.000569945
0.0193196
0.000739014
0.0192319
0.000947961
0.0191146
0.00114587
0.0189756
0.00130034
0.0188245
0.00140369
0.0186689
0.00146511
0.0185126
0.00149947
0.0183572
0.00151973
0.0182026
0.00153429
0.0180483
0.00154744
0.0178935
0.00156095
0.0177378
0.00157538
0.0175809
0.00159083
0.0174226
0.00160728
0.0172626
0.00162471
0.0171009
0.0016431
0.0169373
0.00166244
0.0167717
0.00168275
0.016604
0.00170402
0.0164341
0.00172627
0.016262
0.0017495
0.0160874
0.00177371
0.0159103
0.00179893
0.0157307
0.00182515
0.0155483
0.00185239
0.0153631
0.00188064
0.015175
0.00190991
0.0149838
0.00194021
0.0147895
0.00197154
0.014592
0.00200389
0.0143911
0.00203728
0.0141867
0.00207168
0.0139788
0.0021071
0.0137672
0.00214353
0.0135518
0.00218096
0.0133325
0.00221937
0.0131092
0.00225874
0.0128818
0.00229907
0.0126501
0.00234031
0.0124142
0.00238244
0.0121738
0.00242543
0.0119289
0.00246924
0.0116794
0.00251382
0.0114252
0.00255914
0.0111662
0.00260513
0.0109023
0.00265173
0.0106335
0.00269888
0.0103598
0.00274651
0.0100809
0.00279454
0.00979694
0.00284288
0.00950782
0.00289144
0.00921353
0.00294012
0.00891403
0.00298881
0.00860932
0.0030374
0.0082994
0.00308577
0.0079843
0.00313379
0.00766404
0.00318133
0.00733869
0.00322824
0.00700829
0.00327438
0.00667295
0.0033196
0.00633276
0.00336374
0.00598784
0.00340665
0.00563834
0.00344815
0.00528441
0.00348809
0.00492623
0.00352631
0.00456401
0.00356263
0.00419797
0.0035969
0.00382834
0.00362896
0.00345538
0.00365866
0.00307937
0.00368586
0.00270061
0.0037104
0.00231939
0.00373218
0.00193605
0.00375107
0.00155092
0.00376698
0.00116434
0.00377981
0.000776672
0.00378943
0.000388223
0.00379642
0.00379373
0.0198613
-0.000254558
0.0199279
-0.000126699
0.0199475
1.49592e-05
0.0199913
9.36707e-05
0.0200197
0.000124489
0.0200117
0.000146842
0.0199817
0.000184411
0.0199511
0.0002305
0.0199302
0.000270716
0.0199079
0.000314531
0.0198681
0.000369009
0.019808
0.000411835
0.0197381
0.000417845
0.0196709
0.000401753
0.0196144
0.000410602
0.0195696
0.000469827
0.0195338
0.000548013
0.0195039
0.000586738
0.0194769
0.000563059
0.0194491
0.000516909
0.0194145
0.000519603
0.0193657
0.000618776
0.0192962
0.000808533
0.0192029
0.00104123
0.0190875
0.00126129
0.0189551
0.00143268
0.0188123
0.00154655
0.0186642
0.0016132
0.018514
0.00164961
0.0183632
0.00167057
0.0182119
0.00168558
0.0180599
0.00169941
0.017907
0.00171391
0.0177528
0.0017296
0.0175971
0.00174649
0.0174399
0.00176452
0.0172809
0.00178364
0.0171202
0.00180382
0.0169576
0.00182506
0.016793
0.00184736
0.0166263
0.00187072
0.0164574
0.00189516
0.0162862
0.00192067
0.0161126
0.00194728
0.0159366
0.00197499
0.0157579
0.00200381
0.0155765
0.00203375
0.0153924
0.00206481
0.0152053
0.00209701
0.0150151
0.00213033
0.0148219
0.0021648
0.0146254
0.0022004
0.0144255
0.00223714
0.0142222
0.00227502
0.0140152
0.00231402
0.0138046
0.00235415
0.0135902
0.00239538
0.0133719
0.00243771
0.0131495
0.00248111
0.012923
0.00252557
0.0126922
0.00257106
0.0124571
0.00261754
0.0122176
0.00266499
0.0119735
0.00271336
0.0117247
0.0027626
0.0114711
0.00281267
0.0112128
0.0028635
0.0109495
0.00291504
0.0106812
0.0029672
0.0104078
0.00301991
0.0101292
0.00307308
0.00984547
0.00312663
0.00955647
0.00318044
0.00926218
0.00323441
0.00896258
0.00328842
0.00865764
0.00334234
0.00834737
0.00339604
0.00803178
0.00344938
0.0077109
0.00350221
0.00738477
0.00355437
0.00705346
0.0036057
0.00671704
0.00365602
0.00637561
0.00370517
0.00602929
0.00375296
0.00567822
0.00379922
0.00532257
0.00384375
0.0049625
0.00388637
0.00459823
0.0039269
0.00422998
0.00396515
0.00385799
0.00400095
0.00348253
0.00403412
0.00310388
0.0040645
0.00272235
0.00409194
0.00233826
0.00411628
0.00195193
0.0041374
0.00156373
0.00415518
0.00117401
0.00416953
0.000783154
0.00418029
0.000391473
0.0041881
0.00418521
0.0200498
-0.00031393
0.020049
-0.000125952
0.0200265
3.75208e-05
0.0200025
0.000117679
0.0199897
0.000137203
0.0199763
0.000160309
0.0199502
0.000210453
0.0199163
0.000264443
0.0198774
0.000309623
0.0198389
0.000353045
0.0198115
0.000396421
0.0198015
0.000421792
0.0198017
0.000417692
0.0197924
0.000411043
0.0197543
0.000448688
0.0196826
0.000541507
0.0195893
0.000641316
0.0194943
0.000681733
0.0194146
0.000642715
0.0193568
0.00057472
0.0193151
0.00056138
0.0192754
0.00065844
0.0192232
0.000860734
0.0191493
0.00111511
0.0190521
0.00135852
0.0189353
0.00154952
0.0188046
0.00167723
0.0186653
0.00175248
0.0185211
0.00179381
0.0183741
0.00181761
0.0182252
0.00183446
0.0180748
0.00184975
0.0179231
0.00186564
0.01777
0.00188274
0.0176153
0.00190113
0.0174591
0.00192075
0.0173012
0.00194155
0.0171415
0.00196352
0.0169799
0.00198664
0.0168163
0.00201092
0.0166507
0.00203635
0.0164829
0.00206297
0.0163128
0.00209076
0.0161404
0.00211975
0.0159654
0.00214995
0.0157879
0.00218136
0.0156076
0.00221399
0.0154246
0.00224786
0.0152386
0.00228297
0.0150496
0.00231932
0.0148575
0.00235692
0.0146621
0.00239577
0.0144634
0.00243588
0.0142612
0.00247723
0.0140554
0.00251982
0.0138459
0.00256365
0.0136325
0.00260871
0.0134153
0.00265497
0.013194
0.00270243
0.0129685
0.00275105
0.0127387
0.00280081
0.0125046
0.00285169
0.0122659
0.00290363
0.0120227
0.00295661
0.0117747
0.00301056
0.011522
0.00306544
0.0112643
0.00312118
0.0110016
0.00317772
0.0107338
0.00323496
0.0104609
0.00329284
0.0101827
0.00335126
0.00989925
0.00341011
0.0096104
0.00346928
0.00931615
0.00352866
0.00901646
0.00358811
0.0087113
0.0036475
0.00840066
0.00370668
0.00808456
0.00376549
0.007763
0.00382376
0.00743604
0.00388133
0.00710372
0.00393802
0.00676612
0.00399362
0.00642333
0.00404796
0.00607547
0.00410082
0.00572268
0.00415201
0.00536512
0.00420131
0.00500296
0.00424853
0.00463642
0.00429344
0.00426571
0.00433586
0.0038911
0.00437556
0.00351286
0.00441237
0.00313127
0.00444609
0.00274665
0.00447655
0.00235934
0.00450359
0.00196969
0.00452705
0.00157806
0.00454681
0.00118483
0.00456276
0.0007904
0.00457472
0.000395107
0.00458339
0.00458031
0.0202417
0.000183075
0.0200852
3.05949e-05
0.0200835
3.91344e-05
0.0200885
0.000112724
0.0200396
0.000186058
0.0199767
0.000223249
0.0199456
0.000241513
0.0199416
0.000268516
0.0199319
0.000319267
0.0198956
0.000389415
0.0198382
0.000453822
0.0197793
0.000480671
0.0197329
0.000464062
0.0197011
0.00044288
0.0196765
0.00047327
0.0196471
0.000570932
0.0196026
0.000685748
0.0195402
0.000744146
0.0194647
0.000718259
0.0193856
0.000653833
0.0193114
0.000635494
0.0192445
0.00072542
0.0191792
0.000926026
0.0191065
0.00118781
0.0190192
0.00144585
0.0189148
0.00165384
0.0187954
0.00179664
0.0186648
0.00188314
0.0185266
0.00193194
0.0183838
0.00196046
0.0182378
0.00198038
0.0180897
0.00199789
0.0179397
0.0020156
0.0177881
0.00203439
0.0176348
0.00205443
0.0174798
0.00207573
0.0173231
0.00209827
0.0171646
0.00212204
0.0170042
0.00214705
0.0168418
0.0021733
0.0166773
0.00220081
0.0165107
0.00222959
0.0163418
0.00225965
0.0161706
0.00229102
0.0159968
0.00232369
0.0158205
0.00235768
0.0156415
0.002393
0.0154597
0.00242967
0.015275
0.00246769
0.0150872
0.00250706
0.0148964
0.0025478
0.0147022
0.0025899
0.0145047
0.00263336
0.0143038
0.0026782
0.0140992
0.00272439
0.0138909
0.00277194
0.0136788
0.00282083
0.0134627
0.00287104
0.0132426
0.00292257
0.0130182
0.00297539
0.0127896
0.00302946
0.0125565
0.00308476
0.0123189
0.00314125
0.0120766
0.00319888
0.0118296
0.0032576
0.0115777
0.00331735
0.0113208
0.00337807
0.0110588
0.00343968
0.0107917
0.0035021
0.0105193
0.00356524
0.0102415
0.003629
0.00995838
0.00369327
0.00966974
0.00375793
0.00937556
0.00382284
0.0090758
0.00388787
0.00877042
0.00395288
0.00845941
0.00401768
0.00814277
0.00408213
0.00782051
0.00414603
0.00749265
0.00420919
0.00715925
0.00427142
0.00682038
0.0043325
0.00647612
0.00439222
0.00612659
0.00445035
0.00577191
0.00450668
0.00541226
0.00456097
0.0050478
0.00461298
0.00467876
0.00466249
0.00430535
0.00470926
0.00392784
0.00475307
0.00354651
0.0047937
0.00316167
0.00483094
0.00277364
0.00486459
0.00238276
0.00489446
0.00198941
0.0049204
0.00159398
0.00494224
0.00119685
0.00495989
0.000798455
0.00497312
0.000399147
0.0049827
0.00497946
0.0203241
0.000254084
0.0201395
0.00021522
0.020017
0.000161673
0.0199648
0.000164843
0.0199547
0.000196228
0.0199293
0.000248638
0.0198887
0.000282037
0.0198657
0.000291579
0.019869
0.000315931
0.0198764
0.000382071
0.0198624
0.00046779
0.0198224
0.000520641
0.0197702
0.000516245
0.0197199
0.000493234
0.019676
0.000517161
0.0196368
0.000610128
0.0195988
0.000723732
0.0195586
0.000784325
0.0195125
0.000764371
0.0194565
0.000709873
0.0193884
0.000703606
0.0193094
0.000804357
0.0192226
0.00101282
0.0191295
0.00128091
0.0190292
0.00154615
0.01892
0.00176312
0.0188009
0.00191566
0.018673
0.00201106
0.018538
0.00206699
0.0183977
0.0021007
0.0182538
0.00212428
0.0181073
0.00214442
0.0179587
0.00216421
0.0178083
0.00218479
0.0176562
0.00220652
0.0175024
0.00222951
0.0173469
0.00225377
0.0171896
0.00227933
0.0170304
0.00230621
0.0168693
0.00233443
0.0167061
0.00236399
0.0165408
0.00239493
0.0163732
0.00242725
0.0162032
0.00246097
0.0160308
0.0024961
0.0158558
0.00253267
0.0156782
0.00257067
0.0154977
0.00261013
0.0153143
0.00265105
0.015128
0.00269344
0.0149385
0.0027373
0.0147457
0.00278265
0.0145496
0.00282949
0.01435
0.0028778
0.0141468
0.0029276
0.0139398
0.00297888
0.013729
0.00303162