/*--------------------------------*- C++ -*----------------------------------*\
| =========                 |                                                 |
| \\      /  F ield         | OpenFOAM: The Open Source CFD Toolbox           |
|  \\    /   O peration     | Version:  4.1                                   |
|   \\  /    A nd           | Web:      www.OpenFOAM.org                      |
|    \\/     M anipulation  |                                                 |
\*---------------------------------------------------------------------------*/
FoamFile
{
    version     2.0;
    format      ascii;
    class       volScalarField;
    location    "0.051";
    object      pMean;
}
// * * * * * * * * * * * * * * * * * * * * * * * * * * * * * * * * * * * * * //

dimensions      [0 2 -2 0 0 0 0];

internalField   nonuniform List<scalar> 
43750
(
606.371
601.436
600.881
598.649
596.729
594.921
593.118
591.315
589.53
587.77
586.037
584.327
582.639
580.971
579.324
577.698
576.094
574.512
572.95
571.409
569.888
568.387
566.907
565.447
564.008
562.59
561.193
559.817
558.462
557.128
555.815
554.524
553.256
552.009
550.785
549.584
548.407
547.252
546.122
545.015
543.933
542.875
541.842
540.834
539.851
538.893
537.962
537.056
536.177
535.324
534.497
533.697
532.924
532.177
531.458
530.766
530.1
529.462
528.851
528.267
527.709
527.179
526.675
526.197
525.746
525.32
524.919
524.544
524.193
523.866
523.563
523.282
523.024
522.787
522.571
522.375
522.198
522.039
521.898
521.773
521.663
521.567
521.485
521.415
521.356
521.307
521.267
521.235
521.21
521.191
521.177
521.167
521.16
521.156
521.154
521.153
521.153
521.154
521.154
521.155
606.271
601.397
600.85
598.613
596.689
594.881
593.079
591.278
589.494
587.735
586.001
584.291
582.602
580.935
579.289
577.664
576.06
574.477
572.914
571.373
569.853
568.354
566.875
565.417
563.979
562.561
561.163
559.787
558.431
557.096
555.783
554.492
553.223
551.976
550.751
549.55
548.371
547.216
546.085
544.977
543.894
542.836
541.802
540.793
539.81
538.852
537.919
537.013
536.133
535.279
534.451
533.65
532.876
532.129
531.409
530.716
530.05
529.411
528.799
528.214
527.656
527.125
526.62
526.142
525.689
525.263
524.862
524.486
524.134
523.807
523.503
523.223
522.964
522.727
522.511
522.315
522.138
521.979
521.838
521.713
521.604
521.508
521.426
521.357
521.298
521.25
521.21
521.179
521.154
521.136
521.122
521.113
521.107
521.103
521.102
521.101
521.102
521.102
521.103
521.103
606.296
601.37
600.807
598.575
596.658
594.849
593.044
591.241
589.455
587.695
585.96
584.249
582.56
580.892
579.244
577.618
576.013
574.43
572.867
571.325
569.804
568.303
566.823
565.363
563.923
562.504
561.106
559.728
558.371
557.036
555.722
554.43
553.159
551.911
550.686
549.483
548.303
547.147
546.015
544.906
543.822
542.762
541.727
540.716
539.731
538.772
537.838
536.93
536.048
535.193
534.364
533.562
532.786
532.037
531.315
530.62
529.953
529.312
528.698
528.112
527.552
527.019
526.512
526.032
525.578
525.15
524.747
524.369
524.016
523.687
523.382
523.099
522.839
522.601
522.383
522.185
522.007
521.847
521.704
521.578
521.467
521.37
521.287
521.217
521.157
521.108
521.067
521.035
521.01
520.991
520.977
520.967
520.96
520.956
520.954
520.954
520.954
520.954
520.955
520.955
605.985
601.196
600.69
598.474
596.556
594.751
592.954
591.156
589.373
587.614
585.881
584.17
582.481
580.813
579.166
577.539
575.933
574.349
572.786
571.243
569.721
568.22
566.739
565.278
563.838
562.418
561.019
559.64
558.282
556.945
555.63
554.336
553.064
551.814
550.587
549.383
548.202
547.044
545.909
544.799
543.713
542.651
541.613
540.601
539.614
538.653
537.717
536.806
535.922
535.065
534.233
533.428
532.65
531.899
531.175
530.478
529.807
529.164
528.548
527.959
527.396
526.861
526.352
525.869
525.412
524.982
524.576
524.196
523.841
523.509
523.202
522.917
522.655
522.414
522.194
521.995
521.814
521.652
521.508
521.38
521.268
521.17
521.086
521.014
520.953
520.903
520.861
520.828
520.802
520.782
520.768
520.757
520.75
520.746
520.744
520.743
520.743
520.743
520.743
520.744
606.061
601.167
600.619
598.397
596.487
594.681
592.876
591.072
589.286
587.525
585.789
584.077
582.387
580.717
579.068
577.441
575.835
574.249
572.685
571.141
569.617
568.114
566.632
565.169
563.727
562.305
560.904
559.523
558.163
556.825
555.507
554.211
552.937
551.686
550.456
549.25
548.066
546.906
545.769
544.656
543.567
542.503
541.463
540.448
539.458
538.494
537.555
536.642
535.755
534.894
534.059
533.251
532.47
531.715
530.988
530.287
529.614
528.967
528.347
527.755
527.189
526.65
526.137
525.651
525.191
524.757
524.349
523.965
523.607
523.272
522.961
522.673
522.408
522.165
521.942
521.74
521.557
521.392
521.246
521.116
521.001
520.901
520.815
520.741
520.679
520.627
520.584
520.549
520.522
520.501
520.486
520.474
520.467
520.462
520.459
520.457
520.457
520.457
520.457
520.457
605.901
601.011
600.469
598.25
596.338
594.536
592.738
590.939
589.156
587.397
585.663
583.952
582.262
580.592
578.943
577.314
575.706
574.12
572.554
571.008
569.484
567.979
566.495
565.031
563.587
562.163
560.76
559.377
558.015
556.674
555.354
554.056
552.779
551.525
550.293
549.083
547.897
546.734
545.594
544.478
543.386
542.318
541.275
540.256
539.263
538.295
537.352
536.436
535.545
534.68
533.842
533.03
532.244
531.486
530.754
530.049
529.371
528.721
528.097
527.5
526.93
526.386
525.87
525.379
524.915
524.477
524.064
523.676
523.314
522.975
522.66
522.369
522.1
521.852
521.626
521.421
521.234
521.067
520.917
520.784
520.667
520.564
520.475
520.399
520.335
520.281
520.236
520.2
520.171
520.149
520.132
520.119
520.111
520.105
520.101
520.099
520.098
520.098
520.098
520.098
605.702
600.877
600.356
598.132
596.217
594.413
592.611
590.807
589.02
587.259
585.522
583.809
582.117
580.445
578.794
577.164
575.555
573.967
572.399
570.852
569.325
567.819
566.332
564.866
563.42
561.993
560.587
559.202
557.837
556.493
555.17
553.869
552.589
551.332
550.097
548.884
547.694
546.527
545.384
544.264
543.168
542.096
541.049
540.027
539.029
538.057
537.11
536.189
535.293
534.424
533.581
532.764
531.974
531.21
530.474
529.764
529.081
528.425
527.796
527.194
526.619
526.07
525.548
525.053
524.583
524.14
523.722
523.329
522.962
522.618
522.299
522.002
521.729
521.477
521.247
521.037
520.846
520.675
520.521
520.385
520.264
520.158
520.067
519.988
519.921
519.864
519.817
519.779
519.749
519.724
519.706
519.692
519.682
519.676
519.671
519.668
519.667
519.666
519.666
519.666
605.664
600.725
600.168
597.94
596.026
594.225
592.427
590.629
588.846
587.086
585.35
583.637
581.944
580.272
578.62
576.988
575.377
573.787
572.218
570.669
569.14
567.631
566.142
564.673
563.224
561.795
560.386
558.998
557.63
556.283
554.956
553.652
552.369
551.107
549.868
548.652
547.458
546.287
545.139
544.015
542.915
541.838
540.786
539.759
538.757
537.779
536.827
535.901
535
534.125
533.277
532.454
531.659
530.889
530.147
529.431
528.742
528.08
527.445
526.837
526.256
525.701
525.173
524.672
524.196
523.747
523.323
522.924
522.551
522.201
521.876
521.574
521.295
521.038
520.803
520.588
520.393
520.217
520.059
519.918
519.793
519.684
519.588
519.506
519.436
519.376
519.327
519.286
519.253
519.227
519.207
519.192
519.181
519.172
519.167
519.163
519.161
519.16
519.159
519.159
605.399
600.517
599.995
597.78
595.868
594.06
592.254
590.449
588.66
586.898
585.16
583.444
581.75
580.076
578.422
576.788
575.176
573.584
572.012
570.46
568.928
567.417
565.925
564.453
563.001
561.569
560.157
558.765
557.393
556.042
554.712
553.404
552.117
550.851
549.608
548.387
547.188
546.012
544.86
543.731
542.625
541.544
540.487
539.454
538.446
537.463
536.505
535.572
534.666
533.785
532.93
532.101
531.299
530.523
529.774
529.051
528.355
527.687
527.045
526.429
525.841
525.279
524.744
524.236
523.753
523.297
522.866
522.461
522.08
521.724
521.392
521.084
520.799
520.536
520.294
520.073
519.873
519.691
519.528
519.382
519.253
519.139
519.04
518.953
518.879
518.817
518.764
518.721
518.685
518.657
518.634
518.617
518.604
518.595
518.588
518.583
518.58
518.578
518.577
518.577
605.208
600.301
599.752
597.524
595.614
593.818
592.023
590.226
588.442
586.68
584.942
583.226
581.53
579.854
578.198
576.563
574.948
573.354
571.779
570.225
568.691
567.176
565.682
564.207
562.751
561.315
559.9
558.504
557.128
555.773
554.439
553.125
551.834
550.563
549.315
548.089
546.885
545.704
544.546
543.412
542.301
541.213
540.15
539.111
538.097
537.107
536.143
535.203
534.29
533.402
532.54
531.704
530.894
530.111
529.354
528.624
527.92
527.244
526.594
525.971
525.375
524.805
524.262
523.745
523.255
522.79
522.352
521.938
521.55
521.187
520.847
520.532
520.239
519.969
519.721
519.493
519.286
519.098
518.929
518.778
518.643
518.524
518.42
518.329
518.251
518.184
518.128
518.081
518.042
518.011
517.986
517.967
517.952
517.941
517.933
517.927
517.923
517.92
517.919
517.918
604.876
600.049
599.543
597.335
595.424
593.614
591.807
589.999
588.208
586.443
584.703
582.985
581.287
579.609
577.951
576.313
574.696
573.099
571.521
569.964
568.426
566.908
565.41
563.932
562.473
561.034
559.614
558.214
556.834
555.474
554.135
552.817
551.52
550.245
548.991
547.759
546.55
545.363
544.199
543.058
541.941
540.847
539.777
538.731
537.709
536.713
535.741
534.794
533.873
532.977
532.107
531.263
530.445
529.653
528.888
528.149
527.437
526.752
526.093
525.461
524.856
524.278
523.725
523.2
522.7
522.227
521.78
521.358
520.961
520.588
520.241
519.917
519.616
519.338
519.081
518.846
518.632
518.437
518.261
518.103
517.962
517.837
517.728
517.632
517.548
517.477
517.417
517.366
517.324
517.289
517.262
517.24
517.222
517.209
517.2
517.192
517.187
517.184
517.182
517.181
604.62
599.785
599.244
597.025
595.123
593.33
591.534
589.734
587.948
586.184
584.443
582.723
581.023
579.343
577.682
576.042
574.421
572.821
571.24
569.679
568.138
566.616
565.115
563.632
562.169
560.725
559.301
557.896
556.511
555.146
553.802
552.479
551.176
549.895
548.635
547.397
546.182
544.988
543.818
542.67
541.545
540.444
539.367
538.313
537.284
536.28
535.3
534.345
533.415
532.51
531.632
530.779
529.952
529.151
528.376
527.628
526.907
526.211
525.543
524.901
524.286
523.697
523.135
522.6
522.09
521.607
521.15
520.718
520.311
519.929
519.572
519.238
518.928
518.641
518.376
518.133
517.91
517.707
517.524
517.358
517.21
517.079
516.962
516.86
516.772
516.695
516.63
516.575
516.528
516.49
516.459
516.434
516.414
516.399
516.387
516.378
516.372
516.368
516.365
516.364
604.448
599.578
599.044
596.819
594.9
593.087
591.276
589.465
587.672
585.904
584.16
582.438
580.736
579.054
577.39
575.747
574.124
572.52
570.936
569.371
567.826
566.3
564.794
563.306
561.838
560.39
558.96
557.55
556.16
554.79
553.44
552.11
550.802
549.514
548.248
547.004
545.781
544.581
543.403
542.248
541.115
540.006
538.921
537.859
536.822
535.808
534.819
533.855
532.916
532.003
531.114
530.251
529.414
528.603
527.819
527.06
526.328
525.622
524.943
524.29
523.664
523.065
522.491
521.945
521.424
520.93
520.461
520.019
519.601
519.208
518.84
518.497
518.176
517.879
517.604
517.351
517.119
516.907
516.715
516.541
516.385
516.246
516.123
516.014
515.919
515.836
515.765
515.705
515.654
515.612
515.577
515.548
515.526
515.508
515.494
515.483
515.476
515.47
515.467
515.465
604.197
599.251
598.688
596.463
594.556
592.76
590.963
589.16
587.37
585.602
583.856
582.132
580.428
578.743
577.076
575.43
573.803
572.196
570.608
569.039
567.49
565.96
564.448
562.956
561.482
560.028
558.593
557.177
555.781
554.405
553.049
551.713
550.398
549.104
547.83
546.579
545.349
544.141
542.955
541.792
540.651
539.533
538.439
537.369
536.322
535.299
534.301
533.327
532.378
531.453
530.555
529.681
528.833
528.011
527.215
526.445
525.702
524.984
524.293
523.629
522.991
522.379
521.794
521.235
520.702
520.196
519.715
519.26
518.831
518.426
518.046
517.691
517.359
517.051
516.765
516.501
516.259
516.037
515.835
515.652
515.487
515.339
515.207
515.091
514.988
514.899
514.822
514.756
514.7
514.653
514.613
514.581
514.555
514.534
514.517
514.504
514.495
514.488
514.484
514.482
603.804
598.941
598.428
596.207
594.287
592.471
590.658
588.844
587.048
585.276
583.528
581.801
580.094
578.406
576.737
575.087
573.457
571.846
570.255
568.682
567.128
565.593
564.077
562.579
561.1
559.64
558.199
556.777
555.375
553.992
552.629
551.287
549.964
548.663
547.382
546.123
544.885
543.668
542.474
541.302
540.152
539.026
537.922
536.842
535.785
534.752
533.743
532.759
531.799
530.863
529.953
529.068
528.209
527.375
526.567
525.784
525.028
524.298
523.594
522.917
522.265
521.641
521.042
520.47
519.924
519.404
518.91
518.442
517.999
517.582
517.189
516.821
516.476
516.155
515.857
515.582
515.328
515.095
514.882
514.688
514.513
514.356
514.215
514.09
513.979
513.882
513.798
513.725
513.663
513.61
513.566
513.529
513.499
513.474
513.455
513.44
513.428
513.42
513.415
513.413
603.426
598.558
598.034
595.812
593.901
592.1
590.299
588.492
586.699
584.926
583.177
581.448
579.738
578.046
576.374
574.721
573.087
571.472
569.876
568.299
566.74
565.201
563.679
562.176
560.691
559.225
557.778
556.35
554.941
553.551
552.181
550.831
549.502
548.192
546.903
545.636
544.389
543.164
541.961
540.779
539.62
538.483
537.37
536.279
535.211
534.168
533.148
532.152
531.18
530.233
529.31
528.413
527.541
526.694
525.873
525.077
524.307
523.563
522.846
522.154
521.489
520.85
520.237
519.65
519.09
518.555
518.047
517.564
517.107
516.675
516.268
515.885
515.527
515.192
514.881
514.592
514.325
514.08
513.855
513.649
513.463
513.295
513.144
513.009
512.889
512.784
512.691
512.611
512.542
512.483
512.432
512.39
512.356
512.327
512.304
512.287
512.273
512.263
512.257
512.254
603.065
598.234
597.723
595.505
593.584
591.767
589.95
588.134
586.334
584.557
582.804
581.072
579.359
577.664
575.988
574.331
572.693
571.074
569.473
567.892
566.328
564.783
563.256
561.748
560.257
558.785
557.331
555.896
554.48
553.083
551.706
550.348
549.01
547.692
546.395
545.118
543.862
542.628
541.415
540.224
539.054
537.907
536.782
535.681
534.602
533.546
532.514
531.506
530.522
529.562
528.627
527.716
526.83
525.969
525.134
524.324
523.54
522.781
522.048
521.342
520.661
520.006
519.378
518.776
518.199
517.649
517.125
516.626
516.153
515.705
515.283
514.885
514.511
514.161
513.835
513.532
513.25
512.991
512.752
512.534
512.335
512.155
511.992
511.846
511.716
511.601
511.499
511.411
511.333
511.267
511.21
511.163
511.123
511.09
511.063
511.042
511.026
511.014
511.006
511.003
602.737
597.846
597.312
595.088
593.17
591.36
589.554
587.742
585.943
584.165
582.41
580.675
578.959
577.26
575.581
573.919
572.277
570.653
569.048
567.461
565.893
564.342
562.809
561.294
559.797
558.319
556.858
555.416
553.992
552.588
551.202
549.836
548.49
547.163
545.857
544.571
543.305
542.061
540.838
539.636
538.455
537.297
536.161
535.047
533.956
532.888
531.844
530.822
529.825
528.851
527.902
526.977
526.077
525.201
524.35
523.525
522.725
521.951
521.202
520.479
519.782
519.111
518.465
517.846
517.253
516.685
516.144
515.628
515.138
514.673
514.233
513.818
513.428
513.061
512.719
512.399
512.102
511.827
511.574
511.341
511.128
510.934
510.759
510.6
510.459
510.332
510.22
510.122
510.036
509.961
509.897
509.842
509.796
509.758
509.727
509.702
509.683
509.669
509.66
509.655
602.447
597.533
596.979
594.735
592.802
590.981
589.162
587.341
585.536
583.754
581.995
580.257
578.537
576.835
575.151
573.485
571.838
570.21
568.6
567.008
565.433
563.877
562.338
560.817
559.313
557.828
556.36
554.91
553.479
552.066
550.672
549.297
547.942
546.606
545.29
543.994
542.718
541.463
540.229
539.016
537.824
536.654
535.506
534.379
533.276
532.194
531.136
530.101
529.089
528.101
527.137
526.197
525.281
524.39
523.523
522.681
521.865
521.073
520.307
519.567
518.852
518.162
517.499
516.862
516.25
515.664
515.104
514.569
514.06
513.577
513.118
512.685
512.276
511.891
511.531
511.194
510.879
510.587
510.317
510.068
509.84
509.631
509.441
509.269
509.114
508.975
508.851
508.742
508.645
508.561
508.489
508.426
508.373
508.329
508.293
508.263
508.241
508.224
508.214
508.208
601.916
597.043
596.513
594.285
592.358
590.541
588.727
586.911
585.106
583.322
581.56
579.819
578.096
576.39
574.702
573.032
571.38
569.746
568.13
566.532
564.952
563.389
561.843
560.315
558.805
557.312
555.836
554.378
552.939
551.518
550.115
548.731
547.366
546.02
544.694
543.388
542.101
540.835
539.589
538.364
537.161
535.978
534.817
533.677
532.56
531.465
530.392
529.343
528.316
527.312
526.332
525.376
524.444
523.535
522.652
521.792
520.958
520.148
519.364
518.605
517.871
517.162
516.479
515.822
515.191
514.585
514.004
513.45
512.921
512.417
511.938
511.484
511.055
510.651
510.271
509.914
509.581
509.27
508.981
508.715
508.469
508.243
508.037
507.849
507.679
507.526
507.389
507.267
507.159
507.064
506.982
506.911
506.85
506.799
506.756
506.722
506.696
506.676
506.663
506.657
601.581
596.676
596.114
593.865
591.934
590.113
588.29
586.465
584.655
582.868
581.103
579.358
577.631
575.921
574.229
572.554
570.898
569.259
567.638
566.034
564.448
562.879
561.327
559.792
558.273
556.772
555.288
553.822
552.374
550.944
549.531
548.138
546.763
545.407
544.07
542.753
541.455
540.177
538.919
537.682
536.465
535.27
534.095
532.942
531.81
530.7
529.613
528.547
527.505
526.485
525.488
524.515
523.565
522.639
521.737
520.859
520.006
519.177
518.373
517.593
516.839
516.11
515.407
514.728
514.075
513.448
512.846
512.27
511.718
511.193
510.692
510.216
509.766
509.339
508.937
508.559
508.205
507.874
507.565
507.278
507.013
506.768
506.544
506.339
506.152
505.983
505.831
505.695
505.574
505.467
505.373
505.291
505.222
505.162
505.113
505.073
505.042
505.019
505.004
504.996
601.198
596.198
595.63
593.388
591.455
589.633
587.813
585.99
584.181
582.392
580.624
578.876
577.145
575.431
573.734
572.055
570.393
568.749
567.121
565.511
563.918
562.343
560.784
559.242
557.716
556.208
554.716
553.241
551.784
550.344
548.922
547.519
546.133
544.767
543.419
542.09
540.78
539.49
538.22
536.969
535.739
534.53
533.341
532.173
531.026
529.901
528.797
527.716
526.656
525.619
524.605
523.614
522.645
521.701
520.779
519.882
519.008
518.159
517.334
516.533
515.758
515.007
514.281
513.58
512.904
512.254
511.628
511.028
510.454
509.904
509.38
508.88
508.406
507.956
507.53
507.129
506.751
506.397
506.065
505.757
505.47
505.204
504.96
504.735
504.529
504.342
504.173
504.021
503.885
503.764
503.657
503.564
503.484
503.415
503.358
503.311
503.275
503.248
503.23
503.221
600.482
595.667
595.143
592.91
590.981
589.158
587.335
585.507
583.692
581.899
580.129
578.377
576.642
574.924
573.222
571.538
569.871
568.221
566.588
564.972
563.372
561.789
560.222
558.672
557.138
555.621
554.12
552.636
551.169
549.72
548.288
546.874
545.478
544.1
542.74
541.399
540.077
538.774
537.491
536.227
534.983
533.759
532.555
531.372
530.209
529.068
527.947
526.849
525.772
524.717
523.684
522.674
521.686
520.721
519.779
518.861
517.966
517.095
516.248
515.425
514.626
513.852
513.102
512.377
511.677
511.002
510.351
509.726
509.126
508.551
508.001
507.475
506.975
506.499
506.048
505.621
505.217
504.838
504.482
504.149
503.838
503.549
503.282
503.035
502.808
502.601
502.412
502.242
502.088
501.951
501.83
501.723
501.631
501.551
501.485
501.43
501.388
501.356
501.335
501.324
600.053
595.178
594.63
592.39
590.463
588.645
586.825
584.997
583.181
581.386
579.612
577.856
576.118
574.395
572.689
571
569.327
567.672
566.032
564.409
562.803
561.212
559.638
558.079
556.537
555.011
553.501
552.008
550.531
549.071
547.629
546.204
544.796
543.407
542.035
540.682
539.347
538.031
536.733
535.455
534.196
532.957
531.738
530.538
529.359
528.201
527.063
525.947
524.851
523.777
522.725
521.695
520.687
519.701
518.738
517.797
516.88
515.986
515.115
514.269
513.445
512.646
511.871
511.121
510.394
509.693
509.015
508.363
507.735
507.133
506.555
506.001
505.473
504.969
504.489
504.034
503.603
503.196
502.812
502.452
502.115
501.8
501.507
501.236
500.985
500.755
500.544
500.353
500.18
500.024
499.886
499.763
499.657
499.565
499.488
499.424
499.374
499.337
499.312
499.3
599.478
594.622
594.1
591.878
589.953
588.128
586.301
584.471
582.652
580.853
579.076
577.316
575.572
573.845
572.134
570.439
568.761
567.099
565.454
563.824
562.211
560.613
559.031
557.464
555.913
554.378
552.859
551.356
549.869
548.399
546.946
545.509
544.09
542.688
541.304
539.938
538.589
537.259
535.947
534.655
533.381
532.126
530.89
529.674
528.478
527.302
526.146
525.01
523.896
522.802
521.729
520.678
519.648
518.641
517.655
516.691
515.75
514.832
513.937
513.065
512.216
511.39
510.588
509.81
509.056
508.326
507.62
506.939
506.282
505.649
505.041
504.458
503.899
503.364
502.854
502.368
501.907
501.469
501.055
500.665
500.298
499.954
499.633
499.334
499.056
498.8
498.564
498.349
498.153
497.977
497.819
497.678
497.555
497.449
497.359
497.285
497.226
497.182
497.153
497.138
599.132
594.162
593.582
591.342
589.414
587.591
585.765
583.932
582.111
580.309
578.528
576.764
575.016
573.284
571.567
569.866
568.181
566.512
564.859
563.222
561.6
559.994
558.403
556.828
555.268
553.724
552.195
550.682
549.184
547.703
546.239
544.79
543.359
541.945
540.547
539.168
537.805
536.461
535.134
533.826
532.536
531.265
530.012
528.779
527.565
526.37
525.195
524.04
522.905
521.791
520.697
519.624
518.572
517.541
516.532
515.544
514.578
513.634
512.713
511.814
510.938
510.084
509.254
508.447
507.663
506.903
506.167
505.454
504.766
504.101
503.461
502.844
502.252
501.684
501.141
500.622
500.126
499.655
499.208
498.785
498.385
498.009
497.656
497.325
497.017
496.732
496.468
496.225
496.004
495.803
495.622
495.461
495.319
495.195
495.09
495.004
494.935
494.883
494.849
494.832
598.348
593.525
593.014
590.788
588.857
587.03
585.203
583.37
581.547
579.742
577.957
576.19
574.438
572.701
570.979
569.272
567.582
565.907
564.248
562.603
560.973
559.359
557.759
556.174
554.604
553.049
551.51
549.986
548.478
546.985
545.509
544.048
542.604
541.177
539.766
538.372
536.996
535.636
534.294
532.97
531.664
530.376
529.106
527.854
526.622
525.408
524.213
523.038
521.882
520.746
519.629
518.533
517.458
516.403
515.369
514.355
513.363
512.393
511.444
510.517
509.612
508.729
507.869
507.031
506.216
505.424
504.655
503.909
503.186
502.487
501.812
501.161
500.533
499.929
499.349
498.793
498.262
497.754
497.27
496.81
496.374
495.961
495.572
495.207
494.865
494.546
494.25
493.976
493.725
493.496
493.288
493.103
492.938
492.795
492.673
492.571
492.49
492.43
492.389
492.369
597.923
593.008
592.454
590.211
588.281
586.459
584.631
582.793
580.967
579.159
577.371
575.599
573.842
572.1
570.373
568.66
566.963
565.281
563.615
561.962
560.325
558.702
557.093
555.499
553.919
552.354
550.804
549.269
547.749
546.245
544.756
543.283
541.826
540.385
538.961
537.553
536.161
534.786
533.428
532.088
530.764
529.459
528.171
526.9
525.648
524.415
523.199
522.003
520.825
519.666
518.527
517.407
516.307
515.227
514.167
513.127
512.108
511.109
510.131
509.175
508.239
507.325
506.433
505.563
504.714
503.888
503.084
502.303
501.545
500.809
500.096
499.407
498.741
498.098
497.479
496.883
496.311
495.763
495.238
494.738
494.261
493.808
493.38
492.975
492.594
492.237
491.904
491.595
491.309
491.048
490.81
490.596
490.405
490.239
490.096
489.977
489.881
489.81
489.762
489.738
597.15
592.353
591.842
589.615
587.686
585.859
584.029
582.191
580.362
578.551
576.758
574.982
573.221
571.474
569.741
568.023
566.321
564.632
562.959
561.3
559.655
558.023
556.406
554.803
553.213
551.638
550.077
548.531
546.999
545.483
543.982
542.496
541.026
539.571
538.132
536.709
535.302
533.911
532.537
531.179
529.839
528.515
527.208
525.918
524.646
523.392
522.155
520.937
519.736
518.554
517.391
516.246
515.121
514.014
512.927
511.859
510.811
509.783
508.775
507.788
506.82
505.874
504.948
504.043
503.16
502.297
501.457
500.638
499.841
499.066
498.313
497.583
496.875
496.19
495.528
494.889
494.273
493.681
493.112
492.566
492.045
491.547
491.074
490.625
490.2
489.8
489.425
489.075
488.75
488.451
488.177
487.93
487.709
487.514
487.347
487.207
487.095
487.01
486.953
486.925
596.689
591.777
591.255
589.021
587.086
585.257
583.425
581.583
579.75
577.935
576.138
574.357
572.59
570.838
569.099
567.374
565.664
563.968
562.287
560.619
558.965
557.325
555.699
554.086
552.487
550.901
549.329
547.772
546.229
544.7
543.186
541.687
540.203
538.734
537.281
535.842
534.419
533.012
531.621
530.246
528.887
527.544
526.218
524.909
523.616
522.34
521.082
519.84
518.616
517.41
516.222
515.052
513.899
512.766
511.65
510.554
509.476
508.417
507.377
506.357
505.356
504.375
503.414
502.473
501.552
500.652
499.772
498.913
498.075
497.258
496.463
495.688
494.936
494.205
493.497
492.811
492.147
491.506
490.888
490.294
489.722
489.175
488.651
488.153
487.678
487.23
486.806
486.409
486.039
485.696
485.381
485.094
484.837
484.61
484.413
484.248
484.115
484.015
483.948
483.914
596.065
591.18
590.634
588.402
586.471
584.638
582.8
580.954
579.118
577.299
575.498
573.712
571.941
570.183
568.438
566.707
564.99
563.288
561.599
559.923
558.26
556.611
554.975
553.352
551.742
550.146
548.563
546.994
545.439
543.897
542.37
540.858
539.36
537.876
536.407
534.953
533.514
532.09
530.681
529.288
527.911
526.549
525.203
523.872
522.558
521.261
519.979
518.714
517.466
516.235
515.021
513.824
512.644
511.482
510.337
509.211
508.102
507.011
505.938
504.884
503.848
502.831
501.833
500.854
499.894
498.953
498.032
497.13
496.249
495.387
494.545
493.724
492.924
492.144
491.385
490.648
489.932
489.238
488.567
487.917
487.291
486.688
486.109
485.554
485.024
484.519
484.041
483.59
483.167
482.773
482.409
482.076
481.776
481.51
481.278
481.083
480.925
480.806
480.726
480.686
595.348
590.513
589.992
587.757
585.824
583.994
582.158
580.309
578.469
576.647
574.842
573.051
571.275
569.511
567.76
566.022
564.299
562.588
560.891
559.207
557.536
555.878
554.233
552.6
550.98
549.372
547.778
546.197
544.629
543.075
541.534
540.008
538.495
536.997
535.512
534.042
532.586
531.145
529.719
528.307
526.91
525.528
524.162
522.81
521.474
520.154
518.849
517.56
516.287
515.03
513.789
512.565
511.356
510.165
508.99
507.832
506.69
505.566
504.459
503.369
502.297
501.242
500.205
499.186
498.185
497.201
496.236
495.29
494.362
493.452
492.562
491.691
490.839
490.006
489.193
488.401
487.628
486.876
486.146
485.436
484.749
484.084
483.442
482.824
482.231
481.663
481.122
480.608
480.124
479.671
479.25
478.862
478.511
478.198
477.924
477.693
477.505
477.362
477.266
477.218
594.767
589.91
589.373
587.133
585.192
583.354
581.51
579.657
577.813
575.985
574.174
572.378
570.596
568.826
567.068
565.324
563.593
561.875
560.17
558.477
556.796
555.128
553.473
551.83
550.199
548.58
546.974
545.381
543.801
542.233
540.679
539.138
537.611
536.097
534.597
533.11
531.637
530.179
528.734
527.303
525.887
524.485
523.097
521.724
520.365
519.022
517.693
516.379
515.08
513.796
512.528
511.275
510.037
508.815
507.608
506.418
505.243
504.084
502.941
501.814
500.704
499.61
498.532
497.471
496.426
495.398
494.387
493.393
492.416
491.456
490.514
489.589
488.681
487.792
486.921
486.068
485.234
484.419
483.624
482.848
482.093
481.36
480.648
479.959
479.294
478.654
478.041
477.456
476.901
476.378
475.889
475.437
475.025
474.655
474.331
474.055
473.83
473.658
473.543
473.485
594.166
589.245
588.704
586.467
584.527
582.687
580.84
578.985
577.138
575.307
573.493
571.693
569.905
568.129
566.366
564.615
562.876
561.15
559.437
557.735
556.046
554.368
552.701
551.046
549.403
547.772
546.154
544.548
542.955
541.374
539.806
538.25
536.708
535.178
533.662
532.158
530.668
529.191
527.728
526.278
524.841
523.418
522.009
520.613
519.232
517.864
516.51
515.171
513.845
512.534
511.238
509.955
508.687
507.434
506.195
504.97
503.761
502.566
501.386
500.221
499.071
497.935
496.815
495.71
494.62
493.545
492.485
491.441
490.412
489.399
488.401
487.419
486.453
485.503
484.569
483.651
482.75
481.867
481
480.152
479.323
478.513
477.723
476.954
476.209
475.487
474.791
474.123
473.485
472.881
472.312
471.783
471.298
470.86
470.473
470.143
469.872
469.665
469.526
469.454
593.423
588.585
588.05
585.803
583.851
582.005
580.155
578.295
576.443
574.607
572.787
570.981
569.188
567.406
565.636
563.879
562.134
560.401
558.679
556.97
555.271
553.584
551.908
550.243
548.59
546.947
545.317
543.698
542.091
540.497
538.914
537.344
535.786
534.241
532.708
531.187
529.679
528.184
526.701
525.231
523.774
522.33
520.898
519.48
518.075
516.683
515.304
513.938
512.585
511.246
509.92
508.607
507.308
506.022
504.75
503.491
502.245
501.013
499.795
498.59
497.398
496.22
495.056
493.905
492.767
491.643
490.533
489.436
488.352
487.282
486.226
485.183
484.154
483.139
482.137
481.15
480.177
479.219
478.275
477.347
476.436
475.541
474.664
473.806
472.969
472.154
471.364
470.6
469.866
469.166
468.503
467.882
467.308
466.787
466.324
465.926
465.598
465.346
465.175
465.09
592.835
587.933
587.366
585.109
583.16
581.313
579.458
577.594
575.738
573.898
572.074
570.263
568.464
566.676
564.899
563.134
561.38
559.638
557.908
556.189
554.481
552.784
551.099
549.424
547.759
546.106
544.463
542.831
541.211
539.603
538.006
536.421
534.847
533.285
531.735
530.197
528.671
527.157
525.655
524.165
522.687
521.221
519.767
518.325
516.896
515.478
514.073
512.681
511.3
509.932
508.576
507.232
505.901
504.582
503.275
501.98
500.698
499.427
498.169
496.923
495.689
494.466
493.256
492.057
490.87
489.695
488.531
487.379
486.238
485.108
483.99
482.883
481.787
480.702
479.628
478.566
477.515
476.476
475.448
474.433
473.431
472.443
471.469
470.511
469.571
468.65
467.751
466.877
466.031
465.218
464.443
463.711
463.03
462.407
461.85
461.367
460.969
460.66
460.45
460.341
592.255
587.286
586.698
584.431
582.469
580.612
578.753
576.884
575.024
573.179
571.349
569.533
567.727
565.933
564.149
562.377
560.617
558.867
557.128
555.4
553.682
551.975
550.278
548.591
546.915
545.249
543.594
541.949
540.316
538.693
537.081
535.481
533.891
532.313
530.746
529.19
527.646
526.112
524.59
523.079
521.58
520.092
518.615
517.149
515.695
514.253
512.821
511.401
509.992
508.594
507.207
505.832
504.468
503.114
501.772
500.441
499.12
497.81
496.511
495.222
493.944
492.675
491.417
490.169
488.93
487.701
486.482
485.272
484.071
482.878
481.695
480.519
479.353
478.194
477.043
475.901
474.766
473.639
472.521
471.411
470.309
469.218
468.136
467.066
466.01
464.968
463.945
462.943
461.967
461.021
460.112