/*--------------------------------*- C++ -*----------------------------------*\
| =========                 |                                                 |
| \\      /  F ield         | OpenFOAM: The Open Source CFD Toolbox           |
|  \\    /   O peration     | Version:  4.1                                   |
|   \\  /    A nd           | Web:      www.OpenFOAM.org                      |
|    \\/     M anipulation  |                                                 |
\*---------------------------------------------------------------------------*/
FoamFile
{
    version     2.0;
    format      ascii;
    class       volScalarField;
    location    "0.051";
    object      pPrime2Mean;
}
// * * * * * * * * * * * * * * * * * * * * * * * * * * * * * * * * * * * * * //

dimensions      [0 4 -4 0 0 0 0];

internalField   nonuniform List<scalar> 
43750
(
7.08402e+09
7.03475e+09
6.98308e+09
6.93171e+09
6.8807e+09
6.83005e+09
6.77977e+09
6.72988e+09
6.68038e+09
6.63126e+09
6.58254e+09
6.53421e+09
6.48627e+09
6.43873e+09
6.39158e+09
6.34483e+09
6.29847e+09
6.25252e+09
6.20695e+09
6.16179e+09
6.11702e+09
6.07265e+09
6.02868e+09
5.98511e+09
5.94194e+09
5.89917e+09
5.85681e+09
5.81484e+09
5.77328e+09
5.73213e+09
5.69138e+09
5.65105e+09
5.61112e+09
5.57161e+09
5.53251e+09
5.49383e+09
5.45557e+09
5.41773e+09
5.38032e+09
5.34333e+09
5.30678e+09
5.27065e+09
5.23497e+09
5.19972e+09
5.16492e+09
5.13057e+09
5.09667e+09
5.06323e+09
5.03024e+09
4.99772e+09
4.96567e+09
4.9341e+09
4.903e+09
4.87239e+09
4.84227e+09
4.81264e+09
4.78352e+09
4.7549e+09
4.7268e+09
4.69921e+09
4.67216e+09
4.64563e+09
4.61965e+09
4.59421e+09
4.56933e+09
4.54501e+09
4.52125e+09
4.49808e+09
4.47548e+09
4.45348e+09
4.43209e+09
4.41129e+09
4.39112e+09
4.37157e+09
4.35265e+09
4.33437e+09
4.31675e+09
4.29978e+09
4.28347e+09
4.26785e+09
4.2529e+09
4.23864e+09
4.22508e+09
4.21223e+09
4.20009e+09
4.18867e+09
4.17797e+09
4.16801e+09
4.15879e+09
4.15032e+09
4.1426e+09
4.13563e+09
4.12943e+09
4.12399e+09
4.11932e+09
4.11543e+09
4.11231e+09
4.10996e+09
4.1084e+09
4.10762e+09
7.08424e+09
7.03472e+09
6.98297e+09
6.93156e+09
6.88053e+09
6.82987e+09
6.77958e+09
6.72968e+09
6.68017e+09
6.63105e+09
6.58233e+09
6.53399e+09
6.48605e+09
6.43851e+09
6.39136e+09
6.34461e+09
6.29825e+09
6.25229e+09
6.20672e+09
6.16156e+09
6.11679e+09
6.07242e+09
6.02844e+09
5.98487e+09
5.9417e+09
5.89893e+09
5.85656e+09
5.81459e+09
5.77303e+09
5.73187e+09
5.69112e+09
5.65078e+09
5.61085e+09
5.57133e+09
5.53223e+09
5.49355e+09
5.45528e+09
5.41744e+09
5.38002e+09
5.34303e+09
5.30647e+09
5.27034e+09
5.23465e+09
5.1994e+09
5.16459e+09
5.13023e+09
5.09633e+09
5.06287e+09
5.02988e+09
4.99736e+09
4.9653e+09
4.93372e+09
4.90261e+09
4.87199e+09
4.84186e+09
4.81223e+09
4.7831e+09
4.75447e+09
4.72636e+09
4.69877e+09
4.6717e+09
4.64517e+09
4.61917e+09
4.59373e+09
4.56883e+09
4.5445e+09
4.52074e+09
4.49755e+09
4.47495e+09
4.45294e+09
4.43153e+09
4.41073e+09
4.39054e+09
4.37098e+09
4.35205e+09
4.33376e+09
4.31613e+09
4.29915e+09
4.28283e+09
4.26719e+09
4.25223e+09
4.23797e+09
4.2244e+09
4.21153e+09
4.19938e+09
4.18795e+09
4.17725e+09
4.16728e+09
4.15806e+09
4.14958e+09
4.14185e+09
4.13488e+09
4.12867e+09
4.12322e+09
4.11855e+09
4.11465e+09
4.11153e+09
4.10919e+09
4.10762e+09
4.10684e+09
7.08399e+09
7.03449e+09
6.98269e+09
6.93125e+09
6.88018e+09
6.8295e+09
6.7792e+09
6.72929e+09
6.67977e+09
6.63064e+09
6.5819e+09
6.53356e+09
6.48562e+09
6.43807e+09
6.39092e+09
6.34416e+09
6.2978e+09
6.25183e+09
6.20626e+09
6.16109e+09
6.11632e+09
6.07194e+09
6.02797e+09
5.98439e+09
5.94121e+09
5.89843e+09
5.85605e+09
5.81408e+09
5.77251e+09
5.73135e+09
5.69059e+09
5.65024e+09
5.61031e+09
5.57078e+09
5.53167e+09
5.49298e+09
5.4547e+09
5.41685e+09
5.37942e+09
5.34242e+09
5.30585e+09
5.26971e+09
5.23401e+09
5.19875e+09
5.16393e+09
5.12956e+09
5.09564e+09
5.06217e+09
5.02917e+09
4.99663e+09
4.96456e+09
4.93296e+09
4.90184e+09
4.8712e+09
4.84106e+09
4.81141e+09
4.78226e+09
4.75361e+09
4.72548e+09
4.69787e+09
4.67079e+09
4.64424e+09
4.61822e+09
4.59276e+09
4.56784e+09
4.54349e+09
4.51971e+09
4.4965e+09
4.47388e+09
4.45184e+09
4.43041e+09
4.40959e+09
4.38938e+09
4.3698e+09
4.35085e+09
4.33254e+09
4.31488e+09
4.29788e+09
4.28154e+09
4.26588e+09
4.2509e+09
4.23662e+09
4.22303e+09
4.21015e+09
4.19798e+09
4.18653e+09
4.17581e+09
4.16583e+09
4.15658e+09
4.14809e+09
4.14035e+09
4.13336e+09
4.12714e+09
4.12169e+09
4.11701e+09
4.1131e+09
4.10998e+09
4.10763e+09
4.10606e+09
4.10528e+09
7.08365e+09
7.03411e+09
6.98225e+09
6.93076e+09
6.87966e+09
6.82894e+09
6.77862e+09
6.72869e+09
6.67915e+09
6.63001e+09
6.58127e+09
6.53292e+09
6.48497e+09
6.43741e+09
6.39025e+09
6.34349e+09
6.29712e+09
6.25115e+09
6.20558e+09
6.1604e+09
6.11562e+09
6.07123e+09
6.02725e+09
5.98366e+09
5.94048e+09
5.89769e+09
5.8553e+09
5.81332e+09
5.77174e+09
5.73057e+09
5.6898e+09
5.64944e+09
5.60949e+09
5.56996e+09
5.53083e+09
5.49213e+09
5.45384e+09
5.41597e+09
5.37853e+09
5.34151e+09
5.30493e+09
5.26877e+09
5.23305e+09
5.19777e+09
5.16294e+09
5.12855e+09
5.09461e+09
5.06112e+09
5.0281e+09
4.99553e+09
4.96344e+09
4.93182e+09
4.90068e+09
4.87002e+09
4.83985e+09
4.81017e+09
4.781e+09
4.75233e+09
4.72417e+09
4.69653e+09
4.66942e+09
4.64284e+09
4.6168e+09
4.5913e+09
4.56636e+09
4.54198e+09
4.51816e+09
4.49492e+09
4.47227e+09
4.4502e+09
4.42874e+09
4.40788e+09
4.38764e+09
4.36803e+09
4.34905e+09
4.3307e+09
4.31301e+09
4.29598e+09
4.27961e+09
4.26392e+09
4.24891e+09
4.23459e+09
4.22097e+09
4.20806e+09
4.19587e+09
4.18439e+09
4.17365e+09
4.16364e+09
4.15437e+09
4.14586e+09
4.1381e+09
4.13109e+09
4.12486e+09
4.11939e+09
4.1147e+09
4.11078e+09
4.10764e+09
4.10529e+09
4.10372e+09
4.10293e+09
7.08317e+09
7.03357e+09
6.98165e+09
6.9301e+09
6.87894e+09
6.82819e+09
6.77784e+09
6.72789e+09
6.67833e+09
6.62918e+09
6.58042e+09
6.53206e+09
6.4841e+09
6.43654e+09
6.38937e+09
6.3426e+09
6.29622e+09
6.25024e+09
6.20466e+09
6.15947e+09
6.11468e+09
6.07029e+09
6.02629e+09
5.9827e+09
5.9395e+09
5.8967e+09
5.8543e+09
5.81231e+09
5.77072e+09
5.72953e+09
5.68875e+09
5.64837e+09
5.60841e+09
5.56886e+09
5.52972e+09
5.49099e+09
5.45269e+09
5.4148e+09
5.37734e+09
5.3403e+09
5.30369e+09
5.26752e+09
5.23177e+09
5.19647e+09
5.16161e+09
5.1272e+09
5.09323e+09
5.05972e+09
5.02667e+09
4.99408e+09
4.96196e+09
4.93031e+09
4.89913e+09
4.86844e+09
4.83824e+09
4.80853e+09
4.77932e+09
4.75062e+09
4.72243e+09
4.69475e+09
4.6676e+09
4.64098e+09
4.6149e+09
4.58937e+09
4.56438e+09
4.53996e+09
4.5161e+09
4.49282e+09
4.47013e+09
4.44802e+09
4.42651e+09
4.40561e+09
4.38533e+09
4.36567e+09
4.34664e+09
4.32826e+09
4.31052e+09
4.29345e+09
4.27704e+09
4.2613e+09
4.24625e+09
4.23189e+09
4.21824e+09
4.20529e+09
4.19305e+09
4.18154e+09
4.17076e+09
4.16072e+09
4.15143e+09
4.14288e+09
4.13509e+09
4.12807e+09
4.12181e+09
4.11632e+09
4.11161e+09
4.10768e+09
4.10453e+09
4.10217e+09
4.10059e+09
4.0998e+09
7.08268e+09
7.03291e+09
6.98087e+09
6.92924e+09
6.87803e+09
6.82723e+09
6.77685e+09
6.72687e+09
6.6773e+09
6.62813e+09
6.57936e+09
6.53099e+09
6.48302e+09
6.43544e+09
6.38826e+09
6.34148e+09
6.29509e+09
6.24911e+09
6.20351e+09
6.15831e+09
6.11351e+09
6.06911e+09
6.0251e+09
5.98149e+09
5.93828e+09
5.89547e+09
5.85305e+09
5.81104e+09
5.76943e+09
5.72823e+09
5.68743e+09
5.64704e+09
5.60706e+09
5.56748e+09
5.52832e+09
5.48958e+09
5.45125e+09
5.41334e+09
5.37585e+09
5.33879e+09
5.30215e+09
5.26595e+09
5.23018e+09
5.19485e+09
5.15996e+09
5.12551e+09
5.09152e+09
5.05797e+09
5.02488e+09
4.99226e+09
4.9601e+09
4.92841e+09
4.8972e+09
4.86647e+09
4.83623e+09
4.80648e+09
4.77723e+09
4.74848e+09
4.72025e+09
4.69253e+09
4.66533e+09
4.63866e+09
4.61253e+09
4.58695e+09
4.56191e+09
4.53744e+09
4.51353e+09
4.4902e+09
4.46745e+09
4.44529e+09
4.42373e+09
4.40278e+09
4.38244e+09
4.36272e+09
4.34364e+09
4.3252e+09
4.30741e+09
4.29028e+09
4.27382e+09
4.25803e+09
4.24293e+09
4.22852e+09
4.21481e+09
4.20181e+09
4.18953e+09
4.17798e+09
4.16716e+09
4.15707e+09
4.14774e+09
4.13916e+09
4.13134e+09
4.12428e+09
4.11799e+09
4.11248e+09
4.10775e+09
4.1038e+09
4.10064e+09
4.09826e+09
4.09668e+09
4.09589e+09
7.08206e+09
7.03204e+09
6.97987e+09
6.92816e+09
6.87689e+09
6.82606e+09
6.77565e+09
6.72564e+09
6.67605e+09
6.62687e+09
6.57808e+09
6.5297e+09
6.48171e+09
6.43413e+09
6.38694e+09
6.34014e+09
6.29374e+09
6.24774e+09
6.20214e+09
6.15693e+09
6.11211e+09
6.06769e+09
6.02367e+09
5.98004e+09
5.93682e+09
5.89399e+09
5.85156e+09
5.80953e+09
5.7679e+09
5.72667e+09
5.68585e+09
5.64544e+09
5.60543e+09
5.56584e+09
5.52665e+09
5.48788e+09
5.44952e+09
5.41159e+09
5.37407e+09
5.33698e+09
5.30031e+09
5.26407e+09
5.22827e+09
5.1929e+09
5.15798e+09
5.12349e+09
5.08946e+09
5.05588e+09
5.02275e+09
4.99008e+09
4.95788e+09
4.92615e+09
4.89489e+09
4.86411e+09
4.83382e+09
4.80402e+09
4.77472e+09
4.74592e+09
4.71763e+09
4.68986e+09
4.6626e+09
4.63588e+09
4.60969e+09
4.58405e+09
4.55896e+09
4.53442e+09
4.51045e+09
4.48705e+09
4.46424e+09
4.44202e+09
4.42039e+09
4.39937e+09
4.37897e+09
4.35919e+09
4.34004e+09
4.32153e+09
4.30368e+09
4.28648e+09
4.26995e+09
4.2541e+09
4.23894e+09
4.22447e+09
4.2107e+09
4.19764e+09
4.18531e+09
4.1737e+09
4.16282e+09
4.15269e+09
4.14331e+09
4.13468e+09
4.12682e+09
4.11973e+09
4.11341e+09
4.10787e+09
4.10311e+09
4.09914e+09
4.09596e+09
4.09357e+09
4.09198e+09
4.09118e+09
7.08078e+09
7.03084e+09
6.97861e+09
6.92684e+09
6.87553e+09
6.82466e+09
6.77422e+09
6.7242e+09
6.67459e+09
6.62539e+09
6.57659e+09
6.52819e+09
6.48019e+09
6.43259e+09
6.38539e+09
6.33858e+09
6.29217e+09
6.24615e+09
6.20053e+09
6.15531e+09
6.11048e+09
6.06604e+09
6.022e+09
5.97836e+09
5.93511e+09
5.89226e+09
5.84981e+09
5.80776e+09
5.76611e+09
5.72486e+09
5.68402e+09
5.64358e+09
5.60354e+09
5.56392e+09
5.5247e+09
5.4859e+09
5.44751e+09
5.40954e+09
5.37199e+09
5.33487e+09
5.29816e+09
5.26189e+09
5.22605e+09
5.19064e+09
5.15567e+09
5.12114e+09
5.08706e+09
5.05343e+09
5.02026e+09
4.98754e+09
4.95529e+09
4.92351e+09
4.8922e+09
4.86137e+09
4.83102e+09
4.80116e+09
4.7718e+09
4.74294e+09
4.71459e+09
4.68675e+09
4.65943e+09
4.63264e+09
4.60638e+09
4.58067e+09
4.55551e+09
4.5309e+09
4.50686e+09
4.48339e+09
4.4605e+09
4.4382e+09
4.4165e+09
4.3954e+09
4.37492e+09
4.35506e+09
4.33584e+09
4.31726e+09
4.29932e+09
4.28205e+09
4.26545e+09
4.24952e+09
4.23428e+09
4.21974e+09
4.2059e+09
4.19278e+09
4.18037e+09
4.1687e+09
4.15776e+09
4.14757e+09
4.13814e+09
4.12946e+09
4.12155e+09
4.11441e+09
4.10805e+09
4.10248e+09
4.09769e+09
4.09369e+09
4.09049e+09
4.08809e+09
4.08649e+09
4.08569e+09
7.07964e+09
7.02943e+09
6.97709e+09
6.92527e+09
6.87393e+09
6.82303e+09
6.77257e+09
6.72253e+09
6.6729e+09
6.62369e+09
6.57487e+09
6.52646e+09
6.47845e+09
6.43084e+09
6.38362e+09
6.3368e+09
6.29037e+09
6.24434e+09
6.19871e+09
6.15346e+09
6.10861e+09
6.06416e+09
6.0201e+09
5.97644e+09
5.93317e+09
5.8903e+09
5.84782e+09
5.80575e+09
5.76407e+09
5.7228e+09
5.68192e+09
5.64145e+09
5.60139e+09
5.56173e+09
5.52248e+09
5.48365e+09
5.44522e+09
5.40722e+09
5.36963e+09
5.33246e+09
5.29571e+09
5.2594e+09
5.22351e+09
5.18806e+09
5.15304e+09
5.11846e+09
5.08433e+09
5.05065e+09
5.01742e+09
4.98465e+09
4.95234e+09
4.9205e+09
4.88913e+09
4.85823e+09
4.82782e+09
4.7979e+09
4.76847e+09
4.73954e+09
4.71111e+09
4.6832e+09
4.65581e+09
4.62894e+09
4.60261e+09
4.57682e+09
4.55157e+09
4.52688e+09
4.50276e+09
4.4792e+09
4.45623e+09
4.43384e+09
4.41206e+09
4.39087e+09
4.3703e+09
4.35036e+09
4.33104e+09
4.31237e+09
4.29435e+09
4.27699e+09
4.2603e+09
4.24429e+09
4.22896e+09
4.21434e+09
4.20042e+09
4.18721e+09
4.17473e+09
4.16298e+09
4.15198e+09
4.14172e+09
4.13222e+09
4.12348e+09
4.11552e+09
4.10833e+09
4.10192e+09
4.09631e+09
4.09148e+09
4.08746e+09
4.08423e+09
4.08181e+09
4.0802e+09
4.07939e+09
7.07797e+09
7.02764e+09
6.97527e+09
6.92343e+09
6.87207e+09
6.82117e+09
6.77069e+09
6.72064e+09
6.671e+09
6.62177e+09
6.57294e+09
6.52452e+09
6.47649e+09
6.42886e+09
6.38163e+09
6.3348e+09
6.28835e+09
6.24231e+09
6.19665e+09
6.15139e+09
6.10652e+09
6.06205e+09
6.01797e+09
5.97428e+09
5.93099e+09
5.88809e+09
5.84559e+09
5.80349e+09
5.76178e+09
5.72048e+09
5.67957e+09
5.63907e+09
5.59897e+09
5.55928e+09
5.51999e+09
5.48112e+09
5.44265e+09
5.4046e+09
5.36697e+09
5.32976e+09
5.29297e+09
5.2566e+09
5.22066e+09
5.18516e+09
5.15009e+09
5.11546e+09
5.08127e+09
5.04753e+09
5.01424e+09
4.9814e+09
4.94903e+09
4.91712e+09
4.88568e+09
4.85471e+09
4.82423e+09
4.79423e+09
4.76472e+09
4.73572e+09
4.70721e+09
4.67922e+09
4.65174e+09
4.62479e+09
4.59837e+09
4.57249e+09
4.54715e+09
4.52237e+09
4.49815e+09
4.4745e+09
4.45143e+09
4.42895e+09
4.40706e+09
4.38578e+09
4.36511e+09
4.34506e+09
4.32565e+09
4.30688e+09
4.28875e+09
4.27129e+09
4.2545e+09
4.23839e+09
4.22297e+09
4.20825e+09
4.19424e+09
4.18095e+09
4.16838e+09
4.15655e+09
4.14546e+09
4.13512e+09
4.12555e+09
4.11675e+09
4.10872e+09
4.10147e+09
4.09502e+09
4.08935e+09
4.08449e+09
4.08043e+09
4.07718e+09
4.07474e+09
4.07311e+09
4.07229e+09
7.07555e+09
7.02539e+09
6.97311e+09
6.92131e+09
6.86997e+09
6.81906e+09
6.76858e+09
6.71852e+09
6.66887e+09
6.61963e+09
6.57079e+09
6.52235e+09
6.47431e+09
6.42667e+09
6.37942e+09
6.33257e+09
6.28611e+09
6.24005e+09
6.19437e+09
6.14909e+09
6.1042e+09
6.0597e+09
6.0156e+09
5.97189e+09
5.92857e+09
5.88564e+09
5.84311e+09
5.80098e+09
5.75924e+09
5.7179e+09
5.67696e+09
5.63642e+09
5.59629e+09
5.55656e+09
5.51723e+09
5.47831e+09
5.4398e+09
5.40171e+09
5.36402e+09
5.32676e+09
5.28992e+09
5.2535e+09
5.21751e+09
5.18194e+09
5.14681e+09
5.11212e+09
5.07787e+09
5.04406e+09
5.01071e+09
4.9778e+09
4.94535e+09
4.91337e+09
4.88185e+09
4.85081e+09
4.82025e+09
4.79017e+09
4.76058e+09
4.73148e+09
4.70289e+09
4.6748e+09
4.64723e+09
4.62019e+09
4.59367e+09
4.56769e+09
4.54225e+09
4.51737e+09
4.49304e+09
4.46929e+09
4.44611e+09
4.42352e+09
4.40152e+09
4.38013e+09
4.35934e+09
4.33919e+09
4.31966e+09
4.30077e+09
4.28254e+09
4.26497e+09
4.24807e+09
4.23185e+09
4.21632e+09
4.20149e+09
4.18737e+09
4.17398e+09
4.16131e+09
4.14939e+09
4.13821e+09
4.12779e+09
4.11813e+09
4.10925e+09
4.10115e+09
4.09384e+09
4.08732e+09
4.08161e+09
4.0767e+09
4.0726e+09
4.06932e+09
4.06685e+09
4.06521e+09
4.06439e+09
7.07246e+09
7.02278e+09
6.97068e+09
6.91895e+09
6.86763e+09
6.81673e+09
6.76625e+09
6.71619e+09
6.66653e+09
6.61728e+09
6.56843e+09
6.51997e+09
6.47192e+09
6.42426e+09
6.377e+09
6.33013e+09
6.28365e+09
6.23756e+09
6.19187e+09
6.14657e+09
6.10165e+09
6.05713e+09
6.013e+09
5.96926e+09
5.92591e+09
5.88296e+09
5.8404e+09
5.79823e+09
5.75646e+09
5.71508e+09
5.6741e+09
5.63352e+09
5.59335e+09
5.55357e+09
5.5142e+09
5.47523e+09
5.43668e+09
5.39853e+09
5.3608e+09
5.32348e+09
5.28658e+09
5.2501e+09
5.21405e+09
5.17842e+09
5.14323e+09
5.10847e+09
5.07414e+09
5.04027e+09
5.00683e+09
4.97385e+09
4.94133e+09
4.90926e+09
4.87766e+09
4.84653e+09
4.81588e+09
4.78571e+09
4.75602e+09
4.72683e+09
4.69814e+09
4.66996e+09
4.64229e+09
4.61513e+09
4.58851e+09
4.56242e+09
4.53687e+09
4.51187e+09
4.48743e+09
4.46356e+09
4.44026e+09
4.41755e+09
4.39543e+09
4.37391e+09
4.35301e+09
4.33273e+09
4.31308e+09
4.29407e+09
4.27571e+09
4.25801e+09
4.24099e+09
4.22465e+09
4.209e+09
4.19405e+09
4.17982e+09
4.16631e+09
4.15353e+09
4.1415e+09
4.13022e+09
4.1197e+09
4.10996e+09
4.10099e+09
4.09281e+09
4.08543e+09
4.07885e+09
4.07307e+09
4.06811e+09
4.06397e+09
4.06065e+09
4.05816e+09
4.0565e+09
4.05567e+09
7.06999e+09
7.02017e+09
6.96807e+09
6.91637e+09
6.86507e+09
6.81418e+09
6.76371e+09
6.71363e+09
6.66397e+09
6.61471e+09
6.56584e+09
6.51738e+09
6.46931e+09
6.42164e+09
6.37436e+09
6.32747e+09
6.28097e+09
6.23486e+09
6.18915e+09
6.14382e+09
6.09888e+09
6.05433e+09
6.01017e+09
5.9664e+09
5.92302e+09
5.88004e+09
5.83744e+09
5.79524e+09
5.75343e+09
5.71201e+09
5.67099e+09
5.63037e+09
5.59015e+09
5.55032e+09
5.5109e+09
5.47189e+09
5.43328e+09
5.39507e+09
5.35728e+09
5.31991e+09
5.28294e+09
5.2464e+09
5.21028e+09
5.17459e+09
5.13932e+09
5.10449e+09
5.07009e+09
5.03613e+09
5.00262e+09
4.96956e+09
4.93695e+09
4.90479e+09
4.8731e+09
4.84188e+09
4.81113e+09
4.78086e+09
4.75107e+09
4.72178e+09
4.69298e+09
4.66469e+09
4.6369e+09
4.60963e+09
4.58289e+09
4.55668e+09
4.53101e+09
4.50589e+09
4.48133e+09
4.45732e+09
4.4339e+09
4.41105e+09
4.3888e+09
4.36715e+09
4.34611e+09
4.32569e+09
4.3059e+09
4.28675e+09
4.26826e+09
4.25042e+09
4.23326e+09
4.21679e+09
4.20101e+09
4.18593e+09
4.17157e+09
4.15793e+09
4.14504e+09
4.13289e+09
4.1215e+09
4.11087e+09
4.10102e+09
4.09196e+09
4.08369e+09
4.07623e+09
4.06957e+09
4.06373e+09
4.05872e+09
4.05453e+09
4.05117e+09
4.04865e+09
4.04697e+09
4.04613e+09
7.06715e+09
7.01735e+09
6.96528e+09
6.91359e+09
6.8623e+09
6.81142e+09
6.76094e+09
6.71087e+09
6.6612e+09
6.61192e+09
6.56305e+09
6.51457e+09
6.46649e+09
6.4188e+09
6.3715e+09
6.32459e+09
6.27807e+09
6.23194e+09
6.1862e+09
6.14085e+09
6.09588e+09
6.05131e+09
6.00712e+09
5.96332e+09
5.9199e+09
5.87688e+09
5.83425e+09
5.79201e+09
5.75016e+09
5.7087e+09
5.66763e+09
5.62696e+09
5.58669e+09
5.54682e+09
5.50734e+09
5.46827e+09
5.4296e+09
5.39134e+09
5.35349e+09
5.31605e+09
5.27902e+09
5.24241e+09
5.20622e+09
5.17045e+09
5.13511e+09
5.1002e+09
5.06572e+09
5.03168e+09
4.99808e+09
4.96492e+09
4.93222e+09
4.89997e+09
4.86818e+09
4.83685e+09
4.806e+09
4.77562e+09
4.74573e+09
4.71632e+09
4.68741e+09
4.65899e+09
4.63109e+09
4.6037e+09
4.57683e+09
4.55049e+09
4.52468e+09
4.49943e+09
4.47472e+09
4.45058e+09
4.42701e+09
4.40403e+09
4.38163e+09
4.35983e+09
4.33864e+09
4.31807e+09
4.29813e+09
4.27884e+09
4.26019e+09
4.24221e+09
4.2249e+09
4.20828e+09
4.19235e+09
4.17713e+09
4.16263e+09
4.14885e+09
4.13582e+09
4.12354e+09
4.11203e+09
4.10129e+09
4.09133e+09
4.08216e+09
4.07379e+09
4.06624e+09
4.0595e+09
4.05359e+09
4.04851e+09
4.04427e+09
4.04087e+09
4.03832e+09
4.03661e+09
4.03576e+09
7.06395e+09
7.01434e+09
6.9623e+09
6.91062e+09
6.85933e+09
6.80845e+09
6.75797e+09
6.70789e+09
6.65821e+09
6.60893e+09
6.56004e+09
6.51155e+09
6.46345e+09
6.41575e+09
6.36843e+09
6.3215e+09
6.27496e+09
6.22881e+09
6.18304e+09
6.13766e+09
6.09267e+09
6.04806e+09
6.00384e+09
5.96e+09
5.91656e+09
5.87349e+09
5.83082e+09
5.78854e+09
5.74664e+09
5.70514e+09
5.66403e+09
5.62331e+09
5.58298e+09
5.54306e+09
5.50353e+09
5.46439e+09
5.42567e+09
5.38734e+09
5.34942e+09
5.31191e+09
5.27481e+09
5.23813e+09
5.20186e+09
5.16601e+09
5.13059e+09
5.09559e+09
5.06102e+09
5.02689e+09
4.9932e+09
4.95995e+09
4.92714e+09
4.89479e+09
4.8629e+09
4.83146e+09
4.8005e+09
4.77e+09
4.73999e+09
4.71046e+09
4.68142e+09
4.65288e+09
4.62484e+09
4.59732e+09
4.57031e+09
4.54383e+09
4.51789e+09
4.49248e+09
4.46763e+09
4.44334e+09
4.41962e+09
4.39647e+09
4.37392e+09
4.35196e+09
4.33061e+09
4.30988e+09
4.28978e+09
4.27032e+09
4.25151e+09
4.23336e+09
4.21589e+09
4.19911e+09
4.18302e+09
4.16764e+09
4.15299e+09
4.13907e+09
4.12589e+09
4.11347e+09
4.10182e+09
4.09094e+09
4.08086e+09
4.07158e+09
4.0631e+09
4.05545e+09
4.04862e+09
4.04263e+09
4.03748e+09
4.03318e+09
4.02973e+09
4.02715e+09
4.02542e+09
4.02455e+09
7.06127e+09
7.01131e+09
6.95917e+09
6.90746e+09
6.85616e+09
6.80528e+09
6.75479e+09
6.70471e+09
6.65502e+09
6.60573e+09
6.55683e+09
6.50832e+09
6.46021e+09
6.41248e+09
6.36515e+09
6.3182e+09
6.27163e+09
6.22546e+09
6.17966e+09
6.13425e+09
6.08923e+09
6.04459e+09
6.00034e+09
5.95647e+09
5.91298e+09
5.86988e+09
5.82716e+09
5.78484e+09
5.74289e+09
5.70134e+09
5.66018e+09
5.61941e+09
5.57903e+09
5.53904e+09
5.49945e+09
5.46026e+09
5.42146e+09
5.38307e+09
5.34508e+09
5.3075e+09
5.27032e+09
5.23356e+09
5.19721e+09
5.16127e+09
5.12576e+09
5.09067e+09
5.05601e+09
5.02178e+09
4.98799e+09
4.95464e+09
4.92173e+09
4.88927e+09
4.85726e+09
4.82571e+09
4.79462e+09
4.76401e+09
4.73386e+09
4.7042e+09
4.67503e+09
4.64635e+09
4.61818e+09
4.59051e+09
4.56335e+09
4.53672e+09
4.51062e+09
4.48507e+09
4.46005e+09
4.4356e+09
4.41171e+09
4.3884e+09
4.36568e+09
4.34355e+09
4.32202e+09
4.30112e+09
4.28084e+09
4.2612e+09
4.24222e+09
4.22389e+09
4.20625e+09
4.18929e+09
4.17302e+09
4.15748e+09
4.14265e+09
4.12857e+09
4.11523e+09
4.10265e+09
4.09085e+09
4.07984e+09
4.06962e+09
4.06021e+09
4.05162e+09
4.04385e+09
4.03693e+09
4.03085e+09
4.02562e+09
4.02126e+09
4.01776e+09
4.01513e+09
4.01338e+09
4.0125e+09
7.05795e+09
7.00797e+09
6.95581e+09
6.90409e+09
6.85279e+09
6.8019e+09
6.75141e+09
6.70131e+09
6.65162e+09
6.60232e+09
6.55341e+09
6.50489e+09
6.45676e+09
6.40901e+09
6.36166e+09
6.31468e+09
6.2681e+09
6.22189e+09
6.17607e+09
6.13063e+09
6.08558e+09
6.0409e+09
5.99661e+09
5.9527e+09
5.90918e+09
5.86604e+09
5.82328e+09
5.7809e+09
5.73891e+09
5.69731e+09
5.65609e+09
5.61526e+09
5.57482e+09
5.53478e+09
5.49512e+09
5.45586e+09
5.417e+09
5.37853e+09
5.34047e+09
5.30281e+09
5.26555e+09
5.2287e+09
5.19227e+09
5.15624e+09
5.12064e+09
5.08545e+09
5.05069e+09
5.01636e+09
4.98246e+09
4.949e+09
4.91597e+09
4.8834e+09
4.85127e+09
4.81959e+09
4.78838e+09
4.75763e+09
4.72736e+09
4.69756e+09
4.66824e+09
4.63942e+09
4.61109e+09
4.58327e+09
4.55596e+09
4.52917e+09
4.5029e+09
4.47718e+09
4.45199e+09
4.42737e+09
4.4033e+09
4.37981e+09
4.3569e+09
4.33459e+09
4.31288e+09
4.29178e+09
4.27132e+09
4.25149e+09
4.23231e+09
4.2138e+09
4.19596e+09
4.17881e+09
4.16236e+09
4.14663e+09
4.13162e+09
4.11736e+09
4.10384e+09
4.0911e+09
4.07914e+09
4.06797e+09
4.0576e+09
4.04805e+09
4.03933e+09
4.03145e+09
4.02441e+09
4.01824e+09
4.01293e+09
4.00849e+09
4.00494e+09
4.00227e+09
4.00048e+09
3.99959e+09
7.05406e+09
7.00429e+09
6.9522e+09
6.9005e+09
6.84921e+09
6.79831e+09
6.74782e+09
6.69772e+09
6.64802e+09
6.5987e+09
6.54978e+09
6.50125e+09
6.4531e+09
6.40534e+09
6.35796e+09
6.31096e+09
6.26435e+09
6.21812e+09
6.17227e+09
6.1268e+09
6.08171e+09
6.037e+09
5.99267e+09
5.94872e+09
5.90516e+09
5.86197e+09
5.81916e+09
5.77674e+09
5.7347e+09
5.69304e+09
5.65176e+09
5.61088e+09
5.57038e+09
5.53026e+09
5.49054e+09
5.45121e+09
5.41227e+09
5.37373e+09
5.33559e+09
5.29784e+09
5.2605e+09
5.22357e+09
5.18704e+09
5.15092e+09
5.11522e+09
5.07993e+09
5.04507e+09
5.01063e+09
4.97661e+09
4.94303e+09
4.90989e+09
4.87719e+09
4.84493e+09
4.81313e+09
4.78178e+09
4.75089e+09
4.72047e+09
4.69053e+09
4.66106e+09
4.63208e+09
4.6036e+09
4.57561e+09
4.54813e+09
4.52117e+09
4.49473e+09
4.46882e+09
4.44346e+09
4.41865e+09
4.39439e+09
4.37071e+09
4.3476e+09
4.32509e+09
4.30318e+09
4.28188e+09
4.26121e+09
4.24118e+09
4.2218e+09
4.20308e+09
4.18503e+09
4.16768e+09
4.15103e+09
4.13509e+09
4.11989e+09
4.10543e+09
4.09173e+09
4.0788e+09
4.06666e+09
4.05532e+09
4.0448e+09
4.03509e+09
4.02623e+09
4.01822e+09
4.01107e+09
4.00479e+09
3.99939e+09
3.99487e+09
3.99125e+09
3.98853e+09
3.98672e+09
3.98581e+09
7.05015e+09
7.00048e+09
6.94842e+09
6.89672e+09
6.84543e+09
6.79453e+09
6.74403e+09
6.69392e+09
6.64421e+09
6.59489e+09
6.54595e+09
6.4974e+09
6.44924e+09
6.40146e+09
6.35406e+09
6.30704e+09
6.2604e+09
6.21414e+09
6.16826e+09
6.12276e+09
6.07763e+09
6.03289e+09
5.98852e+09
5.94453e+09
5.90091e+09
5.85768e+09
5.81482e+09
5.77235e+09
5.73025e+09
5.68854e+09
5.6472e+09
5.60625e+09
5.56569e+09
5.52551e+09
5.48571e+09
5.44631e+09
5.4073e+09
5.36867e+09
5.33045e+09
5.29262e+09
5.25519e+09
5.21816e+09
5.18153e+09
5.14532e+09
5.10951e+09
5.07412e+09
5.03914e+09
5.00458e+09
4.97045e+09
4.93675e+09
4.90348e+09
4.87065e+09
4.83826e+09
4.80632e+09
4.77482e+09
4.74379e+09
4.71322e+09
4.68312e+09
4.65349e+09
4.62435e+09
4.59569e+09
4.56753e+09
4.53988e+09
4.51273e+09
4.48611e+09
4.46001e+09
4.43445e+09
4.40944e+09
4.38499e+09
4.3611e+09
4.33779e+09
4.31506e+09
4.29294e+09
4.27142e+09
4.25054e+09
4.23028e+09
4.21068e+09
4.19174e+09
4.17347e+09
4.1559e+09
4.13903e+09
4.12288e+09
4.10746e+09
4.09279e+09
4.07889e+09
4.06576e+09
4.05343e+09
4.0419e+09
4.0312e+09
4.02133e+09
4.01232e+09
4.00416e+09
3.99688e+09
3.99048e+09
3.98498e+09
3.98038e+09
3.97669e+09
3.97392e+09
3.97207e+09
3.97115e+09
7.04653e+09
6.99659e+09
6.94447e+09
6.89275e+09
6.84145e+09
6.79055e+09
6.74004e+09
6.68993e+09
6.64021e+09
6.59087e+09
6.54192e+09
6.49336e+09
6.44518e+09
6.39737e+09
6.34995e+09
6.30291e+09
6.25624e+09
6.20995e+09
6.16404e+09
6.11851e+09
6.07335e+09
6.02856e+09
5.98415e+09
5.94012e+09
5.89646e+09
5.85317e+09
5.81027e+09
5.76774e+09
5.72558e+09
5.68381e+09
5.64241e+09
5.6014e+09
5.56076e+09
5.52051e+09
5.48064e+09
5.44116e+09
5.40207e+09
5.36336e+09
5.32505e+09
5.28713e+09
5.2496e+09
5.21248e+09
5.17575e+09
5.13943e+09
5.10351e+09
5.06801e+09
5.03292e+09
4.99824e+09
4.96398e+09
4.93015e+09
4.89675e+09
4.86378e+09
4.83125e+09
4.79916e+09
4.76752e+09
4.73633e+09
4.7056e+09
4.67533e+09
4.64554e+09
4.61622e+09
4.58739e+09
4.55904e+09
4.5312e+09
4.50387e+09
4.47704e+09
4.45075e+09
4.42498e+09
4.39976e+09
4.37509e+09
4.35099e+09
4.32745e+09
4.3045e+09
4.28215e+09
4.26041e+09
4.23929e+09
4.2188e+09
4.19896e+09
4.17978e+09
4.16128e+09
4.14346e+09
4.12636e+09
4.10997e+09
4.09433e+09
4.07943e+09
4.06531e+09
4.05196e+09
4.03942e+09
4.0277e+09
4.01681e+09
4.00676e+09
3.99757e+09
3.98926e+09
3.98184e+09
3.97532e+09
3.96971e+09
3.96501e+09
3.96125e+09
3.95842e+09
3.95653e+09
3.95559e+09
7.0421e+09
6.99239e+09
6.9403e+09
6.88859e+09
6.83728e+09
6.78637e+09
6.73586e+09
6.68574e+09
6.63601e+09
6.58666e+09
6.5377e+09
6.48912e+09
6.44092e+09
6.39309e+09
6.34565e+09
6.29858e+09
6.25189e+09
6.20557e+09
6.15962e+09
6.11405e+09
6.06885e+09
6.02403e+09
5.97958e+09
5.9355e+09
5.89179e+09
5.84845e+09
5.80549e+09
5.76291e+09
5.72069e+09
5.67886e+09
5.6374e+09
5.59631e+09
5.55561e+09
5.51528e+09
5.47534e+09
5.43577e+09
5.39659e+09
5.3578e+09
5.3194e+09
5.28138e+09
5.24376e+09
5.20653e+09
5.1697e+09
5.13327e+09
5.09724e+09
5.06161e+09
5.0264e+09
4.9916e+09
4.95721e+09
4.92325e+09
4.8897e+09
4.85659e+09
4.82391e+09
4.79167e+09
4.75987e+09
4.72852e+09
4.69762e+09
4.66718e+09
4.63721e+09
4.60771e+09
4.57869e+09
4.55015e+09
4.52211e+09
4.49457e+09
4.46755e+09
4.44104e+09
4.41505e+09
4.38961e+09
4.36472e+09
4.34038e+09
4.31661e+09
4.29342e+09
4.27083e+09
4.24884e+09
4.22747e+09
4.20673e+09
4.18664e+09
4.1672e+09
4.14845e+09
4.13038e+09
4.11302e+09
4.09639e+09
4.08049e+09
4.06535e+09
4.05099e+09
4.03741e+09
4.02465e+09
4.01271e+09
4.00161e+09
3.99136e+09
3.982e+09
3.97352e+09
3.96594e+09
3.95928e+09
3.95355e+09
3.94875e+09
3.9449e+09
3.94201e+09
3.94008e+09
3.93912e+09
7.03804e+09
6.98812e+09
6.93596e+09
6.88423e+09
6.83291e+09
6.782e+09
6.73148e+09
6.68135e+09
6.63161e+09
6.58225e+09
6.53328e+09
6.48468e+09
6.43646e+09
6.38862e+09
6.34115e+09
6.29405e+09
6.24733e+09
6.20098e+09
6.155e+09
6.1094e+09
6.06416e+09
6.01929e+09
5.97479e+09
5.93067e+09
5.88691e+09
5.84352e+09
5.80051e+09
5.75786e+09
5.71559e+09
5.67369e+09
5.63216e+09
5.591e+09
5.55022e+09
5.50982e+09
5.46979e+09
5.43015e+09
5.39088e+09
5.352e+09
5.3135e+09
5.27538e+09
5.23766e+09
5.20032e+09
5.16338e+09
5.12683e+09
5.09069e+09
5.05494e+09
5.0196e+09
4.98466e+09
4.95014e+09
4.91604e+09
4.88235e+09
4.84909e+09
4.81625e+09
4.78385e+09
4.75188e+09
4.72036e+09
4.68929e+09
4.65867e+09
4.62851e+09
4.59882e+09
4.5696e+09
4.54087e+09
4.51262e+09
4.48487e+09
4.45762e+09
4.43089e+09
4.40468e+09
4.379e+09
4.35386e+09
4.32928e+09
4.30526e+09
4.28182e+09
4.25897e+09
4.23672e+09
4.21509e+09
4.19408e+09
4.17372e+09
4.15402e+09
4.13499e+09
4.11665e+09
4.09902e+09
4.08212e+09
4.06596e+09
4.05055e+09
4.03593e+09
4.02211e+09
4.00909e+09
3.99692e+09
3.98559e+09
3.97514e+09
3.96557e+09
3.95691e+09
3.94916e+09
3.94235e+09
3.93649e+09
3.93158e+09
3.92764e+09
3.92468e+09
3.9227e+09
3.92172e+09
7.03356e+09
6.98358e+09
6.9314e+09
6.87966e+09
6.82834e+09
6.77742e+09
6.7269e+09
6.67677e+09
6.62702e+09
6.57765e+09
6.52867e+09
6.48005e+09
6.43181e+09
6.38395e+09
6.33646e+09
6.28933e+09
6.24258e+09
6.1962e+09
6.15019e+09
6.10454e+09
6.05926e+09
6.01435e+09
5.96981e+09
5.92564e+09
5.88183e+09
5.83838e+09
5.79531e+09
5.7526e+09
5.71027e+09
5.6683e+09
5.6267e+09
5.58547e+09
5.54461e+09
5.50413e+09
5.46402e+09
5.42429e+09
5.38493e+09
5.34595e+09
5.30735e+09
5.26913e+09
5.2313e+09
5.19386e+09
5.1568e+09
5.12014e+09
5.08386e+09
5.04799e+09
5.01252e+09
4.97745e+09
4.94278e+09
4.90853e+09
4.87469e+09
4.84127e+09
4.80827e+09
4.7757e+09
4.74357e+09
4.71187e+09
4.68061e+09
4.6498e+09
4.61945e+09
4.58956e+09
4.56014e+09
4.53119e+09
4.50272e+09
4.47475e+09
4.44727e+09
4.4203e+09
4.39385e+09
4.36793e+09
4.34254e+09
4.3177e+09
4.29342e+09
4.26972e+09
4.24659e+09
4.22407e+09
4.20215e+09
4.18086e+09
4.16022e+09
4.14023e+09
4.12091e+09
4.10228e+09
4.08436e+09
4.06717e+09
4.05072e+09
4.03503e+09
4.02013e+09
4.00603e+09
3.99276e+09
3.98033e+09
3.96876e+09
3.95807e+09
3.94829e+09
3.93942e+09
3.93149e+09
3.92452e+09
3.91851e+09
3.91348e+09
3.90944e+09
3.90641e+09
3.90438e+09
3.90337e+09
7.02875e+09
6.97875e+09
6.9266e+09
6.87488e+09
6.82357e+09
6.77266e+09
6.72214e+09
6.672e+09
6.62225e+09
6.57287e+09
6.52387e+09
6.47524e+09
6.42698e+09
6.37909e+09
6.33157e+09
6.28442e+09
6.23764e+09
6.19123e+09
6.14518e+09
6.09949e+09
6.05417e+09
6.00922e+09
5.96463e+09
5.9204e+09
5.87654e+09
5.83304e+09
5.78991e+09
5.74714e+09
5.70474e+09
5.6627e+09
5.62103e+09
5.57972e+09
5.53879e+09
5.49822e+09
5.45802e+09
5.4182e+09
5.37875e+09
5.33967e+09
5.30097e+09
5.26264e+09
5.2247e+09
5.18714e+09
5.14997e+09
5.11318e+09
5.07678e+09
5.04077e+09
5.00516e+09
4.96995e+09
4.93514e+09
4.90073e+09
4.86674e+09
4.83315e+09
4.79999e+09
4.76725e+09
4.73493e+09
4.70305e+09
4.6716e+09
4.64059e+09
4.61004e+09
4.57994e+09
4.5503e+09
4.52113e+09
4.49244e+09
4.46423e+09
4.43651e+09
4.4093e+09
4.3826e+09
4.35641e+09
4.33076e+09
4.30565e+09
4.2811e+09
4.25711e+09
4.2337e+09
4.21088e+09
4.18867e+09
4.16708e+09
4.14613e+09
4.12583e+09
4.1062e+09
4.08727e+09
4.06904e+09
4.05153e+09
4.03478e+09
4.01879e+09
4.00359e+09
3.9892e+09
3.97564e+09
3.96293e+09
3.9511e+09
3.94016e+09
3.93014e+09
3.92105e+09
3.91292e+09
3.90577e+09
3.8996e+09
3.89444e+09
3.89029e+09
3.88717e+09
3.88509e+09
3.88405e+09
7.02327e+09
6.97361e+09
6.92157e+09
6.86989e+09
6.8186e+09
6.7677e+09
6.71719e+09
6.66705e+09
6.61729e+09
6.5679e+09
6.51888e+09
6.47023e+09
6.42196e+09
6.37405e+09
6.3265e+09
6.27933e+09
6.23251e+09
6.18606e+09
6.13998e+09
6.09425e+09
6.04889e+09
6.00389e+09
5.95925e+09
5.91497e+09
5.87106e+09
5.8275e+09
5.7843e+09
5.74147e+09
5.699e+09
5.65689e+09
5.61514e+09
5.57376e+09
5.53274e+09
5.49209e+09
5.4518e+09
5.41188e+09
5.37234e+09
5.33316e+09
5.29435e+09
5.25592e+09
5.21786e+09
5.18018e+09
5.14288e+09
5.10597e+09
5.06944e+09
5.03329e+09
4.99754e+09
4.96218e+09
4.92722e+09
4.89265e+09
4.8585e+09