/*--------------------------------*- C++ -*----------------------------------*\
| =========                 |                                                 |
| \\      /  F ield         | OpenFOAM: The Open Source CFD Toolbox           |
|  \\    /   O peration     | Version:  4.1                                   |
|   \\  /    A nd           | Web:      www.OpenFOAM.org                      |
|    \\/     M anipulation  |                                                 |
\*---------------------------------------------------------------------------*/
FoamFile
{
    version     2.0;
    format      ascii;
    class       volScalarField;
    location    "0.051";
    object      s;
}
// * * * * * * * * * * * * * * * * * * * * * * * * * * * * * * * * * * * * * //

dimensions      [0 0 0 0 0 0 0];

internalField   nonuniform List<scalar> 
43750
(
1
1
1
1
1
1
1
1
1
1
1
1
1
1
1
0.999998
0.99999
0.999952
0.999787
0.999095
0.996282
0.985178
0.942672
0.786974
0.520115
0.313985
0.175671
0.091664
0.0448259
0.0206278
0.00896274
0.00368755
0.00144019
0.000535075
0.000189472
6.40522e-05
2.07023e-05
6.40574e-06
1.89971e-06
5.40532e-07
1.47696e-07
3.87871e-08
9.79683e-09
2.38146e-09
5.57444e-10
1.25711e-10
2.73238e-11
5.7261e-12
1.15733e-12
2.25654e-13
4.24517e-14
7.70678e-15
1.35024e-15
2.28312e-16
3.72577e-17
5.86741e-18
8.91601e-19
1.30713e-19
1.84842e-20
2.52058e-21
3.3135e-22
4.19759e-23
5.12224e-24
6.01811e-25
6.80413e-26
7.39842e-27
7.73173e-28
7.7602e-29
7.47457e-30
6.90307e-31
6.10704e-32
5.17016e-33
4.18383e-34
3.2323e-35
2.38088e-36
1.66964e-37
1.11296e-38
7.03977e-40
4.21733e-41
2.3879e-42
1.27499e-43
6.40342e-45
3.01665e-46
1.3289e-47
5.45515e-49
2.07855e-50
7.3184e-52
2.36893e-53
7.00801e-55
1.88158e-56
4.5472e-58
9.79282e-60
1.85626e-61
3.04873e-63
4.25031e-65
4.89034e-67
4.45834e-69
3.01938e-71
1.3503e-73
2.98996e-76
1
1
1
1
1
1
1
1
1
1
1
1
1
1
1
0.999998
0.999992
0.999961
0.999826
0.999274
0.997098
0.988809
0.958052
0.846259
0.592087
0.373306
0.217856
0.118356
0.0601382
0.0286985
0.0129098
0.00549213
0.00221581
0.000849863
0.000310528
0.000108289
3.60999e-05
1.15207e-05
3.52418e-06
1.0345e-06
2.91694e-07
7.90754e-08
2.0626e-08
5.18028e-09
1.25352e-09
2.92404e-10
6.57843e-11
1.428e-11
2.99198e-12
6.05263e-13
1.18247e-13
2.23143e-14
4.06805e-15
7.16539e-16
1.21946e-16
2.00523e-17
3.18577e-18
4.88964e-19
7.24916e-20
1.03792e-20
1.43485e-21
1.91463e-22
2.46518e-23
3.06147e-24
3.66547e-25
4.22889e-26
4.69861e-27
5.02438e-28
5.1672e-29
5.10676e-30
4.84592e-31
4.41097e-32
3.84736e-33
3.2119e-34
2.56321e-35
1.95265e-36
1.41782e-37
9.79591e-39
6.42825e-40
3.99831e-41
2.35188e-42
1.30501e-43
6.81182e-45
3.33424e-46
1.52505e-47
6.49217e-49
2.56059e-50
9.30815e-52
3.09975e-53
9.3894e-55
2.56521e-56
6.25664e-58
1.34527e-59
2.50958e-61
3.97796e-63
5.20774e-65
5.40416e-67
4.16623e-69
2.12025e-71
5.33723e-74
1
1
1
1
1
1
1
1
1
1
1
1
1
1
1
0.999998
0.999991
0.999958
0.999815
0.999225
0.996874
0.987782
0.953563
0.828036
0.566953
0.352238
0.202548
0.108515
0.0544217
0.025654
0.0114074
0.00479972
0.00191603
0.00072737
0.000263121
9.086e-05
2.99978e-05
9.48214e-06
2.87316e-06
8.35457e-07
2.33359e-07
6.26673e-08
1.61922e-08
4.02831e-09
9.65505e-10
2.23067e-10
4.97013e-11
1.06839e-11
2.21654e-12
4.43943e-13
8.58601e-14
1.6038e-14
2.89376e-15
5.04391e-16
8.49346e-17
1.38169e-17
2.17134e-18
3.29601e-19
4.83206e-20
6.8403e-21
9.3479e-22
1.23288e-22
1.56873e-23
1.92498e-24
2.27697e-25
2.59489e-26
2.84752e-27
3.00693e-28
3.05338e-29
2.97922e-30
2.79072e-31
2.50733e-32
2.15843e-33
1.77828e-34
1.40041e-35
1.0527e-36
7.54211e-38
5.14159e-39
3.32906e-40
2.04308e-41
1.1858e-42
6.49256e-44
3.34419e-45
1.6154e-46
7.29218e-48
3.06404e-49
1.19295e-50
4.28123e-52
1.40769e-53
4.21063e-55
1.13609e-56
2.73695e-58
5.81327e-60
1.07138e-61
1.67796e-63
2.17062e-65
2.2259e-67
1.69582e-69
8.52874e-72
2.12169e-74
1
1
1
1
1
1
1
1
1
1
1
1
1
1
1
0.999998
0.999991
0.999956
0.999805
0.999172
0.996628
0.986767
0.9497
0.814184
0.553365
0.342794
0.196757
0.105264
0.0527265
0.024826
0.0110263
0.00463356
0.00184721
0.000700224
0.000252902
8.71841e-05
2.87324e-05
9.06485e-06
2.74118e-06
7.95393e-07
2.21674e-07
5.93902e-08
1.53079e-08
3.79853e-09
9.07963e-10
2.09165e-10
4.64585e-11
9.95446e-12
2.05826e-12
4.10799e-13
7.91593e-14
1.47297e-14
2.64702e-15
4.5944e-16
7.70228e-17
1.24716e-17
1.95032e-18
2.94528e-19
4.2945e-20
6.04469e-21
8.21107e-22
1.07611e-22
1.36015e-23
1.65736e-24
1.94597e-25
2.2005e-26
2.39505e-27
2.50745e-28
2.52325e-29
2.43867e-30
2.26167e-31
2.01081e-32
1.71207e-33
1.39437e-34
1.0849e-35
8.05299e-37
5.6944e-38
3.82915e-39
2.44414e-40
1.47787e-41
8.44618e-43
4.55105e-44
2.3056e-45
1.09478e-46
4.85538e-48
2.00332e-49
7.65504e-51
2.69501e-52
8.68904e-54
2.54748e-55
6.73472e-57
1.58919e-58
3.30538e-60
5.96408e-62
9.14347e-64
1.15772e-65
1.16199e-67
8.66495e-70
4.2658e-72
1.03902e-74
1
1
1
1
1
1
1
1
1
1
1
1
1
1
1
0.999998
0.99999
0.999954
0.999798
0.999152
0.996577
0.986651
0.949429
0.813452
0.552605
0.342195
0.196347
0.105013
0.0525873
0.0247553
0.0109931
0.00461915
0.00184138
0.000698013
0.000252118
8.69221e-05
2.865e-05
9.04037e-06
2.73432e-06
7.93578e-07
2.21222e-07
5.92844e-08
1.52849e-08
3.79391e-09
9.0715e-10
2.09058e-10
4.64567e-11
9.95853e-12
2.05995e-12
4.11297e-13
7.92849e-14
1.47584e-14
2.65311e-15
4.6065e-16
7.72506e-17
1.25123e-17
1.95726e-18
2.95656e-19
4.31202e-20
6.07072e-21
8.24803e-22
1.08113e-22
1.36667e-23
1.66543e-24
1.95552e-25
2.21126e-26
2.40657e-27
2.51914e-28
2.53445e-29
2.44874e-30
2.27012e-31
2.01732e-32
1.71657e-33
1.39703e-34
1.08604e-35
8.05346e-37
5.68777e-38
3.81935e-39
2.434e-40
1.46909e-41
8.37895e-43
4.50459e-44
2.27633e-45
1.07789e-46
4.76591e-48
1.95988e-49
7.46209e-51
2.61688e-52
8.402e-54
2.45238e-55
6.45273e-57
1.51507e-58
3.13477e-60
5.62543e-62
8.57555e-64
1.07949e-65
1.07699e-67
7.98219e-70
3.90547e-72
9.45372e-75
1
1
1
1
1
1
1
1
1
1
1
1
1
1
1
0.999998
0.99999
0.999956
0.999808
0.999198
0.996768
0.987351
0.951784
0.820963
0.558394
0.345328
0.197832
0.10567
0.052868
0.0248728
0.0110415
0.00463873
0.0018491
0.000700972
0.000253214
8.73148e-05
2.87857e-05
9.08558e-06
2.74884e-06
7.9807e-07
2.22561e-07
5.96689e-08
1.53912e-08
3.82224e-09
9.14423e-10
2.10858e-10
4.6887e-11
1.00579e-11
2.08209e-12
4.16055e-13
8.0271e-14
1.49554e-14
2.69108e-15
4.67705e-16
7.85145e-17
1.27307e-17
1.99363e-18
3.01496e-19
4.40242e-20
6.20556e-21
8.44184e-22
1.10796e-22
1.40244e-23
1.71133e-24
2.01219e-25
2.27853e-26
2.48334e-27
2.6033e-28
2.62301e-29
2.53812e-30
2.35654e-31
2.09732e-32
1.78737e-33
1.45686e-34
1.13426e-35
8.42346e-37
5.95778e-38
4.00647e-39
2.55691e-40
1.54545e-41
8.82663e-43
4.75167e-44
2.40433e-45
1.13994e-46
5.04645e-48
2.07768e-49
7.91946e-51
2.78023e-52
8.93545e-54
2.61055e-55
6.87503e-57
1.61557e-58
3.34531e-60
6.00763e-62
9.16444e-64
1.15436e-65
1.15239e-67
8.54603e-70
4.18375e-72
1.01333e-74
1
1
1
1
1
1
1
1
1
1
1
1
1
1
1
0.999998
0.999991
0.999958
0.999817
0.999232
0.996899
0.987879
0.953928
0.829288
0.567561
0.351938
0.201871
0.107864
0.0539549
0.0253762
0.0112609
0.00472948
0.00188491
0.000714496
0.000258112
8.90176e-05
2.93547e-05
9.26848e-06
2.80542e-06
8.14923e-07
2.27398e-07
6.10069e-08
1.57481e-08
3.91408e-09
9.37226e-10
2.16323e-10
4.81507e-11
1.034e-11
2.1429e-12
4.28717e-13
8.2818e-14
1.54504e-14
2.78402e-15
4.84569e-16
8.14706e-17
1.32312e-17
2.07552e-18
3.14433e-19
4.59975e-20
6.49615e-21
8.85479e-22
1.16457e-22
1.47728e-23
1.80669e-24
2.12924e-25
2.41686e-26
2.6406e-27
2.77517e-28
2.80346e-29
2.71996e-30
2.53227e-31
2.26003e-32
1.93157e-33
1.57903e-34
1.23309e-35
9.18578e-37
6.51753e-38
4.39704e-39
2.8154e-40
1.70738e-41
9.78463e-43
5.28557e-44
2.68384e-45
1.27696e-46
5.67319e-48
2.34412e-49
8.96736e-51
3.15955e-52
1.01915e-53
2.98838e-55
7.8987e-57
1.86286e-58
3.87129e-60
6.97715e-62
1.06813e-63
1.35017e-65
1.35258e-67
1.00654e-69
4.94443e-72
1.20164e-74
1
1
1
1
1
1
1
1
1
1
1
1
1
1
1
0.999998
0.999992
0.999963
0.999833
0.999281
0.997025
0.988121
0.954159
0.828736
0.566331
0.350985
0.201373
0.107676
0.0539126
0.0253794
0.0112727
0.00473861
0.00189016
0.000717086
0.000259265
8.94917e-05
2.9537e-05
9.33454e-06
2.8281e-06
8.2233e-07
2.29703e-07
6.16926e-08
1.59433e-08
3.96732e-09
9.51159e-10
2.19824e-10
4.89966e-11
1.05365e-11
2.18685e-12
4.38178e-13
8.47804e-14
1.58427e-14
2.85962e-15
4.98617e-16
8.39881e-17
1.36664e-17
2.14806e-18
3.26098e-19
4.78066e-20
6.7667e-21
9.24488e-22
1.21879e-22
1.54988e-23
1.90034e-24
2.24555e-25
2.55587e-26
2.80042e-27
2.95179e-28
2.99095e-29
2.91101e-30
2.71896e-31
2.4348e-32
2.08815e-33
1.71312e-34
1.34272e-35
1.00402e-36
7.15145e-38
4.84394e-39
3.11423e-40
1.89652e-41
1.09152e-42
5.92224e-44
3.02063e-45
1.44381e-46
6.44455e-48
2.67558e-49
1.02853e-50
3.64189e-52
1.18067e-53
3.47972e-55
9.24525e-57
2.19193e-58
4.57944e-60
8.29793e-62
1.27724e-63
1.62335e-65
1.63521e-67
1.2236e-69
6.04412e-72
1.47708e-74
1
1
1
1
1
1
1
1
1
1
1
1
1
1
1
0.999998
0.999991
0.99996
0.999824
0.999253
0.996959
0.988019
0.954159
0.829432
0.567325
0.351753
0.201877
0.107977
0.0540815
0.0254688
0.0113177
0.00476013
0.0018999
0.000721253
0.000260953
9.01405e-05
2.97742e-05
9.41715e-06
2.85556e-06
8.31055e-07
2.32357e-07
6.24661e-08
1.61596e-08
4.02539e-09
9.66146e-10
2.23544e-10
4.98852e-11
1.07409e-11
2.23214e-12
4.47852e-13
8.67724e-14
1.62383e-14
2.93541e-15
5.12626e-16
8.64865e-17
1.40964e-17
2.21946e-18
3.37539e-19
4.95755e-20
7.03049e-21
9.62441e-22
1.27145e-22
1.62033e-23
1.99116e-24
2.35834e-25
2.69073e-26
2.95556e-27
3.12342e-28
3.17338e-29
3.09719e-30
2.90121e-31
2.60577e-32
2.24167e-33
1.84493e-34
1.45079e-35
1.0885e-36
7.7802e-38
5.2887e-39
3.41268e-40
2.08612e-41
1.20529e-42
6.5654e-44
3.36224e-45
1.61374e-46
7.23342e-48
3.016e-49
1.16446e-50
4.14154e-52
1.34871e-53
3.99316e-55
1.06585e-56
2.53882e-58
5.32922e-60
9.70248e-62
1.50058e-63
1.91639e-65
1.93972e-67
1.45847e-69
7.23914e-72
1.77767e-74
1
1
1
1
1
1
1
1
1
1
1
1
1
1
1
0.999998
0.999992
0.999961
0.99983
0.999287
0.997123
0.988758
0.957226
0.841244
0.581073
0.361248
0.207649
0.111118
0.0556483
0.0261969
0.0116378
0.0048936
0.00195303
0.000741515
0.000268368
9.27457e-05
3.06536e-05
9.70255e-06
2.94468e-06
8.57842e-07
2.40112e-07
6.46294e-08
1.67413e-08
4.17624e-09
1.00388e-09
2.3265e-10
5.20059e-11
1.12177e-11
2.33564e-12
4.69547e-13
9.11648e-14
1.70973e-14
3.09767e-15
5.42234e-16
9.1706e-17
1.49851e-17
2.36565e-18
3.6076e-19
5.31369e-20
7.55781e-21
1.03777e-21
1.37524e-22
1.75822e-23
2.16774e-24
2.57616e-25
2.94946e-26
3.25132e-27
3.44855e-28
3.51688e-29
3.44566e-30
3.2404e-31
2.92221e-32
2.52434e-33
2.08642e-34
1.64783e-35
1.24187e-36
8.91691e-38
6.08971e-39
3.94832e-40
2.42532e-41
1.40825e-42
7.70986e-44
3.96876e-45
1.91487e-46
8.62922e-48
3.61757e-49
1.40444e-50
5.02307e-52
1.64507e-53
4.89857e-55
1.31511e-56
3.1509e-58
6.6531e-60
1.21848e-61
1.89576e-63
2.43559e-65
2.48007e-67
1.876e-69
9.36763e-72
2.31421e-74
1
1
1
1
1
1
1
1
1
1
1
1
1
1
1
0.999998
0.999991
0.999959
0.999821
0.999254
0.997
0.988318
0.955721
0.836245
0.576174
0.358644
0.20645
0.110654
0.0555053
0.0261697
0.0116407
0.00490132
0.00195872
0.000744653
0.000269859
9.34043e-05
3.09186e-05
9.80126e-06
2.97907e-06
8.6913e-07
2.43623e-07
6.5669e-08
1.70352e-08
4.25582e-09
1.02455e-09
2.37811e-10
5.3246e-11
1.15047e-11
2.39965e-12
4.83318e-13
9.40224e-14
1.76694e-14
3.20822e-15
5.62852e-16
9.54171e-17
1.56299e-17
2.47376e-18
3.78253e-19
5.58684e-20
7.96928e-21
1.09757e-21
1.45905e-22
1.87147e-23
2.31519e-24
2.76109e-25
3.17275e-26
3.51071e-27
3.73829e-28
3.82784e-29
3.76606e-30
3.55706e-31
3.22211e-32
2.79625e-33
2.32213e-34
1.84296e-35
1.3959e-36
1.00746e-37
6.91684e-39
4.50897e-40
2.78513e-41
1.62638e-42
8.95599e-44
4.63766e-45
2.2512e-46
1.02076e-47
4.30624e-49
1.68251e-50
6.05675e-52
1.99669e-53
5.98535e-55
1.61774e-56
3.90245e-58
8.29675e-60
1.53004e-61
2.39712e-63
3.1013e-65
3.18013e-67
2.42246e-69
1.21814e-71
3.03046e-74
1
1
1
1
1
1
1
1
1
1
1
1
1
1
1
0.999998
0.99999
0.999955
0.9998
0.999165
0.996663
0.987124
0.951687
0.822786
0.56376
0.351402
0.202784
0.109012
0.0548379
0.0259238
0.0115593
0.004877
0.00195237
0.000743354
0.000269739
9.34656e-05
3.09756e-05
9.83209e-06
2.99288e-06
8.7476e-07
2.4566e-07
6.63436e-08
1.72434e-08
4.3163e-09
1.0412e-09
2.42172e-10
5.43364e-11
1.17657e-11
2.45954e-12
4.96512e-13
9.68171e-14
1.8239e-14
3.31999e-15
5.83979e-16
9.9266e-17
1.63058e-17
2.5882e-18
3.96938e-19
5.88099e-20
8.41577e-21
1.16291e-21
1.55121e-22
1.99673e-23
2.47921e-24
2.9679e-25
3.42373e-26
3.80372e-27
4.06717e-28
4.18248e-29
4.1332e-30
3.92163e-31
3.56905e-32
3.11231e-33
2.59745e-34
2.07201e-35
1.57763e-36
1.14476e-37
7.90294e-39
5.181e-40
3.21881e-41
1.8908e-42
1.04753e-43
5.45807e-45
2.66622e-46
1.21676e-47
5.16685e-49
2.03229e-50
7.36568e-52
2.44499e-53
7.38057e-55
2.00902e-56
4.88119e-58
1.0453e-59
1.94184e-61
3.06479e-63
3.99466e-65
4.1269e-67
3.16735e-69
1.60474e-71
4.02253e-74
1
1
1
1
1
1
1
1
1
1
1
1
1
1
1
0.999998
0.99999
0.999953
0.999793
0.999122
0.996437
0.986087
0.947421
0.80713
0.548566
0.340993
0.19668
0.105809
0.0533248
0.0252708
0.0112994
0.00478117
0.00191953
0.000732888
0.000266706
9.26726e-05
3.07929e-05
9.79809e-06
2.98936e-06
8.75532e-07
2.46401e-07
6.66891e-08
1.73723e-08
4.35869e-09
1.05394e-09
2.4574e-10
5.52766e-11
1.20003e-11
2.51529e-12
5.09157e-13
9.95619e-14
1.88102e-14
3.43413e-15
6.059e-16
1.03315e-16
1.70258e-17
2.71148e-18
4.17269e-19
6.20405e-20
8.91039e-21
1.23587e-21
1.65492e-22
2.13872e-23
2.66642e-24
3.20553e-25
3.71399e-26
4.14473e-27
4.4523e-28
4.60033e-29
4.56839e-30
4.35637e-31
3.98522e-32
3.49367e-33
2.93162e-34
2.35165e-35
1.8008e-36
1.31436e-37
9.1282e-39
6.02092e-40
3.76403e-41
2.22518e-42
1.2408e-43
6.50785e-45
3.2004e-46
1.4705e-47
6.28757e-49
2.49043e-50
9.09006e-52
3.03896e-53
9.23967e-55
2.53332e-56
6.19988e-58
1.3374e-59
2.50265e-61
3.97879e-63
5.2238e-65
5.43592e-67
4.20211e-69
2.14425e-71
5.41302e-74
1
1
1
1
1
1
1
1
1
1
1
1
1
1
1
0.999998
0.999991
0.999956
0.999805
0.999169
0.996599
0.986561
0.948629
0.80986
0.549761
0.341106
0.19643
0.105571
0.0531772
0.0251983
0.0112698
0.00477128
0.00191712
0.000732731
0.000266924
9.28466e-05
3.08862e-05
9.83991e-06
3.006e-06
8.8165e-07
2.48528e-07
6.73919e-08
1.75909e-08
4.42298e-09
1.0719e-09
2.5052e-10
5.64914e-11
1.22958e-11
2.58413e-12
5.24551e-13
1.02869e-13
1.94934e-14
3.56994e-15
6.31895e-16
1.08109e-16
1.78776e-17
2.85739e-18
4.41368e-19
6.58778e-20
9.49954e-21
1.32308e-21
1.77934e-22
2.30981e-23
2.89306e-24
3.49468e-25
4.0691e-26
4.56434e-27
4.92906e-28
5.12086e-29
5.11409e-30
4.90523e-31
4.51434e-32
3.9821e-33
3.36283e-34
2.7153e-35
2.09334e-36
1.53851e-37
1.07612e-38
7.15004e-40
4.50348e-41
2.68281e-42
1.50776e-43
7.97166e-45
3.9525e-46
1.83131e-47
7.89723e-49
3.15522e-50
1.16185e-51
3.91917e-53
1.20246e-54
3.32735e-56
8.21933e-58
1.78979e-59
3.38115e-61
5.4272e-63
7.19447e-65
7.55955e-67
5.90091e-69
3.04066e-71
7.75152e-74
1
1
1
1
1
1
1
1
1
1
1
1
1
1
1
0.999998
0.999991
0.999958
0.999813
0.999213
0.996812
0.987475
0.952088
0.821603
0.559003
0.346217
0.198942
0.106728
0.0536882
0.0254175
0.0113619
0.0048093
0.00193256
0.000738904
0.000269354
9.37754e-05
3.12291e-05
9.96169e-06
3.04754e-06
8.95157e-07
2.52704e-07
6.86205e-08
1.79377e-08
4.51706e-09
1.09646e-09
2.567e-10
5.79922e-11
1.26476e-11
2.66374e-12
5.41947e-13
1.06539e-13
2.02408e-14
3.71692e-15
6.598e-16
1.13223e-16
1.87826e-17
3.01197e-18
4.66852e-19
6.99328e-20
1.01221e-20
1.4153e-21
1.91112e-22
2.49135e-23
3.13415e-24
3.80315e-25
4.44921e-26
5.01518e-27
5.44343e-28
5.68499e-29
5.70838e-30
5.50606e-31
5.09676e-32
4.52286e-33
3.84318e-34
3.12299e-35
2.4235e-36
1.79324e-37
1.26303e-38
8.45206e-40
5.36271e-41
3.21875e-42
1.82293e-43
9.71414e-45
4.85534e-46
2.26815e-47
9.86321e-49
3.97439e-50
1.47621e-51
5.02352e-53
1.55507e-54
4.34204e-56
1.08239e-57
2.3787e-59
4.53546e-61
7.34806e-63
9.83221e-65
1.04283e-66
8.21678e-69
4.27378e-71
1.09973e-73
1
1
1
1
1
1
1
1
1
1
1
1
1
1
1
0.999998
0.999991
0.99996
0.999824
0.999268
0.997057
0.9885
0.956186
0.837189
0.576316
0.358171
0.20603
0.110488
0.055523
0.0262556
0.0117246
0.00495909
0.00199189
0.000761491
0.000277626
9.66951e-05
3.22231e-05
1.02883e-05
3.15114e-06
9.26844e-07
2.62047e-07
7.12787e-08
1.86674e-08
4.71038e-09
1.14589e-09
2.68885e-10
6.08885e-11
1.33116e-11
2.81068e-12
5.73335e-13
1.13014e-13
2.15315e-14
3.96547e-15
7.0606e-16
1.21545e-16
2.02296e-17
3.25515e-18
5.06351e-19
7.61323e-20
1.10622e-20
1.553e-21
2.10586e-22
2.75721e-23
3.48435e-24
4.24804e-25
4.99398e-26
5.65781e-27
6.17322e-28
6.48228e-29
6.54565e-30
6.35048e-31
5.91387e-32
5.28065e-33
4.51595e-34
3.69403e-35
2.88624e-36
2.15068e-37
1.52577e-38
1.02863e-39
6.57649e-41
3.97827e-42
2.27122e-43
1.22028e-44
6.15067e-46
2.89802e-47
1.2713e-48
5.16858e-50
1.93726e-51
6.6535e-53
2.07899e-54
5.86013e-56
1.47488e-57
3.27273e-59
6.30121e-61
1.03094e-62
1.39312e-64
1.49223e-66
1.18745e-68
6.23756e-71
1.62095e-73
1
1
1
1
1
1
1
1
1
1
1
1
1
1
1
0.999998
0.999991
0.999959
0.999822
0.999263
0.997054
0.988569
0.956722
0.8399
0.580778
0.362305
0.209162
0.112512
0.0566815
0.0268585
0.0120148
0.00508977
0.00204735
0.00078379
0.000286151
9.98033e-05
3.33064e-05
1.06499e-05
3.26686e-06
9.62417e-07
2.72565e-07
7.42729e-08
1.94888e-08
4.9276e-09
1.2013e-09
2.82534e-10
6.41357e-11
1.4058e-11
2.97641e-12
6.089e-13
1.2039e-13
2.30097e-14
4.25185e-15
7.59688e-16
1.31252e-16
2.19279e-17
3.54233e-18
5.53281e-19
8.3543e-20
1.21927e-20
1.71957e-21
2.34285e-22
3.08266e-23
3.91557e-24
4.79909e-25
5.67277e-26
6.46333e-27
7.09355e-28
7.49391e-29
7.61462e-30
7.4354e-31
6.97045e-32
6.26698e-33
5.39749e-34
4.44742e-35
3.50104e-36
2.62899e-37
1.87995e-38
1.27778e-39
8.23793e-41
5.02622e-42
2.89483e-43
1.56939e-44
7.98345e-46
3.79712e-47
1.6818e-48
6.90487e-50
2.61404e-51
9.06967e-53
2.86343e-54
8.1565e-56
2.07483e-57
4.65399e-59
9.05907e-61
1.4986e-62
2.04776e-64
2.2182e-66
1.78518e-68
9.48428e-71
2.49288e-73
1
1
1
1
1
1
1
1
1
1
1
1
1
1
1
0.999998
0.999991
0.99996
0.999824
0.999267
0.99706
0.988566
0.956691
0.839832
0.581058
0.362954
0.209875
0.113095
0.0570942
0.0271097
0.0121512
0.00515759
0.00207868
0.00079736
0.000291692
0.000101946
3.40935e-05
1.09253e-05
3.35889e-06
9.91827e-07
2.81569e-07
7.69174e-08
2.02348e-08
5.12993e-09
1.25411e-09
2.95807e-10
6.7351e-11
1.4809e-11
3.14564e-12
6.45703e-13
1.28117e-13
2.45764e-14
4.55865e-15
8.17727e-16
1.4186e-16
2.3801e-17
3.86189e-18
6.05953e-19
9.19296e-20
1.34826e-20
1.91113e-21
2.61751e-22
3.46274e-23
4.42304e-24
5.45248e-25
6.48369e-26
7.43289e-27
8.20963e-28
8.72994e-29
8.93058e-30
8.78115e-31
8.29105e-32
7.50923e-33
6.51635e-34
5.41106e-35
4.29356e-36
3.25043e-37
2.34375e-38
1.60663e-39
1.04484e-40
6.43169e-42
3.73791e-43
2.04517e-44
1.05014e-45
5.04232e-47
2.2549e-48
9.34841e-50
3.57415e-51
1.25249e-52
3.9942e-54
1.14932e-55
2.95356e-57
6.69329e-59
1.31635e-60
2.20021e-62
3.0378e-64
3.32502e-66
2.70395e-68
1.45159e-70
3.85547e-73
1
1
1
1
1
1
1
1
1
1
1
1
1
1
1
0.999998
0.999992
0.999962
0.99983
0.999281
0.997073
0.9885
0.956208
0.837825
0.579191
0.362111
0.209603
0.113066
0.0571334
0.0271605
0.0121941
0.00518441
0.00209294
0.000804195
0.00029472
0.000103201
3.45841e-05
1.11068e-05
3.42261e-06
1.01313e-06
2.88362e-07
7.89879e-08
2.08389e-08
5.29893e-09
1.29949e-09
3.07516e-10
7.02568e-11
1.55032e-11
3.30541e-12
6.81142e-13
1.35698e-13
2.61409e-14
4.87025e-15
8.77636e-16
1.52981e-16
2.57946e-17
4.20701e-18
6.63651e-19
1.01245e-19
1.49347e-20
2.12969e-21
2.93502e-22
3.90786e-23
5.02497e-24
6.23739e-25
7.47016e-26
8.62719e-27
9.60165e-28
1.02909e-28
1.06133e-29
1.05236e-30
1.00225e-31
9.15859e-33
8.02082e-34
6.72344e-35
5.38686e-36
4.1189e-37
3.00045e-38
2.07842e-39
1.36623e-40
8.50259e-42
4.99699e-43
2.76539e-44
1.43651e-45
6.97915e-47
3.15848e-48
1.32533e-49
5.12903e-51
1.81945e-52
5.87365e-54
1.7109e-55
4.45047e-57
1.02078e-58
2.03158e-60
3.43571e-62
4.79846e-64
5.31142e-66
4.36668e-68
2.36912e-70
6.35705e-73
1
1
1
1
1
1
1
1
1
1
1
1
1
1
1
0.999998
0.999991
0.99996
0.999822
0.999253
0.996978
0.988156
0.954927
0.833071
0.573987
0.358866
0.207945
0.112391
0.0569145
0.0271129
0.0121939
0.00519348
0.00210032
0.000808436
0.000296797
0.000104115
3.49542e-05
1.12469e-05
3.47259e-06
1.03003e-06
2.93802e-07
8.06593e-08
2.13302e-08
5.43733e-09
1.33691e-09
3.17237e-10
7.26862e-11
1.60876e-11
3.44086e-12
7.11404e-13
1.42219e-13
2.74967e-14
5.14236e-15
9.30365e-16
1.62849e-16
2.75781e-17
4.51843e-18
7.16177e-19
1.09803e-19
1.62815e-20
2.33437e-21
3.23538e-22
4.33332e-23
5.60653e-24
7.00419e-25
8.44498e-26
9.82141e-27
1.10106e-27
1.18908e-28
1.23605e-29
1.2357e-30
1.18694e-31
1.09429e-32
9.67212e-34
8.18552e-35
6.6237e-36
5.117e-37
3.76752e-38
2.63882e-39
1.75459e-40
1.105e-41
6.57451e-43
3.68505e-44
1.93964e-45
9.55318e-47
4.38494e-48
1.86711e-49
7.33611e-51
2.64359e-52
8.67396e-54
2.56926e-55
6.79934e-57
1.5873e-58
3.21657e-60
5.54066e-62
7.88435e-64
8.89416e-66
7.45363e-68
4.1228e-70
1.12796e-72
1
1
1
1
1
1
1
1
1
1
1
1
1
1
1
0.999998
0.999992
0.999962
0.999832
0.999296
0.997157
0.988842
0.957359
0.841315
0.581963
0.363235
0.210092
0.113361
0.0573463
0.0273072
0.012283
0.0052352
0.00211964
0.000817076
0.000300453
0.000105583
3.55163e-05
1.14521e-05
3.54401e-06
1.05375e-06
3.01329e-07
8.2946e-08
2.19961e-08
5.62343e-09
1.38688e-09
3.30142e-10
7.58934e-11
1.68554e-11
3.618e-12
7.50816e-13
1.50678e-13
2.92493e-14
5.49291e-15
9.98075e-16
1.75482e-16
2.98551e-17
4.91494e-18
7.82889e-19
1.20647e-19
1.79843e-20
2.59266e-21
3.61372e-22
4.86837e-23
6.33684e-24
7.96593e-25
9.66633e-26
1.13164e-26
1.27734e-27
1.38916e-28
1.4545e-29
1.46492e-30
1.4179e-31
1.31751e-32
1.17391e-33
1.0017e-34
8.17429e-36
6.36951e-37
4.7311e-38
3.34351e-39
2.24348e-40
1.42599e-41
8.56393e-43
4.8456e-44
2.57482e-45
1.28029e-46
5.93275e-48
2.55021e-49
1.01147e-50
3.67875e-52
1.2186e-53
3.64602e-55
9.75149e-57
2.30182e-58
4.71875e-60
8.22655e-62
1.18533e-63
1.35452e-65
1.15037e-67
6.45098e-70
1.79004e-72
1
1
1
1
1
1
1
1
1
1
1
1
1
1
1
0.999998
0.999991
0.999959
0.999822
0.99926
0.997051
0.988625
0.957148
0.841992
0.584545
0.366246
0.212601
0.115052
0.058328
0.0278209
0.0125324
0.00534893
0.00216893
0.000837477
0.000308542
0.000108648
3.66235e-05
1.18341e-05
3.67039e-06
1.0939e-06
3.13596e-07
8.65527e-08
2.30173e-08
5.90209e-09
1.46019e-09
3.48751e-10
8.04523e-11
1.79338e-11
3.86439e-12
8.05209e-13
1.62283e-13
3.16428e-14
5.97019e-15
1.0901e-15
1.92642e-16
3.29496e-17
5.45459e-18
8.73895e-19
1.35486e-19
2.03237e-20
2.94913e-21
4.13863e-22
5.61509e-23
7.3627e-24
9.3264e-25
1.14072e-25
1.34646e-26
1.53283e-27
1.68181e-28
1.77711e-29
1.80691e-30
1.76617e-31
1.65789e-32
1.4928e-33
1.28774e-34
1.06273e-35
8.37766e-37
6.29776e-38
4.50608e-39
3.06237e-40
1.97225e-41
1.20059e-42
6.88833e-44
3.713e-45
1.87352e-46
8.81327e-48
3.84715e-49
1.55002e-50
5.7285e-52
1.92749e-53
5.85328e-55
1.58774e-56
3.79847e-58
7.88694e-60
1.3918e-61
2.02874e-63
2.34403e-65
2.01182e-67
1.1396e-69
3.19381e-72
1
1
1
1
1
1
1
1
1
1
1
1
1
1
1
0.999998
0.999991
0.999959
0.999819
0.999245
0.996983
0.988349
0.956244
0.839311
0.582493
0.365675
0.212667
0.115326
0.0586016
0.0280195
0.0126521
0.0054123
0.00219935
0.000850988
0.000314163
0.00011086
3.74517e-05
1.21301e-05
3.77136e-06
1.12686e-06
3.23902e-07
8.96451e-08
2.39088e-08
6.14924e-09
1.52616e-09
3.65713e-10
8.46573e-11
1.89394e-11
4.0965e-12
8.56939e-13
1.7342e-13
3.39595e-14
6.43597e-15
1.18064e-15
2.09655e-16
3.60413e-17
5.99786e-18
9.66213e-19
1.50656e-19
2.27338e-20
3.31928e-21
4.68808e-22
6.40317e-23
8.45452e-24
1.07869e-24
1.32928e-25
1.58129e-26
1.81474e-27
2.00788e-28
2.14017e-29
2.19574e-30
2.16635e-31
2.05327e-32
1.8674e-33
1.62763e-34
1.35769e-35
1.08218e-36
8.2286e-38
5.95749e-39
4.09839e-40
2.67288e-41
1.64835e-42
9.58496e-44
5.23858e-45
2.68139e-46
1.28017e-47
5.67447e-49
2.32288e-50
8.72774e-52
2.98798e-53
9.24039e-55
2.55445e-56
6.23184e-58
1.3201e-59
2.37744e-61
3.53729e-63
4.1719e-65
3.65453e-67
2.11227e-69
6.03532e-72
1
1
1
1
1
1
1
1
1
1
1
1
1
1
1
0.999998
0.999991
0.99996
0.999824
0.999267
0.997058
0.988573
0.956813
0.840705
0.583852
0.366613
0.213378
0.115871
0.0589698
0.0282434
0.0127764
0.00547605
0.00222979
0.000864609
0.00031991
0.000113155
3.83222e-05
1.24445e-05
3.87971e-06
1.16255e-06
3.35162e-07
9.30512e-08
2.48981e-08
6.4255e-09
1.60038e-09
3.84921e-10
8.94483e-11
2.0092e-11
4.36409e-12
9.16924e-13
1.86409e-13
3.66771e-14
6.98555e-15
1.28808e-15
2.29968e-16
3.97546e-17
6.65437e-18
1.07846e-18
1.69215e-19
2.5701e-20
3.77793e-21
5.37336e-22
7.39261e-23
9.83462e-24
1.26459e-24
1.57097e-25
1.88445e-26
2.18141e-27
2.43518e-28
2.61964e-29
2.71334e-30
2.70341e-31
2.58833e-32
2.37865e-33
2.09554e-34
1.7673e-35
1.42464e-36
1.09581e-37
8.02757e-39
5.58904e-40
3.68962e-41
2.3035e-42
1.3561e-43
7.50372e-45
3.88823e-46
1.87896e-47
8.42799e-49
3.48996e-50
1.32583e-51
4.59242e-53
1.43795e-54
4.02784e-56
9.96448e-58
2.1422e-59
3.91858e-61
5.92664e-63
7.11116e-65
6.34245e-67
3.73532e-69
1.0886e-71
1
1
1
1
1
1
1
1
1
1
1
1
1
1
1
0.999998
0.999992
0.999962
0.999831
0.999291
0.997131
0.988779
0.957382
0.842326
0.585572
0.367841
0.214226
0.116411
0.0593304
0.0284683
0.0129035
0.0055423
0.00226196
0.000879245
0.000326175
0.000115687
3.9292e-05
1.27974e-05
4.00208e-06
1.20306e-06
3.47993e-07
9.6946e-08
2.60328e-08
6.74314e-09
1.68593e-09
4.07108e-10
9.4994e-11
2.14289e-11
4.67513e-12
9.86802e-13
2.01575e-13
3.98583e-14
7.63069e-15
1.41461e-15
2.53968e-16
4.41588e-17
7.43629e-18
1.21277e-18
1.91536e-19
2.92895e-20
4.33597e-21
6.21258e-22
8.61286e-23
1.15496e-23
1.49745e-24
1.87635e-25
2.27102e-26
2.65351e-27
2.99106e-28
3.25022e-29
3.40197e-30
3.42672e-31
3.31833e-32
3.0858e-33
2.75224e-34
2.35116e-35
1.92088e-36
1.49837e-37
1.11386e-38
7.8751e-40
5.28329e-41
3.35492e-42
2.01079e-43
1.1338e-44
5.99236e-46
2.95627e-47
1.35494e-48
5.73802e-50
2.23121e-51
7.90279e-53
2.52763e-54
7.22443e-56
1.82167e-57
3.98725e-59
7.41724e-61
1.1395e-62
1.38712e-64
1.25357e-66
7.47124e-69
2.20027e-71
1
1
1
1
1
1
1
1
1
1
1
1
1
1
1
0.999998
0.999991
0.999958
0.999814
0.999216
0.996851
0.98786
0.954656
0.834512
0.579336
0.365317
0.213396
0.116223
0.059324
0.0285148
0.0129563
0.00557875
0.00228246
0.000889426
0.000330799
0.000117641
4.00681e-05
1.30888e-05
4.10598e-06
1.23834e-06
3.59427e-07
1.0049e-07
2.70855e-08
7.04315e-09
1.76808e-09
4.28742e-10
1.0048e-10
2.27694e-11
4.99105e-12
1.05865e-12
2.17354e-13
4.32059e-14
8.31701e-15
1.55063e-15
2.80034e-16
4.89897e-17
8.30222e-18
1.36291e-18
2.16714e-19
3.33734e-20
4.97659e-21
7.18425e-22
1.00376e-22
1.35684e-23
1.77381e-24
2.24167e-25
2.73713e-26
3.22715e-27
3.67162e-28
4.02799e-29
4.25744e-30
4.33149e-31
4.23751e-32
3.98173e-33
3.58901e-34
3.09893e-35
2.55924e-36
2.01803e-37
1.51647e-38
1.08371e-39
7.34756e-41
4.71391e-42
2.85339e-43
1.62631e-44
8.69577e-46
4.34385e-47
2.01768e-48
8.66746e-50
3.42191e-51
1.23245e-52
4.01417e-54
1.16996e-55
3.01217e-57
6.73992e-59
1.28323e-60
2.01997e-62
2.52226e-64
2.34064e-66
1.43392e-68
4.34569e-71
1
1
1
1
1
1
1
1
1
1
1
1
1
1
1
0.999998
0.999991
0.999958
0.999816
0.999226
0.996871
0.987793
0.953826
0.830008
0.573649
0.361211
0.211183
0.11531
0.0590418
0.028457
0.0129593
0.00559342
0.00229418
0.000896317
0.000334261
0.000119207
4.07209e-05
1.33432e-05
4.1994e-06
1.27086e-06
3.702e-07
1.03897e-07
2.81163e-08
7.3421e-09
1.8513e-09
4.51011e-10
1.06212e-10
2.41905e-11
5.33054e-12
1.13687e-12
2.34743e-13
4.69389e-14
9.09121e-15
1.70582e-15
3.10111e-16
5.46274e-17
9.32447e-18
1.54224e-18
2.47153e-19
3.83724e-20
5.77088e-21
8.4051e-22
1.18524e-22
1.6177e-23
2.13625e-24
2.72822e-25
3.36793e-26
4.01656e-27
4.62462e-28
5.13705e-29
5.50068e-30
5.67274e-31
5.62871e-32
5.36762e-33
4.91333e-34
4.3112e-35
3.62068e-36
2.90552e-37
2.22377e-38
1.6199e-39
1.12053e-40
7.34131e-42
4.54244e-43
2.64398e-44
1.44261e-45
7.34882e-47
3.47905e-48
1.52256e-49
6.12187e-51
2.24518e-52
7.44488e-54
2.2083e-55
5.78313e-57
1.3153e-58
2.54312e-60
4.06086e-62
5.13684e-64
4.83043e-66
3.00318e-68
9.24871e-71
1
1
1
1
1
1
1
1
1
1
1
1
1
1
1
0.999998
0.999991
0.99996
0.999827
0.999274
0.997057
0.988411
0.955617
0.834978
0.57723
0.362772
0.211776
0.115539
0.0591559
0.0285281
0.0130048
0.00562138
0.00230944
0.000903869
0.000337702
0.000120667
4.13034e-05
1.35632e-05
4.27837e-06
1.29788e-06
3.79032e-07
1.06662e-07
2.89464e-08
7.58158e-09
1.91777e-09
4.68782e-10
1.10794e-10
2.53306e-11
5.60455e-12
1.20051e-12
2.49031e-13
5.00406e-14
9.74236e-15
1.83802e-15
3.36075e-16
5.95597e-17
1.02309e-17
1.70338e-18
2.74868e-19
4.29836e-20
6.51303e-21
9.56043e-22
1.35917e-22
1.87087e-23
2.49243e-24
3.21242e-25
4.00366e-26
4.82232e-27
5.6099e-28
6.29864e-29
6.82002e-30
7.11517e-31
7.14523e-32
6.89921e-33
6.39738e-34
5.68898e-35
4.8444e-36
3.94355e-37
3.06313e-38
2.26554e-39
1.59183e-40
1.05976e-41
6.66575e-43
3.94798e-44
2.19366e-45
1.13867e-46
5.49497e-48
2.4517e-49
1.0049e-50
3.75579e-52
1.27024e-53
3.85003e-55
1.03214e-56
2.40742e-58
4.78219e-60
7.85938e-62
1.0251e-63
9.93371e-66
6.35095e-68
2.00795e-70
1
1
1
1
1
1
1
1
1
1
1
1
1
1
1
0.999998
0.999992
0.999962
0.999832
0.999302
0.997216
0.98922
0.959249
0.849115
0.592978
0.372207
0.216817
0.117993
0.0602902
0.0290409
0.0132328
0.00572089
0.00235244
0.000922077
0.000345187
0.000123634
4.24309e-05
1.39731e-05
4.42099e-06
1.34544e-06
3.94251e-07
1.11339e-07
3.03287e-08
7.97474e-09
2.02549e-09
4.97228e-10
1.1804e-10
2.71121e-11
6.0275e-12
1.29752e-12
2.70543e-13
5.46537e-14
1.06995e-14
2.03023e-15
3.73442e-16
6.65942e-17
1.15134e-17
1.92986e-18
3.13603e-19
4.94e-20
7.54235e-21
1.11592e-21
1.59959e-22
2.22073e-23
2.98502e-24
3.88316e-25
4.88654e-26
5.94513e-27
6.98873e-28
7.93253e-29
8.68689e-30
9.1702e-31
9.32254e-32
9.11722e-33
8.56726e-34
7.72492e-35
6.67383e-36
5.51532e-37
4.35194e-38
3.27211e-39
2.3389e-40
1.58536e-41
1.01609e-42
6.13789e-44
3.48176e-45
1.84698e-46
9.11897e-48
4.16763e-49
1.75205e-50
6.72409e-52
2.33328e-53
7.23937e-55
1.98233e-56
4.71263e-58
9.52389e-60
1.59481e-61
2.1227e-63
2.10298e-65
1.37673e-67
4.46146e-70
1
1
1
1
1
1
1
1
1
1
1
1
1
1
1
0.999998
0.999992
0.999962
0.999835
0.999311
0.997237
0.989285
0.959575
0.850992
0.597503
0.377225
0.220864
0.120673
0.0618422
0.0298559
0.0136288
0.00590122
0.00243027
0.000954122
0.000357823
0.000128416
4.41715e-05
1.4583e-05
4.62676e-06
1.4123e-06
4.15183e-07
1.17656e-07
3.21672e-08
8.491e-09