/*--------------------------------*- C++ -*----------------------------------*\
| =========                 |                                                 |
| \\      /  F ield         | OpenFOAM: The Open Source CFD Toolbox           |
|  \\    /   O peration     | Version:  4.1                                   |
|   \\  /    A nd           | Web:      www.OpenFOAM.org                      |
|    \\/     M anipulation  |                                                 |
\*---------------------------------------------------------------------------*/
FoamFile
{
    version     2.0;
    format      ascii;
    class       volScalarField;
    location    "0.051";
    object      s_0;
}
// * * * * * * * * * * * * * * * * * * * * * * * * * * * * * * * * * * * * * //

dimensions      [0 0 0 0 0 0 0];

internalField   nonuniform List<scalar> 
43750
(
1
1
1
1
1
1
1
1
1
1
1
1
1
1
1
0.999998
0.99999
0.999952
0.999786
0.999089
0.996258
0.985085
0.942318
0.785808
0.519008
0.313186
0.17516
0.091366
0.0446655
0.0205475
0.00892515
0.00367101
0.00143332
0.000532374
0.000188465
6.36946e-05
2.05814e-05
6.36668e-06
1.88765e-06
5.36967e-07
1.46686e-07
3.85125e-08
9.72516e-09
2.36348e-09
5.53106e-10
1.24704e-10
2.70986e-11
5.67763e-12
1.14728e-12
2.23643e-13
4.20641e-14
7.63473e-15
1.33733e-15
2.26079e-16
3.68854e-17
5.80753e-18
8.82313e-19
1.29324e-19
1.82839e-20
2.49275e-21
3.27623e-22
4.14952e-23
5.06253e-24
5.94675e-25
6.72207e-26
7.30772e-27
7.6354e-28
7.66198e-29
7.3785e-30
6.81299e-31
6.02615e-32
5.10068e-33
4.12681e-34
3.18763e-35
2.34752e-36
1.64593e-37
1.09695e-38
6.93716e-40
4.15508e-41
2.35221e-42
1.2557e-43
6.30539e-45
2.96992e-46
1.30808e-47
5.36869e-49
2.04524e-50
7.19982e-52
2.33013e-53
6.89201e-55
1.85011e-56
4.47036e-58
9.62567e-60
1.82426e-61
2.99565e-63
4.1756e-65
4.80355e-67
4.37846e-69
2.96478e-71
1.32566e-73
2.93488e-76
1
1
1
1
1
1
1
1
1
1
1
1
1
1
1
0.999998
0.999991
0.99996
0.999825
0.999269
0.997079
0.988738
0.957792
0.845318
0.590873
0.372406
0.217246
0.117981
0.059927
0.0285882
0.0128561
0.00546757
0.00220524
0.000845562
0.000308869
0.000107681
3.58873e-05
1.14498e-05
3.50158e-06
1.0276e-06
2.89675e-07
7.85082e-08
2.0473e-08
5.1406e-09
1.24361e-09
2.90024e-10
6.52333e-11
1.41571e-11
2.96553e-12
5.99772e-13
1.17147e-13
2.21017e-14
4.02837e-15
7.0939e-16
1.20702e-16
1.98433e-17
3.15187e-18
4.83653e-19
7.16884e-20
1.0262e-20
1.41833e-21
1.89217e-22
2.43573e-23
3.02424e-24
3.62011e-25
4.17566e-26
4.63847e-27
4.95901e-28
5.09887e-29
5.03815e-30
4.7798e-31
4.34985e-32
3.79324e-33
3.16605e-34
2.52608e-35
1.92396e-36
1.39669e-37
9.64792e-39
6.32979e-40
3.93624e-41
2.31488e-42
1.28422e-43
6.70185e-45
3.27972e-46
1.4998e-47
6.38333e-49
2.51714e-50
9.14827e-52
3.04587e-53
9.22426e-55
2.51957e-56
6.14403e-58
1.32078e-59
2.46338e-61
3.90391e-63
5.10974e-65
5.30135e-67
4.08612e-69
2.07905e-71
5.23243e-74
1
1
1
1
1
1
1
1
1
1
1
1
1
1
1
0.999998
0.999991
0.999957
0.999813
0.99922
0.996854
0.987705
0.953274
0.826985
0.565793
0.35137
0.201972
0.108167
0.0542288
0.0255546
0.0113597
0.00477817
0.00190686
0.000723681
0.000261713
9.0349e-05
2.9821e-05
9.42379e-06
2.85473e-06
8.29888e-07
2.31745e-07
6.22184e-08
1.60723e-08
3.9975e-09
9.57889e-10
2.21254e-10
4.92859e-11
1.05921e-11
2.19698e-12
4.39925e-13
8.50635e-14
1.58856e-14
2.86561e-15
4.99372e-16
8.40706e-17
1.36733e-17
2.14829e-18
3.2603e-19
4.77866e-20
6.76323e-21
9.24055e-22
1.21846e-22
1.55005e-23
1.90164e-24
2.24887e-25
2.56232e-26
2.81117e-27
2.96791e-28
3.01311e-29
2.93931e-30
2.75274e-31
2.47268e-32
2.12815e-33
1.75296e-34
1.38018e-35
1.03727e-36
7.43e-38
5.06409e-39
3.27819e-40
2.01143e-41
1.16718e-42
6.38928e-44
3.29029e-45
1.58903e-46
7.17163e-48
3.01275e-49
1.17273e-50
4.20778e-52
1.38325e-53
4.13664e-55
1.11589e-56
2.68771e-58
5.70749e-60
1.05166e-61
1.64673e-63
2.12977e-65
2.18355e-67
1.6632e-69
8.36293e-72
2.08001e-74
1
1
1
1
1
1
1
1
1
1
1
1
1
1
1
0.999998
0.999991
0.999956
0.999804
0.999167
0.996606
0.986683
0.949389
0.813085
0.552241
0.341949
0.196198
0.104927
0.05254
0.0247301
0.0109802
0.00461282
0.0018384
0.000696683
0.000251553
8.66953e-05
2.85637e-05
9.00924e-06
2.72366e-06
7.90108e-07
2.20146e-07
5.89662e-08
1.51949e-08
3.76958e-09
9.00826e-10
2.07471e-10
4.60715e-11
9.86925e-12
2.04017e-12
4.07095e-13
7.84277e-14
1.45903e-14
2.62138e-15
4.54887e-16
7.62426e-17
1.23425e-17
1.92972e-18
2.91352e-19
4.24727e-20
5.97691e-21
8.11725e-22
1.06358e-22
1.34403e-23
1.63737e-24
1.92209e-25
2.17303e-26
2.36466e-27
2.47511e-28
2.49018e-29
2.4062e-30
2.23109e-31
1.98321e-32
1.68822e-33
1.37466e-34
1.06934e-35
7.93583e-37
5.61038e-38
3.77187e-39
2.40708e-40
1.45517e-41
8.31468e-43
4.47927e-44
2.26877e-45
1.07707e-46
4.77585e-48
1.9701e-49
7.52654e-51
2.64923e-52
8.53967e-54
2.50317e-55
6.61622e-57
1.56091e-58
3.24588e-60
5.85552e-62
8.9752e-64
1.13618e-65
1.14014e-67
8.50024e-70
4.18386e-72
1.01885e-74
1
1
1
1
1
1
1
1
1
1
1
1
1
1
1
0.999998
0.99999
0.999954
0.999797
0.999146
0.996555
0.986567
0.949116
0.812352
0.551482
0.341351
0.195789
0.104677
0.0524013
0.0246597
0.0109472
0.00459847
0.00183259
0.000694485
0.000250773
8.64349e-05
2.84818e-05
8.98494e-06
2.71685e-06
7.88307e-07
2.19697e-07
5.88613e-08
1.51721e-08
3.765e-09
9.00023e-10
2.07366e-10
4.60699e-11
9.87333e-12
2.04185e-12
4.0759e-13
7.85525e-14
1.46187e-14
2.62741e-15
4.56088e-16
7.64685e-17
1.23829e-17
1.93659e-18
2.9247e-19
4.26463e-20
6.00269e-21
8.15385e-22
1.06855e-22
1.35049e-23
1.64536e-24
1.93154e-25
2.18368e-26
2.37605e-27
2.48667e-28
2.50126e-29
2.41617e-30
2.23945e-31
1.98966e-32
1.69269e-33
1.3773e-34
1.07049e-35
7.93647e-37
5.60399e-38
3.76233e-39
2.39717e-40
1.44656e-41
8.24879e-43
4.43372e-44
2.24006e-45
1.0605e-46
4.68807e-48
1.92748e-49
7.33725e-51
2.57258e-52
8.25811e-54
2.40989e-55
6.33967e-57
1.48823e-58
3.07861e-60
5.52354e-62
8.41854e-64
1.05951e-65
1.05685e-67
7.83135e-70
3.8309e-72
9.27137e-75
1
1
1
1
1
1
1
1
1
1
1
1
1
1
1
0.999998
0.99999
0.999956
0.999807
0.999193
0.996748
0.987271
0.951484
0.819875
0.55726
0.344474
0.197268
0.105332
0.0526809
0.0247767
0.0109954
0.00461796
0.00184028
0.000697428
0.000251864
8.68254e-05
2.86167e-05
9.02987e-06
2.73128e-06
7.92771e-07
2.21027e-07
5.92431e-08
1.52776e-08
3.79312e-09
9.0724e-10
2.09152e-10
4.64968e-11
9.97187e-12
2.06381e-12
4.12307e-13
7.95298e-14
1.4814e-14
2.66503e-15
4.63075e-16
7.77199e-17
1.2599e-17
1.97259e-18
2.98249e-19
4.35405e-20
6.13606e-21
8.3455e-22
1.09508e-22
1.38584e-23
1.69072e-24
1.98753e-25
2.25014e-26
2.45187e-27
2.56977e-28
2.58868e-29
2.50439e-30
2.32474e-31
2.06859e-32
1.76252e-33
1.43631e-34
1.11803e-35
8.30123e-37
5.87013e-38
3.94672e-39
2.51827e-40
1.52178e-41
8.68969e-43
4.67701e-44
2.36608e-45
1.12158e-46
4.96415e-48
2.04338e-49
7.78717e-51
2.73324e-52
8.78266e-54
2.5654e-55
6.75478e-57
1.587e-58
3.28549e-60
5.89902e-62
8.99698e-64
1.13304e-65
1.13088e-67
8.38487e-70
4.10404e-72
9.93825e-75
1
1
1
1
1
1
1
1
1
1
1
1
1
1
1
0.999998
0.999991
0.999958
0.999816
0.999227
0.996879
0.987803
0.953643
0.828247
0.566395
0.35107
0.201296
0.107518
0.0537638
0.025278
0.0112139
0.00470829
0.00187591
0.000710883
0.000256735
8.85187e-05
2.91824e-05
9.21165e-06
2.7875e-06
8.09512e-07
2.25831e-07
6.05717e-08
1.56319e-08
3.88427e-09
9.29866e-10
2.14573e-10
4.77501e-11
1.02516e-11
2.12409e-12
4.24857e-13
8.20536e-14
1.53044e-14
2.75709e-15
4.79773e-16
8.06464e-17
1.30945e-17
2.05362e-18
3.11047e-19
4.54924e-20
6.42342e-21
8.75377e-22
1.15104e-22
1.4598e-23
1.78494e-24
2.10316e-25
2.38675e-26
2.60715e-27
2.73945e-28
2.76679e-29
2.68382e-30
2.49811e-31
2.22908e-32
1.90472e-33
1.55676e-34
1.21545e-35
9.05253e-37
6.42167e-38
4.33149e-39
2.77286e-40
1.68124e-41
9.63289e-43
5.20255e-44
2.64115e-45
1.2564e-46
5.58071e-48
2.30544e-49
8.81766e-51
3.10618e-52
1.00174e-53
2.93673e-55
7.76066e-57
1.82994e-58
3.80213e-60
6.85115e-62
1.04863e-63
1.32527e-65
1.32737e-67
9.87583e-70
4.85037e-72
1.17855e-74
1
1
1
1
1
1
1
1
1
1
1
1
1
1
1
0.999998
0.999992
0.999962
0.999832
0.999276
0.997005
0.988045
0.953871
0.827685
0.565165
0.350118
0.200799
0.107331
0.0537217
0.0252813
0.0112256
0.00471738
0.00188114
0.00071346
0.000257882
8.89901e-05
2.93636e-05
9.27731e-06
2.81004e-06
8.1687e-07
2.28121e-07
6.12525e-08
1.58257e-08
3.9371e-09
9.43689e-10
2.18046e-10
4.8589e-11
1.04464e-11
2.16765e-12
4.34232e-13
8.39979e-14
1.56929e-14
2.83195e-15
4.93683e-16
8.31385e-17
1.35252e-17
2.1254e-18
3.22587e-19
4.72817e-20
6.69095e-21
9.13943e-22
1.20463e-22
1.53155e-23
1.87746e-24
2.21804e-25
2.52403e-26
2.76495e-27
2.9138e-28
2.95184e-29
2.87235e-30
2.68229e-31
2.40147e-32
2.05914e-33
1.68897e-34
1.32352e-35
9.89464e-37
7.04629e-38
4.77174e-39
3.06719e-40
1.86749e-41
1.0746e-42
5.82923e-44
2.9726e-45
1.42056e-46
6.33951e-48
2.63144e-49
1.01136e-50
3.58038e-52
1.1605e-53
3.4196e-55
9.0837e-57
2.1532e-58
4.49764e-60
8.14809e-62
1.25393e-63
1.5934e-65
1.60473e-67
1.20056e-69
5.92913e-72
1.44869e-74
1
1
1
1
1
1
1
1
1
1
1
1
1
1
1
0.999998
0.999991
0.99996
0.999822
0.999248
0.996939
0.987943
0.953873
0.828388
0.566157
0.350886
0.201303
0.107631
0.0538901
0.0253704
0.0112705
0.00473881
0.00189084
0.000717608
0.000259561
8.96355e-05
2.95995e-05
9.35944e-06
2.83733e-06
8.2554e-07
2.30757e-07
6.20207e-08
1.60404e-08
3.99475e-09
9.58563e-10
2.21737e-10
4.94703e-11
1.06491e-11
2.21255e-12
4.43821e-13
8.59719e-14
1.60849e-14
2.90702e-15
5.07555e-16
8.56121e-17
1.39508e-17
2.19606e-18
3.33907e-19
4.90314e-20
6.95183e-21
9.51468e-22
1.25668e-22
1.60117e-23
1.9672e-24
2.32947e-25
2.65723e-26
2.91815e-27
3.08324e-28
3.13191e-29
3.05607e-30
2.8621e-31
2.57011e-32
2.21054e-33
1.81894e-34
1.43005e-35
1.07273e-36
7.66587e-38
5.20992e-39
3.36117e-40
2.05421e-41
1.18662e-42
6.46237e-44
3.30881e-45
1.58777e-46
7.11562e-48
2.96629e-49
1.14504e-50
4.07165e-52
1.32569e-53
3.92422e-55
1.04724e-56
2.494e-58
5.2341e-60
9.52742e-62
1.47322e-63
1.88107e-65
1.90359e-67
1.43103e-69
7.10153e-72
1.74354e-74
1
1
1
1
1
1
1
1
1
1
1
1
1
1
1
0.999998
0.999992
0.999961
0.999829
0.999282
0.997105
0.988687
0.95696
0.840273
0.579861
0.36036
0.207059
0.110763
0.0554513
0.0260957
0.0115892
0.00487169
0.00194371
0.000737769
0.000266938
9.22264e-05
3.04738e-05
9.64313e-06
2.92589e-06
8.52153e-07
2.3846e-07
6.41689e-08
1.6618e-08
4.14448e-09
9.96004e-10
2.30771e-10
5.15738e-11
1.11219e-11
2.31516e-12
4.65324e-13
9.03244e-14
1.69358e-14
3.06773e-15
5.36875e-16
9.07795e-17
1.48305e-17
2.34072e-18
3.5688e-19
5.25542e-20
7.47331e-21
1.02595e-21
1.35928e-22
1.73745e-23
2.14167e-24
2.54465e-25
2.91277e-26
3.2102e-27
3.40422e-28
3.47095e-29
3.39995e-30
3.19675e-31
2.88225e-32
2.48931e-33
2.05704e-34
1.6243e-35
1.22388e-36
8.78598e-38
5.99908e-39
3.88877e-40
2.38826e-41
1.38644e-42
7.58898e-44
3.90575e-45
1.88409e-46
8.48882e-48
3.558e-49
1.38104e-50
4.93838e-52
1.61701e-53
4.81408e-55
1.29217e-56
3.09533e-58
6.53447e-60
1.19652e-61
1.86122e-63
2.39075e-65
2.43394e-67
1.84074e-69
9.18978e-72
2.26983e-74
1
1
1
1
1
1
1
1
1
1
1
1
1
1
1
0.999998
0.999991
0.999959
0.99982
0.999249
0.996981
0.988244
0.955445
0.835241
0.57498
0.357762
0.205863
0.1103
0.0553087
0.0260686
0.011592
0.00487937
0.00194937
0.000740889
0.00026842
9.28811e-05
3.07372e-05
9.74121e-06
2.96006e-06
8.63364e-07
2.41946e-07
6.52009e-08
1.69097e-08
4.22343e-09
1.01651e-09
2.35889e-10
5.28033e-11
1.14064e-11
2.37861e-12
4.78969e-13
9.31552e-14
1.75025e-14
3.17721e-15
5.57287e-16
9.44528e-17
1.54685e-17
2.44768e-18
3.74185e-19
5.52556e-20
7.88017e-21
1.08506e-21
1.44212e-22
1.84935e-23
2.28735e-24
2.72731e-25
3.13328e-26
3.46631e-27
3.69023e-28
3.77784e-29
3.7161e-30
3.50914e-31
3.17806e-32
2.75744e-33
2.28943e-34
1.81664e-35
1.37568e-36
9.92673e-38
6.8139e-39
4.44097e-40
2.74257e-41
1.60121e-42
8.81559e-44
4.56404e-45
2.21502e-46
1.00416e-47
4.23535e-49
1.65449e-50
5.95467e-52
1.96265e-53
5.88214e-55
1.58953e-56
3.83365e-58
8.14887e-60
1.50248e-61
2.35347e-63
3.04423e-65
3.121e-67
2.37696e-69
1.19502e-71
2.97238e-74
1
1
1
1
1
1
1
1
1
1
1
1
1
1
1
0.999998
0.99999
0.999954
0.999799
0.99916
0.996642
0.987043
0.951389
0.821708
0.562628
0.350541
0.202209
0.108664
0.0546441
0.0258237
0.0115111
0.00485518
0.00194306
0.000739599
0.000268302
9.29422e-05
3.0794e-05
9.77187e-06
2.97378e-06
8.68958e-07
2.43969e-07
6.58708e-08
1.71164e-08
4.28347e-09
1.03303e-09
2.40215e-10
5.38848e-11
1.16652e-11
2.43797e-12
4.92046e-13
9.59244e-14
1.80668e-14
3.2879e-15
5.78207e-16
9.82631e-17
1.61375e-17
2.56093e-18
3.9267e-19
5.8165e-20
8.32169e-21
1.14966e-21
1.53321e-22
1.97315e-23
2.44941e-24
2.9316e-25
3.38115e-26
3.75562e-27
4.0149e-28
4.12787e-29
4.07839e-30
3.86883e-31
3.52027e-32
3.06913e-33
2.5609e-34
2.04243e-35
1.55479e-36
1.12796e-37
7.78538e-39
5.10289e-40
3.16964e-41
1.86154e-42
1.03112e-43
5.37146e-45
2.62339e-46
1.19697e-47
5.08182e-49
1.99845e-50
7.24159e-52
2.40332e-53
7.25337e-55
1.97401e-56
4.79517e-58
1.02668e-59
1.90687e-61
3.00901e-63
3.92119e-65
4.05021e-67
3.10788e-69
1.57431e-71
3.94546e-74
1
1
1
1
1
1
1
1
1
1
1
1
1
1
1
0.999998
0.99999
0.999953
0.999791
0.999116
0.996414
0.985999
0.947096
0.806019
0.547452
0.340156
0.196124
0.105472
0.0531371
0.0251736
0.0112524
0.00475983
0.0019104
0.000729192
0.000265288
9.21545e-05
3.06125e-05
9.73816e-06
2.97031e-06
8.69731e-07
2.44707e-07
6.62143e-08
1.72445e-08
4.32556e-09
1.04568e-09
2.43756e-10
5.48175e-11
1.18979e-11
2.49325e-12
5.04581e-13
9.86446e-14
1.86327e-14
3.40097e-15
5.99915e-16
1.02272e-16
1.68502e-17
2.68293e-18
4.12786e-19
6.13606e-20
8.81085e-21
1.2218e-21
1.63573e-22
2.11347e-23
2.63438e-24
3.16635e-25
3.66782e-26
4.09236e-27
4.39512e-28
4.54031e-29
4.50785e-30
4.29775e-31
3.93078e-32
3.44524e-33
2.89039e-34
2.31811e-35
1.77475e-36
1.29509e-37
8.99252e-39
5.93023e-40
3.70659e-41
2.19078e-42
1.22137e-43
6.40468e-45
3.14904e-46
1.44662e-47
6.18421e-49
2.449e-50
8.93708e-52
2.98722e-53
9.0806e-55
2.48921e-56
6.09075e-58
1.3136e-59
2.45763e-61
3.90647e-63
5.12784e-65
5.33503e-67
4.12332e-69
2.10363e-71
5.30946e-74
1
1
1
1
1
1
1
1
1
1
1
1
1
1
1
0.999998
0.999991
0.999956
0.999803
0.999164
0.996577
0.986476
0.94831
0.808751
0.548642
0.340267
0.195874
0.105235
0.0529902
0.0251015
0.011223
0.00475002
0.00190802
0.000729042
0.000265506
9.23282e-05
3.07055e-05
9.77978e-06
2.98686e-06
8.75814e-07
2.46822e-07
6.69126e-08
1.74615e-08
4.38939e-09
1.06351e-09
2.48499e-10
5.60227e-11
1.21909e-11
2.5615e-12
5.1984e-13
1.01922e-13
1.93096e-14
3.53549e-15
6.25658e-16
1.07018e-16
1.76934e-17
2.82732e-18
4.36628e-19
6.51563e-20
9.39348e-21
1.30803e-21
1.75873e-22
2.28256e-23
2.85833e-24
3.45199e-25
4.01856e-26
4.5067e-27
4.8658e-28
5.05409e-29
5.04637e-30
4.83927e-31
4.45272e-32
3.92694e-33
3.31558e-34
2.6766e-35
2.06308e-36
1.51596e-37
1.06014e-38
7.04242e-40
4.43481e-41
2.64137e-42
1.48417e-43
7.8454e-45
3.88913e-46
1.80159e-47
7.76753e-49
3.10279e-50
1.14232e-51
3.85252e-53
1.18178e-54
3.26949e-56
8.07481e-58
1.75798e-59
3.32041e-61
5.32866e-63
7.06247e-65
7.41942e-67
5.7904e-69
2.98314e-71
7.60342e-74
1
1
1
1
1
1
1
1
1
1
1
1
1
1
1
0.999998
0.999991
0.999957
0.999812
0.999208
0.996792
0.987396
0.95179
0.820517
0.557872
0.345365
0.198379
0.106389
0.0534994
0.0253198
0.0113147
0.00478789
0.00192339
0.000735188
0.000267925
9.32524e-05
3.10466e-05
9.90089e-06
3.02815e-06
8.89238e-07
2.5097e-07
6.81329e-08
1.78059e-08
4.48279e-09
1.08788e-09
2.54631e-10
5.75115e-11
1.25398e-11
2.64044e-12
5.37084e-13
1.05559e-13
2.00502e-14
3.68108e-15
6.53293e-16
1.12082e-16
1.85892e-17
2.9803e-18
4.61844e-19
6.91676e-20
1.00092e-20
1.39922e-21
1.88899e-22
2.46198e-23
3.09655e-24
3.75674e-25
4.39399e-26
4.9519e-27
5.37362e-28
5.61092e-29
5.63284e-30
5.43208e-31
5.02725e-32
4.46027e-33
3.78922e-34
3.07852e-35
2.3885e-36
1.76698e-37
1.24429e-38
8.32495e-40
5.281e-41
3.16907e-42
1.79443e-43
9.5604e-45
4.77755e-46
2.23137e-47
9.70135e-49
3.9084e-50
1.45141e-51
4.93817e-53
1.52835e-54
4.26659e-56
1.06338e-57
2.33645e-59
4.45404e-61
7.21475e-63
9.65196e-65
1.02351e-66
8.06303e-69
4.19299e-71
1.07873e-73
1
1
1
1
1
1
1
1
1
1
1
1
1
1
1
0.999998
0.999991
0.999959
0.999823
0.999263
0.997038
0.988428
0.955913
0.836193
0.57512
0.357292
0.205447
0.110136
0.0553275
0.0261547
0.0116759
0.00493701
0.00198244
0.000757665
0.000276154
9.61565e-05
3.20351e-05
1.02256e-05
3.13113e-06
9.20724e-07
2.60252e-07
7.07729e-08
1.85304e-08
4.67469e-09
1.13693e-09
2.66721e-10
6.03844e-11
1.31983e-11
2.78612e-12
5.68196e-13
1.11976e-13
2.13288e-14
3.92728e-15
6.99105e-16
1.20321e-16
2.00215e-17
3.22096e-18
5.00924e-19
7.53001e-20
1.0939e-20
1.53537e-21
2.08151e-22
2.72475e-23
3.4426e-24
4.19625e-25
4.93207e-26
5.5865e-27
6.09415e-28
6.39793e-29
6.45913e-30
6.26526e-31
5.83331e-32
5.20765e-33
4.45261e-34
3.64149e-35
2.84461e-36
2.11923e-37
1.50315e-38
1.01318e-39
6.47642e-41
3.91696e-42
2.23577e-43
1.201e-44
6.05227e-46
2.85109e-47
1.25046e-48
5.08288e-50
1.90477e-51
6.54063e-53
2.04333e-54
5.75847e-56
1.44902e-57
3.21471e-59
6.1883e-61
1.01227e-62
1.36763e-64
1.46465e-66
1.16528e-68
6.11989e-71
1.59007e-73
1
1
1
1
1
1
1
1
1
1
1
1
1
1
1
0.999998
0.999991
0.999959
0.999821
0.999258
0.997035
0.988497
0.956453
0.838919
0.579574
0.361419
0.20857
0.112154
0.0564819
0.0267552
0.0119648
0.00506709
0.00203763
0.000779848
0.000284633
9.92469e-05
3.31119e-05
1.05849e-05
3.2461e-06
9.5606e-07
2.70697e-07
7.37458e-08
1.93458e-08
4.89026e-09
1.19191e-09
2.8026e-10
6.36048e-11
1.39384e-11
2.95042e-12
6.03444e-13
1.19284e-13
2.27933e-14
4.21092e-15
7.52208e-16
1.29931e-16
2.17025e-17
3.50515e-18
5.47355e-19
8.26303e-20
1.2057e-20
1.70006e-21
2.31577e-22
3.04638e-23
3.86868e-24
4.74062e-25
5.60249e-26
6.38193e-27
7.00276e-28
7.39646e-29
7.51405e-30
7.3357e-31
6.87557e-32
6.18041e-33
5.32186e-34
4.38421e-35
3.45058e-36
2.59058e-37
1.85211e-38
1.2586e-39
8.11269e-41
4.94883e-42
2.84968e-43
1.54461e-44
7.85584e-46
3.7357e-47
1.65427e-48
6.7905e-50
2.57023e-51
8.91595e-53
2.81435e-54
8.01513e-56
2.03847e-57
4.57155e-59
8.89689e-61
1.47149e-62
2.01032e-64
2.17723e-66
1.75187e-68
9.30553e-71
2.44543e-73
1
1
1
1
1
1
1
1
1
1
1
1
1
1
1
0.999998
0.999991
0.999959
0.999823
0.999262
0.997041
0.988494
0.956422
0.83885
0.579856
0.362067
0.209282
0.112735
0.0568933
0.0270054
0.0121007
0.00513462
0.00206882
0.00079335
0.000290145
0.000101378
3.38944e-05
1.08587e-05
3.33755e-06
9.85276e-07
2.79639e-07
7.63715e-08
2.00863e-08
5.09107e-09
1.24431e-09
2.93427e-10
6.67936e-11
1.4683e-11
3.11817e-12
6.39919e-13
1.2694e-13
2.43453e-14
4.51478e-15
8.09678e-16
1.40433e-16
2.35564e-17
3.82137e-18
5.99466e-19
9.09259e-20
1.33325e-20
1.88946e-21
2.58727e-22
3.42203e-23
4.37011e-24
5.38611e-25
6.40343e-26
7.33935e-27
8.10464e-28
8.61652e-29
8.81275e-30
8.66351e-31
8.17831e-32
7.40562e-33
6.42514e-34
5.33424e-35
4.23176e-36
3.203e-37
2.30909e-38
1.58255e-39
1.02898e-40
6.3328e-42
3.67971e-43
2.01293e-44
1.03338e-45
4.96089e-47
2.21805e-48
9.19385e-50
3.51437e-51
1.2313e-52
3.92587e-54
1.12944e-55
2.90192e-57
6.57499e-59
1.29283e-60
2.16049e-62
2.98238e-64
3.26374e-66
2.6536e-68
1.42429e-70
3.78223e-73
1
1
1
1
1
1
1
1
1
1
1
1
1
1
1
0.999998
0.999992
0.999961
0.999829
0.999276
0.997054
0.988427
0.955934
0.836828
0.577996
0.361226
0.209012
0.112707
0.0569323
0.0270562
0.0121435
0.00516131
0.00208301
0.000800151
0.000293156
0.000102626
3.43821e-05
1.1039e-05
3.40087e-06
1.00644e-06
2.86386e-07
7.84275e-08
2.0686e-08
5.25879e-09
1.28934e-09
3.05042e-10
6.96754e-11
1.53713e-11
3.27655e-12
6.75042e-13
1.34452e-13
2.58951e-14
4.82339e-15
8.69e-16
1.51442e-16
2.55295e-17
4.16288e-18
6.56548e-19
1.0014e-19
1.47686e-20
2.10555e-21
2.90113e-22
3.86192e-23
4.96485e-24
6.16148e-25
7.37771e-26
8.51865e-27
9.4789e-28
1.01572e-28
1.04733e-29
1.03827e-30
9.88626e-32
9.03227e-33
7.9086e-34
6.62803e-35
5.30936e-36
4.05883e-37
2.9561e-38
2.0473e-39
1.3455e-40
8.37195e-42
4.91925e-43
2.72183e-44
1.4136e-45
6.86656e-47
3.10692e-48
1.30344e-49
5.04337e-51
1.78872e-52
5.77333e-54
1.68136e-55
4.37281e-57
1.00278e-58
1.99537e-60
3.37385e-62
4.71117e-64
5.21382e-66
4.28565e-68
2.32473e-70
6.23677e-73
1
1
1
1
1
1
1
1
1
1
1
1
1
1
1
0.999998
0.999991
0.999959
0.999821
0.999249
0.996958
0.988081
0.954646
0.832047
0.572814
0.357991
0.207359
0.112034
0.0567147
0.0270089
0.0121433
0.00517038
0.00209036
0.000804374
0.000295224
0.000103535
3.47503e-05
1.11783e-05
3.45054e-06
1.02323e-06
2.9179e-07
8.00872e-08
2.11738e-08
5.39616e-09
1.32647e-09
3.14686e-10
7.20849e-11
1.59508e-11
3.41082e-12
7.05034e-13
1.40913e-13
2.72383e-14
5.09289e-15
9.21211e-16
1.61211e-16
2.72948e-17
4.47104e-18
7.08512e-19
1.08604e-19
1.61003e-20
2.30791e-21
3.19802e-22
4.28238e-23
5.53946e-24
6.91896e-25
8.34047e-26
9.69785e-27
1.08699e-27
1.17364e-28
1.21975e-29
1.21915e-30
1.17081e-31
1.0792e-32
9.53678e-34
8.06936e-35
6.52839e-36
5.04236e-37
3.71183e-38
2.59929e-39
1.72797e-40
1.08802e-41
6.47219e-43
3.62698e-44
1.90871e-45
9.39898e-47
4.31332e-48
1.83625e-49
7.21349e-51
2.5989e-52
8.52569e-54
2.52485e-55
6.68054e-57
1.55926e-58
3.15916e-60
5.44074e-62
7.74068e-64
8.73044e-66
7.31504e-68
4.04538e-70
1.10657e-72
1
1
1
1
1
1
1
1
1
1
1
1
1
1
1
0.999998
0.999992
0.999961
0.999831
0.999292
0.997138
0.988771
0.957093
0.84034
0.580754
0.362348
0.2095
0.113002
0.0571451
0.0272026
0.0122321
0.00521195
0.00210961
0.000812978
0.000298863
0.000104996
3.53095e-05
1.13824e-05
3.52155e-06
1.04681e-06
2.9927e-07
8.23589e-08
2.18351e-08
5.58093e-09
1.37607e-09
3.27492e-10
7.52667e-11
1.67124e-11
3.58648e-12
7.44106e-13
1.49298e-13
2.89749e-14
5.44016e-15
9.88272e-16
1.7372e-16
2.9549e-17
4.86348e-18
7.74525e-19
1.19332e-19
1.77846e-20
2.56332e-21
3.57206e-22
4.81124e-23
6.26117e-24
7.86916e-25
9.54692e-26
1.11743e-26
1.26104e-27
1.37115e-28
1.43535e-29
1.44534e-30
1.39867e-31
1.29937e-32
1.15751e-33
9.87508e-35
8.0569e-36
6.27679e-37
4.66131e-38
3.29353e-39
2.2095e-40
1.40412e-41
8.43093e-43
4.76941e-44
2.53385e-45
1.25967e-46
5.83606e-48
2.50816e-49
9.94596e-51
3.6167e-52
1.19782e-53
3.58316e-55
9.58153e-57
2.26127e-58
4.63474e-60
8.07856e-62
1.16379e-63
1.32965e-65
1.12903e-67
6.33015e-70
1.75619e-72
1
1
1
1
1
1
1
1
1
1
1
1
1
1
1
0.999998
0.999991
0.999959
0.999821
0.999255
0.997032
0.988554
0.956881
0.841024
0.583338
0.365355
0.212004
0.114688
0.0581236
0.0277145
0.0124806
0.00532521
0.00215868
0.000833284
0.000306912
0.000108045
3.64105e-05
1.17622e-05
3.64715e-06
1.0867e-06
3.11455e-07
8.59405e-08
2.2849e-08
5.85752e-09
1.44882e-09
3.45954e-10
7.97886e-11
1.77817e-11
3.83075e-12
7.98019e-13
1.60798e-13
3.13462e-14
5.91291e-15
1.07941e-15
1.9071e-16
3.26121e-17
5.39754e-18
8.64569e-19
1.34012e-19
2.00983e-20
2.9158e-21
4.09099e-22
5.54929e-23
7.27489e-24
9.21325e-25
1.12665e-25
1.32958e-26
1.51329e-27
1.66004e-28
1.75375e-29
1.78279e-30
1.74225e-31
1.6351e-32
1.47199e-33
1.26953e-34
1.0475e-35
8.25592e-37
6.20502e-38
4.43885e-39
3.01609e-40
1.94206e-41
1.18198e-42
6.78027e-44
3.65405e-45
1.84342e-46
8.67002e-48
3.78389e-49
1.52425e-50
5.63218e-52
1.89473e-53
5.7527e-55
1.56016e-56
3.7318e-58
7.74709e-60
1.36687e-61
1.99203e-63
2.3012e-65
1.9747e-67
1.11837e-69
3.13372e-72
1
1
1
1
1
1
1
1
1
1
1
1
1
1
1
0.999998
0.999991
0.999959
0.999818
0.99924
0.996964
0.988276
0.955973
0.838327
0.5813
0.364789
0.21207
0.114962
0.0583966
0.0279124
0.0125998
0.00538831
0.00218896
0.000846727
0.000312504
0.000110244
3.72339e-05
1.20564e-05
3.74749e-06
1.11944e-06
3.21691e-07
8.90112e-08
2.3734e-08
6.10282e-09
1.51428e-09
3.62781e-10
8.39591e-11
1.87789e-11
4.06085e-12
8.4929e-13
1.71833e-13
3.36413e-14
6.37425e-15
1.16906e-15
2.07553e-16
3.56722e-17
5.93515e-18
9.55905e-19
1.49017e-19
2.24816e-20
3.28177e-21
4.63412e-22
6.32814e-23
8.35372e-24
1.06561e-24
1.31289e-25
1.56146e-26
1.79162e-27
1.98189e-28
2.11204e-29
2.16644e-30
2.13701e-31
2.02506e-32
1.84137e-33
1.60462e-34
1.33823e-35
1.06646e-36
8.10745e-38
5.86862e-39
4.03646e-40
2.63197e-41
1.62281e-42
9.4346e-44
5.1554e-45
2.63831e-46
1.25936e-47
5.58114e-49
2.28424e-50
8.58089e-52
2.93715e-53
9.08145e-55
2.51004e-56
6.12232e-58
1.29666e-59
2.33478e-61
3.47315e-63
4.0955e-65
3.58692e-67
2.07281e-69
5.92149e-72
1
1
1
1
1
1
1
1
1
1
1
1
1
1
1
0.999998
0.999991
0.99996
0.999823
0.999262
0.997039
0.988501
0.956544
0.839728
0.582654
0.365725
0.212781
0.115505
0.0587638
0.0281356
0.0127237
0.0054518
0.00221927
0.000860285
0.000318222
0.000112527
3.80996e-05
1.23689e-05
3.85518e-06
1.15491e-06
3.32877e-07
9.23941e-08
2.47163e-08
6.37705e-09
1.58794e-09
3.81839e-10
8.87116e-11
1.99219e-11
4.32616e-12
9.0875e-13
1.84705e-13
3.63338e-14
6.91865e-15
1.27547e-15
2.27665e-16
3.93481e-17
6.58489e-18
1.06697e-18
1.67377e-19
2.54164e-20
3.7353e-21
5.31161e-22
7.30612e-23
9.71754e-24
1.24927e-24
1.55163e-25
1.86086e-26
2.15366e-27
2.40372e-28
2.58527e-29
2.67719e-30
2.66686e-31
2.55283e-32
2.34555e-33
2.06597e-34
1.74202e-35
1.40398e-36
1.07971e-37
7.90808e-39
5.50477e-40
3.63329e-41
2.26789e-42
1.33488e-43
7.3849e-45
3.82594e-46
1.84851e-47
8.28983e-49
3.43211e-50
1.30361e-51
4.51459e-53
1.41331e-54
3.95808e-56
9.79005e-58
2.10431e-59
3.84854e-61
5.81962e-63
6.98145e-65
6.2256e-67
3.66583e-69
1.06815e-71
1
1
1
1
1
1
1
1
1
1
1
1
1
1
1
0.999998
0.999992
0.999961
0.99983
0.999286
0.997113
0.988708
0.957115
0.841355
0.584365
0.366949
0.213626
0.116044
0.0591234
0.0283597
0.0128503
0.00551779
0.0022513
0.000874853
0.000324456
0.000115046
3.9064e-05
1.27198e-05
3.97681e-06
1.19516e-06
3.45623e-07
9.62621e-08
2.58429e-08
6.69235e-09
1.67284e-09
4.03852e-10
9.42123e-11
2.12477e-11
4.63454e-12
9.78012e-13
1.99735e-13
3.94857e-14
7.55768e-15
1.40076e-15
2.51427e-16
4.37076e-17
7.35872e-18
1.19986e-18
1.89457e-19
2.89654e-20
4.28709e-21
6.14126e-22
8.5122e-23
1.14122e-23
1.47934e-24
1.85327e-25
2.24262e-26
2.61979e-27
2.95245e-28
3.20762e-29
3.3567e-30
3.38044e-31
3.27286e-32
3.04291e-33
2.71344e-34
2.31756e-35
1.89306e-36
1.47637e-37
1.0973e-38
7.75645e-40
5.20268e-41
3.30309e-42
1.97934e-43
1.11585e-44
5.89637e-46
2.90836e-47
1.33272e-48
5.64289e-50
2.1938e-51
7.76886e-53
2.48434e-54
7.09938e-56
1.78981e-57
3.91679e-59
7.28483e-61
1.11895e-62
1.36185e-64
1.23052e-66
7.3325e-69
2.15902e-71
1
1
1
1
1
1
1
1
1
1
1
1
1
1
1
0.999998
0.999991
0.999958
0.999813
0.999211
0.996831
0.987784
0.954375
0.833497
0.578167
0.364434
0.2128
0.115857
0.0591171
0.0284062
0.0129029
0.0055541
0.00227171
0.000884987
0.000329056
0.00011699
3.98357e-05
1.30095e-05
4.08006e-06
1.23021e-06
3.5698e-07
9.97819e-08
2.68881e-08
6.99014e-09
1.75436e-09
4.25315e-10
9.96535e-11
2.2577e-11
4.94775e-12
1.04923e-12
2.15371e-13
4.28023e-14
8.2375e-15
1.53547e-15
2.77236e-16
4.84896e-17
8.21571e-18
1.34842e-18
2.14364e-19
3.30046e-20
4.92055e-21
7.10187e-22
9.9204e-23
1.34072e-23
1.75238e-24
2.21414e-25
2.70295e-26
3.18621e-27
3.62431e-28
3.97528e-29
4.20088e-30
4.2731e-31
4.17955e-32
3.9265e-33
3.53853e-34
3.05474e-35
2.52226e-36
1.98848e-37
1.49398e-38
1.06743e-39
7.23577e-41
4.6413e-42
2.8089e-43
1.60064e-44
8.55692e-46
4.27367e-47
1.98471e-48
8.52421e-50
3.36472e-51
1.21163e-52
3.94562e-54
1.14976e-55
2.95963e-57
6.62115e-59
1.26039e-60
1.98365e-62
2.47646e-64
2.29773e-66
1.40738e-68
4.26449e-71
1
1
1
1
1
1
1
1
1
1
1
1
1
1
1
0.999998
0.999991
0.999958
0.999815
0.999221
0.996851
0.987716
0.953539
0.828965
0.572501
0.360339
0.210595
0.114948
0.0588365
0.0283489
0.012906
0.00556875
0.00228339
0.000891849
0.000332503
0.000118548
4.0485e-05
1.32624e-05
4.17292e-06
1.26253e-06
3.67682e-07
1.03165e-07
2.79115e-08
7.28687e-09
1.83694e-09
4.47408e-10
1.05339e-10
2.39861e-11
5.28431e-12
1.12675e-12
2.32602e-13
4.65004e-14
9.00431e-15
1.68914e-15
3.07013e-16
5.40698e-17
9.22731e-18
1.52584e-18
2.44473e-19
3.79483e-20
5.7059e-21
8.30872e-22
1.17141e-22
1.59849e-23
2.11044e-24
2.69471e-25
3.32588e-26
3.96561e-27
4.56504e-28
5.06984e-29
5.42763e-30
5.59629e-31
5.55176e-32
5.29319e-33
4.84426e-34
4.24976e-35
3.56839e-36
2.86301e-37
2.19081e-38
1.59559e-39
1.1035e-40
7.2284e-42
4.47174e-43
2.60235e-44
1.41964e-45
7.23045e-47
3.42238e-48
1.49749e-49
6.01998e-51
2.20741e-52
7.31832e-54
2.17036e-55
5.68274e-57
1.29223e-58
2.49806e-60
3.98819e-62
5.04399e-64
4.74225e-66
2.94782e-68
9.07658e-71
1
1
1
1
1
1
1
1
1
1
1
1
1
1
1
0.999998
0.999991
0.99996
0.999825
0.999269
0.997038
0.988337
0.95534
0.833965
0.576059
0.361896
0.211186
0.115177
0.0589505
0.0284198
0.0129514
0.00559662
0.0022986
0.000899369
0.000335928
0.000120001
4.10644e-05
1.34812e-05
4.25142e-06
1.28937e-06
3.76455e-07
1.05911e-07
2.87357e-08
7.52459e-09
1.90291e-09
4.65039e-10
1.09884e-10
2.51167e-11
5.55597e-12
1.18983e-12
2.46762e-13
4.95735e-14
9.6493e-15
1.82007e-15
3.3272e-16
5.89522e-17
1.01243e-17
1.68528e-18
2.71889e-19
4.25088e-20
6.43974e-21
9.45085e-22
1.34332e-22
1.84866e-23
2.46233e-24
3.17297e-25
3.95368e-26
4.76115e-27
5.53762e-28
6.21623e-29
6.72944e-30
7.01926e-31
7.04751e-32
6.80351e-33
6.3074e-34
5.60786e-35
4.77439e-36
3.8858e-37
3.0177e-38
2.2315e-39
1.56761e-40
1.04345e-41
6.56186e-43
3.88572e-44
2.15866e-45
1.12029e-46
5.40529e-48
2.41124e-49
9.88133e-51
3.69247e-52
1.24861e-53
3.78381e-55
1.01421e-56
2.36519e-58
4.69749e-60
7.71883e-62
1.0066e-63
9.75266e-66
6.23411e-68
1.97066e-70
1
1
1
1
1
1
1
1
1
1
1
1
1
1
1
0.999998
0.999992
0.999961
0.999831
0.999298
0.997198
0.989152
0.958995
0.848188
0.591749
0.371308
0.216213
0.117623
0.0600812
0.0289309
0.0131787
0.00569577
0.00234143
0.000917503
0.00034338
0.000122953
4.21861e-05
1.38889e-05
4.39323e-06
1.33666e-06
3.9158e-07
1.10558e-07
3.01086e-08
7.91498e-09
2.00983e-09
4.93271e-10
1.17074e-10
2.68839e-11
5.97542e-12
1.28602e-12
2.68085e-13
5.41451e-14
1.05976e-14
2.01045e-15
3.69724e-16
6.59169e-17
1.13939e-17
1.90941e-18
3.10214e-19
4.88559e-20
7.45771e-21
1.10317e-21
1.58097e-22
2.19444e-23
2.94907e-24
3.8356e-25
4.82571e-26
5.86992e-27
6.89893e-28
7.82903e-29
8.57182e-30
9.04692e-31
9.19539e-32
8.99109e-33
8.44707e-34
7.61505e-35
6.57763e-36
5.43476e-37
4.28755e-38
3.22307e-39
2.30341e-40
1.56101e-41
1.00029e-42
6.0413e-44
3.42633e-45
1.81723e-46
8.97046e-48
4.099e-49
1.72288e-50
6.61094e-52
2.29359e-53
7.1149e-55
1.94789e-56
4.62991e-58
9.35509e-60
1.56629e-61
2.08439e-63
2.06467e-65
1.35142e-67
4.37871e-70
1
1
1
1
1
1
1
1
1
1
1
1
1
1
1
0.999998
0.999992
0.999962
0.999834
0.999307
0.99722
0.989217
0.959322
0.850073
0.59627
0.376317
0.22025
0.120295
0.0616277
0.0297428
0.013573
0.00587529
0.00241889
0.000949388
0.00035595
0.00012771
4.39169e-05
1.44952e-05
4.59773e-06
1.40309e-06
4.12373e-07