/*--------------------------------*- C++ -*----------------------------------*\
| =========                 |                                                 |
| \\      /  F ield         | OpenFOAM: The Open Source CFD Toolbox           |
|  \\    /   O peration     | Version:  4.1                                   |
|   \\  /    A nd           | Web:      www.OpenFOAM.org                      |
|    \\/     M anipulation  |                                                 |
\*---------------------------------------------------------------------------*/
FoamFile
{
    version     2.0;
    format      ascii;
    class       volVectorField;
    location    "0.051";
    object      U_0;
}
// * * * * * * * * * * * * * * * * * * * * * * * * * * * * * * * * * * * * * //

dimensions      [0 1 -1 0 0 0 0];

internalField   nonuniform List<vector> 
43750
(
(9.96696 -0.0339874 0)
(9.95689 -0.0250681 0)
(9.94574 0.00516592 0)
(9.93011 0.0261493 0)
(9.91377 0.0373235 0)
(9.90705 0.0275197 0)
(9.91401 0.0107303 0)
(9.92112 0.011035 0)
(9.91157 0.026388 0)
(9.88681 0.0341901 0)
(9.86077 0.0235013 0)
(9.84454 0.0071896 0)
(9.83602 0.00573798 0)
(9.82337 0.0246338 0)
(9.79727 0.0486456 0)
(9.75929 0.0566678 0)
(9.71914 0.0409433 0)
(9.68575 0.0129955 0)
(9.66125 -0.00707791 0)
(9.63999 -0.00655622 0)
(9.6117 0.0124959 0)
(9.56768 0.038015 0)
(9.50592 0.0576563 0)
(9.43075 0.0656515 0)
(9.34886 0.0634967 0)
(9.26573 0.0562991 0)
(9.18427 0.0487646 0)
(9.10507 0.0433061 0)
(9.02744 0.0402844 0)
(8.95034 0.0390733 0)
(8.87306 0.0388944 0)
(8.7952 0.0391878 0)
(8.71657 0.0396573 0)
(8.63706 0.0401827 0)
(8.55664 0.0407286 0)
(8.47527 0.0412901 0)
(8.3929 0.0418692 0)
(8.3095 0.0424682 0)
(8.22502 0.0430881 0)
(8.13942 0.0437294 0)
(8.05265 0.0443921 0)
(7.96466 0.0450764 0)
(7.87542 0.045782 0)
(7.78488 0.0465089 0)
(7.69298 0.0472568 0)
(7.59969 0.0480256 0)
(7.50496 0.0488149 0)
(7.40873 0.0496242 0)
(7.31097 0.0504532 0)
(7.21163 0.0513012 0)
(7.11066 0.0521676 0)
(7.00802 0.0530516 0)
(6.90367 0.0539524 0)
(6.79757 0.0548689 0)
(6.68967 0.0558001 0)
(6.57994 0.0567446 0)
(6.46833 0.0577011 0)
(6.35481 0.0586682 0)
(6.23935 0.0596442 0)
(6.12192 0.0606275 0)
(6.00249 0.0616162 0)
(5.88103 0.062608 0)
(5.75752 0.0636004 0)
(5.63195 0.0645909 0)
(5.50431 0.0655768 0)
(5.37458 0.0665569 0)
(5.24277 0.0675285 0)
(5.10888 0.0684915 0)
(4.97294 0.0694307 0)
(4.83495 0.0703325 0)
(4.69494 0.0711879 0)
(4.55293 0.0719913 0)
(4.40895 0.0727392 0)
(4.26306 0.0734285 0)
(4.11531 0.0740546 0)
(3.96577 0.0746126 0)
(3.81449 0.0750981 0)
(3.66157 0.0755071 0)
(3.50708 0.0758364 0)
(3.35113 0.0760834 0)
(3.19381 0.0762464 0)
(3.03523 0.0763249 0)
(2.87549 0.0763193 0)
(2.71472 0.0762317 0)
(2.55303 0.0760655 0)
(2.39053 0.0758259 0)
(2.22734 0.0755195 0)
(2.06358 0.075155 0)
(1.89934 0.0747424 0)
(1.73472 0.0742932 0)
(1.56983 0.0738205 0)
(1.40473 0.0733379 0)
(1.2395 0.0728601 0)
(1.0742 0.0724018 0)
(0.908863 0.0719774 0)
(0.743527 0.0716004 0)
(0.578214 0.0712841 0)
(0.412926 0.0710298 0)
(0.247691 0.0708372 0)
(0.0824578 0.0707718 0)
(9.97172 -0.0491314 0)
(9.96423 0.0105272 0)
(9.96456 0.0173865 0)
(9.9832 0.00183447 0)
(9.99195 -0.0149673 0)
(9.97998 -0.0261334 0)
(9.9641 -0.0240492 0)
(9.96007 -0.00964105 0)
(9.96723 0.00714615 0)
(9.9702 0.0169133 0)
(9.95757 0.0188236 0)
(9.93271 0.0171436 0)
(9.90906 0.0147575 0)
(9.89669 0.0130335 0)
(9.89381 0.0144946 0)
(9.88842 0.0216338 0)
(9.86787 0.0334898 0)
(9.82992 0.0451768 0)
(9.78538 0.0522833 0)
(9.74941 0.0553141 0)
(9.73036 0.0587343 0)
(9.72536 0.0662486 0)
(9.72367 0.0777421 0)
(9.71348 0.0902281 0)
(9.68719 0.100637 0)
(9.64327 0.1076 0)
(9.5849 0.111463 0)
(9.51696 0.113368 0)
(9.44372 0.114399 0)
(9.36791 0.115229 0)
(9.2909 0.116139 0)
(9.21323 0.117184 0)
(9.13502 0.118341 0)
(9.05623 0.11958 0)
(8.97678 0.120887 0)
(8.89661 0.122257 0)
(8.81567 0.123691 0)
(8.7339 0.12519 0)
(8.65126 0.126758 0)
(8.5677 0.128394 0)
(8.48316 0.130099 0)
(8.3976 0.131875 0)
(8.31097 0.133723 0)
(8.22321 0.135642 0)
(8.13428 0.137633 0)
(8.04411 0.139697 0)
(7.95265 0.141833 0)
(7.85986 0.144042 0)
(7.76567 0.146324 0)
(7.67003 0.148677 0)
(7.57289 0.151102 0)
(7.47418 0.153598 0)
(7.37385 0.156164 0)
(7.27185 0.158798 0)
(7.16811 0.1615 0)
(7.06258 0.164266 0)
(6.9552 0.167096 0)
(6.84591 0.169986 0)
(6.73465 0.172933 0)
(6.62138 0.175934 0)
(6.50602 0.178986 0)
(6.38852 0.182086 0)
(6.26884 0.18523 0)
(6.1469 0.188413 0)
(6.02266 0.191633 0)
(5.89607 0.194884 0)
(5.76708 0.198161 0)
(5.63563 0.201456 0)
(5.50168 0.204754 0)
(5.36517 0.208043 0)
(5.22607 0.211312 0)
(5.08434 0.214553 0)
(4.93995 0.217759 0)
(4.79287 0.22092 0)
(4.64308 0.224025 0)
(4.49054 0.227064 0)
(4.33525 0.230025 0)
(4.17719 0.232895 0)
(4.01637 0.235664 0)
(3.85278 0.238319 0)
(3.68644 0.240851 0)
(3.51738 0.243249 0)
(3.34561 0.245505 0)
(3.1712 0.247611 0)
(2.99418 0.249561 0)
(2.81462 0.251352 0)
(2.63259 0.252979 0)
(2.4482 0.254445 0)
(2.26153 0.255749 0)
(2.0727 0.256896 0)
(1.88185 0.257892 0)
(1.68911 0.258746 0)
(1.49464 0.259464 0)
(1.2986 0.260058 0)
(1.10119 0.260538 0)
(0.902589 0.260912 0)
(0.703 0.261195 0)
(0.50264 0.26139 0)
(0.301718 0.261553 0)
(0.100345 0.261258 0)
(9.97236 -0.0415482 0)
(9.9959 -0.0272894 0)
(10.0148 -0.0125162 0)
(9.99709 0.0111478 0)
(9.95726 0.0432841 0)
(9.93054 0.0510248 0)
(9.9107 0.0290538 0)
(9.88924 0.00867929 0)
(9.87705 0.0170445 0)
(9.88205 0.0442779 0)
(9.89568 0.0617307 0)
(9.90226 0.0572164 0)
(9.89171 0.0437394 0)
(9.86399 0.0416051 0)
(9.82682 0.0581556 0)
(9.7901 0.0830327 0)
(9.76037 0.0987595 0)
(9.73894 0.0947368 0)
(9.72396 0.0740465 0)
(9.71222 0.0505025 0)
(9.6992 0.0391827 0)
(9.68003 0.0473814 0)
(9.65118 0.0722546 0)
(9.61108 0.104836 0)
(9.55996 0.135939 0)
(9.49946 0.160003 0)
(9.4321 0.175749 0)
(9.36037 0.184731 0)
(9.28608 0.189426 0)
(9.21031 0.191957 0)
(9.1336 0.193666 0)
(9.05621 0.195218 0)
(8.97818 0.196865 0)
(8.89947 0.198666 0)
(8.82004 0.200616 0)
(8.73982 0.2027 0)
(8.65879 0.204908 0)
(8.57687 0.207234 0)
(8.49404 0.209678 0)
(8.41024 0.21224 0)
(8.32543 0.214921 0)
(8.23957 0.217723 0)
(8.1526 0.220647 0)
(8.06447 0.223695 0)
(7.97515 0.226867 0)
(7.88458 0.230165 0)
(7.79271 0.233589 0)
(7.6995 0.237141 0)
(7.60489 0.24082 0)
(7.50884 0.244627 0)
(7.4113 0.248562 0)
(7.31221 0.252624 0)
(7.21153 0.256813 0)
(7.10921 0.261129 0)
(7.0052 0.265569 0)
(6.89945 0.270132 0)
(6.79192 0.274816 0)
(6.68255 0.279618 0)
(6.5713 0.284536 0)
(6.45811 0.289564 0)
(6.34296 0.294701 0)
(6.22578 0.299942 0)
(6.10654 0.305283 0)
(5.9852 0.310719 0)
(5.86171 0.316244 0)
(5.73603 0.32185 0)
(5.60813 0.327529 0)
(5.47796 0.33327 0)
(5.3455 0.339067 0)
(5.2107 0.344914 0)
(5.07354 0.350803 0)
(4.934 0.356721 0)
(4.79204 0.362656 0)
(4.64765 0.368594 0)
(4.50081 0.374519 0)
(4.35149 0.380416 0)
(4.19968 0.386268 0)
(4.04538 0.392058 0)
(3.88859 0.397769 0)
(3.7293 0.403381 0)
(3.56752 0.408878 0)
(3.40326 0.414239 0)
(3.23655 0.419447 0)
(3.06741 0.424482 0)
(2.89588 0.429326 0)
(2.72201 0.43396 0)
(2.54584 0.438367 0)
(2.36746 0.442531 0)
(2.18694 0.446435 0)
(2.00437 0.450064 0)
(1.81986 0.453405 0)
(1.63354 0.456446 0)
(1.44555 0.459175 0)
(1.25603 0.461583 0)
(1.06515 0.463659 0)
(0.873095 0.465397 0)
(0.680058 0.466792 0)
(0.486233 0.467838 0)
(0.291876 0.468626 0)
(0.097061 0.468279 0)
(9.9146 0.018475 0)
(9.91987 -0.0372516 0)
(9.94242 0.0122564 0)
(9.94456 0.0534613 0)
(9.93437 0.0452886 0)
(9.92043 0.0258438 0)
(9.90634 0.0223167 0)
(9.89047 0.023723 0)
(9.87916 0.0130709 0)
(9.87689 -0.00266749 0)
(9.87841 -0.00298393 0)
(9.87393 0.0192494 0)
(9.86022 0.0511533 0)
(9.84374 0.0756033 0)
(9.83223 0.0864127 0)
(9.82524 0.0879532 0)
(9.81442 0.0856386 0)
(9.79204 0.0816431 0)
(9.75819 0.0777989 0)
(9.71944 0.0784174 0)
(9.68206 0.0888563 0)
(9.64733 0.111553 0)
(9.61219 0.143692 0)
(9.57219 0.178713 0)
(9.52414 0.210002 0)
(9.46733 0.233744 0)
(9.40318 0.249462 0)
(9.33388 0.258854 0)
(9.2613 0.264254 0)
(9.18668 0.267621 0)
(9.11071 0.270192 0)
(9.03374 0.272592 0)
(8.9559 0.275069 0)
(8.87723 0.277698 0)
(8.79774 0.280491 0)
(8.7174 0.283446 0)
(8.63619 0.286559 0)
(8.55407 0.289832 0)
(8.47099 0.293265 0)
(8.38692 0.29686 0)
(8.30181 0.300619 0)
(8.21561 0.304545 0)
(8.12827 0.308639 0)
(8.03974 0.312903 0)
(7.94998 0.317338 0)
(7.85894 0.321945 0)
(7.76657 0.326725 0)
(7.67281 0.331679 0)
(7.57763 0.336808 0)
(7.48096 0.342111 0)
(7.38277 0.347589 0)
(7.28299 0.35324 0)
(7.18159 0.359065 0)
(7.0785 0.365062 0)
(6.97369 0.371228 0)
(6.86711 0.377563 0)
(6.7587 0.384063 0)
(6.64842 0.390726 0)
(6.53622 0.397547 0)
(6.42206 0.404523 0)
(6.3059 0.411648 0)
(6.18769 0.418917 0)
(6.0674 0.426322 0)
(5.94497 0.433857 0)
(5.82039 0.441512 0)
(5.69361 0.449278 0)
(5.5646 0.457145 0)
(5.43332 0.465101 0)
(5.29976 0.473136 0)
(5.1639 0.481237 0)
(5.0257 0.48939 0)
(4.88515 0.497576 0)
(4.74225 0.505779 0)
(4.59698 0.51398 0)
(4.44933 0.522161 0)
(4.29931 0.530303 0)
(4.14692 0.538385 0)
(3.99218 0.546388 0)
(3.83509 0.554289 0)
(3.67568 0.562066 0)
(3.51397 0.569697 0)
(3.35 0.577158 0)
(3.18381 0.584426 0)
(3.01543 0.591475 0)
(2.84493 0.598283 0)
(2.67237 0.604823 0)
(2.4978 0.611071 0)
(2.32132 0.617002 0)
(2.14301 0.622593 0)
(1.96296 0.627818 0)
(1.78128 0.632655 0)
(1.59808 0.637082 0)
(1.41349 0.641076 0)
(1.22765 0.644619 0)
(1.04069 0.647693 0)
(0.852771 0.650282 0)
(0.664055 0.652372 0)
(0.474694 0.653942 0)
(0.284919 0.655092 0)
(0.0947487 0.654597 0)
(10.0213 0.00479958 0)
(9.99266 -0.0559538 0)
(10.0092 -0.0224616 0)
(10.0228 0.0323332 0)
(10.0169 0.0692846 0)
(9.99952 0.0737958 0)
(9.98343 0.0541675 0)
(9.97067 0.0341232 0)
(9.95387 0.0313491 0)
(9.93085 0.0462331 0)
(9.90842 0.0663125 0)
(9.89398 0.0780537 0)
(9.88674 0.0769938 0)
(9.87822 0.0718692 0)
(9.86036 0.0777695 0)
(9.83116 0.101311 0)
(9.79378 0.132256 0)
(9.75374 0.151269 0)
(9.7168 0.147484 0)
(9.68637 0.128445 0)
(9.66138 0.113698 0)
(9.63729 0.119775 0)
(9.60891 0.15005 0)
(9.57245 0.195599 0)
(9.5261 0.243145 0)
(9.47011 0.282655 0)
(9.40631 0.310326 0)
(9.33707 0.327346 0)
(9.26438 0.337066 0)
(9.1896 0.342764 0)
(9.11349 0.346687 0)
(9.03645 0.350038 0)
(8.95862 0.353341 0)
(8.88001 0.356775 0)
(8.80062 0.36039 0)
(8.7204 0.364197 0)
(8.63932 0.368199 0)
(8.55733 0.372401 0)
(8.47439 0.376805 0)
(8.39045 0.381418 0)
(8.30547 0.386241 0)
(8.21939 0.391278 0)
(8.13218 0.396532 0)
(8.04378 0.402004 0)
(7.95413 0.407697 0)
(7.8632 0.413613 0)
(7.77093 0.419752 0)
(7.67727 0.426115 0)
(7.58217 0.432703 0)
(7.48558 0.439517 0)
(7.38745 0.446556 0)
(7.28773 0.45382 0)
(7.18637 0.461307 0)
(7.08331 0.469016 0)
(6.97851 0.476946 0)
(6.87192 0.485092 0)
(6.76348 0.493453 0)
(6.65316 0.502024 0)
(6.54089 0.5108 0)
(6.42664 0.519777 0)
(6.31036 0.528946 0)
(6.19201 0.538302 0)
(6.07155 0.547834 0)
(5.94892 0.557534 0)
(5.82411 0.567391 0)
(5.69706 0.577394 0)
(5.56775 0.587528 0)
(5.43615 0.597781 0)
(5.30223 0.608138 0)
(5.16596 0.618581 0)
(5.02733 0.629093 0)
(4.88632 0.639654 0)
(4.74291 0.650243 0)
(4.59712 0.660839 0)
(4.44892 0.671418 0)
(4.29833 0.681957 0)
(4.14536 0.692428 0)
(3.99001 0.702807 0)
(3.83233 0.713065 0)
(3.67232 0.723173 0)
(3.51004 0.733102 0)
(3.34551 0.742821 0)
(3.1788 0.752299 0)
(3.00995 0.761504 0)
(2.83904 0.770403 0)
(2.66613 0.778965 0)
(2.4913 0.787154 0)
(2.31465 0.794939 0)
(2.13627 0.802286 0)
(1.95626 0.809162 0)
(1.77473 0.815536 0)
(1.59181 0.821375 0)
(1.40761 0.82665 0)
(1.22226 0.831333 0)
(1.03592 0.835399 0)
(0.848713 0.838824 0)
(0.660799 0.841591 0)
(0.472315 0.843667 0)
(0.283472 0.84518 0)
(0.0942662 0.844553 0)
(10.011 -0.0671892 0)
(9.97192 -0.0451368 0)
(9.94146 -0.0100863 0)
(9.91846 0.0425408 0)
(9.91471 0.0712066 0)
(9.93159 0.0674355 0)
(9.95728 0.0568019 0)
(9.96566 0.0543702 0)
(9.95181 0.0517314 0)
(9.92928 0.0408254 0)
(9.90994 0.0311651 0)
(9.89656 0.0380852 0)
(9.88526 0.0643902 0)
(9.86907 0.0997288 0)
(9.84219 0.132113 0)
(9.80504 0.154336 0)
(9.76476 0.163022 0)
(9.73054 0.157814 0)
(9.70805 0.143814 0)
(9.69577 0.13238 0)
(9.68566 0.136136 0)
(9.66826 0.161618 0)
(9.63791 0.205888 0)
(9.5941 0.259146 0)
(9.53933 0.31035 0)
(9.47687 0.351907 0)
(9.40947 0.381304 0)
(9.33896 0.40001 0)
(9.26632 0.411261 0)
(9.19208 0.418231 0)
(9.11656 0.42318 0)
(9.04001 0.427396 0)
(8.96255 0.431489 0)
(8.88424 0.4357 0)
(8.8051 0.440112 0)
(8.72511 0.444752 0)
(8.64426 0.449632 0)
(8.5625 0.454757 0)
(8.4798 0.460133 0)
(8.3961 0.465763 0)
(8.31136 0.471654 0)
(8.22553 0.477806 0)
(8.13857 0.484224 0)
(8.05041 0.490911 0)
(7.96102 0.497868 0)
(7.87035 0.505097 0)
(7.77834 0.5126 0)
(7.68493 0.520379 0)
(7.59009 0.528433 0)
(7.49376 0.536764 0)
(7.39589 0.545371 0)
(7.29643 0.554254 0)
(7.19532 0.563412 0)
(7.09251 0.572842 0)
(6.98796 0.582543 0)
(6.88161 0.592512 0)
(6.77341 0.602744 0)
(6.66332 0.613234 0)
(6.55127 0.623978 0)
(6.43724 0.634969 0)
(6.32117 0.646198 0)
(6.20301 0.657656 0)
(6.08272 0.669334 0)
(5.96026 0.68122 0)
(5.83559 0.693301 0)
(5.70867 0.705563 0)
(5.57946 0.71799 0)
(5.44794 0.730566 0)
(5.31408 0.743271 0)
(5.17784 0.756085 0)
(5.03921 0.768988 0)
(4.89817 0.781954 0)
(4.75471 0.79496 0)
(4.60882 0.807977 0)
(4.46049 0.820979 0)
(4.30973 0.833935 0)
(4.15656 0.846812 0)
(4.00097 0.859579 0)
(3.843 0.872199 0)
(3.68268 0.884637 0)
(3.52004 0.896856 0)
(3.35512 0.908817 0)
(3.18798 0.920481 0)
(3.01867 0.931808 0)
(2.84728 0.942758 0)
(2.67386 0.953289 0)
(2.4985 0.96336 0)
(2.32131 0.972931 0)
(2.14237 0.98196 0)
(1.9618 0.990408 0)
(1.77971 0.998235 0)
(1.59622 1.0054 0)
(1.41147 1.01188 0)
(1.22558 1.01763 0)
(1.0387 1.02262 0)
(0.850968 1.02682 0)
(0.662541 1.03021 0)
(0.473554 1.03276 0)
(0.284215 1.03462 0)
(0.0945149 1.03386 0)
(10.0154 -0.0443536 0)
(10.0297 0.000354011 0)
(10.009 0.0295159 0)
(9.98808 0.0610061 0)
(9.9752 0.0522707 0)
(9.96976 0.0233528 0)
(9.96659 0.016326 0)
(9.96463 0.0391257 0)
(9.96139 0.0698144 0)
(9.949 0.0912786 0)
(9.91976 0.102278 0)
(9.87692 0.106252 0)
(9.83554 0.107801 0)
(9.81026 0.116647 0)
(9.80275 0.141831 0)
(9.80132 0.178739 0)
(9.79195 0.207318 0)
(9.76958 0.208652 0)
(9.74005 0.183178 0)
(9.71254 0.152397 0)
(9.69077 0.143145 0)
(9.67067 0.169404 0)
(9.64454 0.226052 0)
(9.60653 0.296026 0)
(9.55513 0.361968 0)
(9.4926 0.413681 0)
(9.42285 0.449055 0)
(9.34934 0.471082 0)
(9.27416 0.484327 0)
(9.19821 0.492718 0)
(9.12176 0.498837 0)
(9.04481 0.504086 0)
(8.96727 0.509121 0)
(8.88906 0.514221 0)
(8.81011 0.519503 0)
(8.73037 0.525018 0)
(8.64977 0.530795 0)
(8.56829 0.536853 0)
(8.48586 0.543201 0)
(8.40245 0.54985 0)
(8.318 0.556805 0)
(8.23246 0.56407 0)
(8.14579 0.571649 0)
(8.05794 0.579547 0)
(7.96885 0.587765 0)
(7.87848 0.596305 0)
(7.78677 0.605171 0)
(7.69367 0.614362 0)
(7.59914 0.623881 0)
(7.50312 0.633729 0)
(7.40555 0.643904 0)
(7.3064 0.654406 0)
(7.20559 0.665235 0)
(7.10309 0.676388 0)
(6.99884 0.687863 0)
(6.89279 0.699656 0)
(6.78489 0.711763 0)
(6.67509 0.724179 0)
(6.56333 0.736896 0)
(6.44957 0.749908 0)
(6.33377 0.763205 0)
(6.21587 0.776776 0)
(6.09583 0.79061 0)
(5.9736 0.804694 0)
(5.84915 0.819013 0)
(5.72243 0.83355 0)
(5.59342 0.848286 0)
(5.46206 0.863203 0)
(5.32834 0.878278 0)
(5.19223 0.893486 0)
(5.0537 0.908803 0)
(4.91273 0.924201 0)
(4.7693 0.939649 0)
(4.62342 0.955115 0)
(4.47506 0.970566 0)
(4.32424 0.985965 0)
(4.17096 1.00127 0)
(4.01524 1.01645 0)
(3.85708 1.03146 0)
(3.69653 1.04625 0)
(3.53362 1.06079 0)
(3.36838 1.07501 0)
(3.20087 1.08889 0)
(3.03115 1.10236 0)
(2.85929 1.11538 0)
(2.68536 1.12791 0)
(2.50945 1.13988 0)
(2.33165 1.15126 0)
(2.15207 1.16198 0)
(1.97081 1.17202 0)
(1.78799 1.18131 0)
(1.60373 1.18982 0)
(1.41818 1.1975 0)
(1.23146 1.20432 0)
(1.04372 1.21023 0)
(0.855109 1.21521 0)
(0.665782 1.21923 0)
(0.475882 1.22225 0)
(0.285618 1.22445 0)
(0.0949836 1.22355 0)
(10.0355 0.0760054 0)
(10.0377 -0.00697691 0)
(10.048 0.0138388 0)
(10.0527 0.0722168 0)
(10.04 0.0967001 0)
(10.0217 0.0833844 0)
(10.0105 0.06437 0)
(10.0065 0.0583952 0)
(9.99874 0.0642355 0)
(9.97794 0.0782012 0)
(9.94777 0.0986222 0)
(9.91904 0.118355 0)
(9.898 0.128469 0)
(9.88327 0.131455 0)
(9.8719 0.141153 0)
(9.8632 0.165702 0)
(9.85601 0.19489 0)
(9.84645 0.208937 0)
(9.8298 0.199664 0)
(9.80331 0.180591 0)
(9.76692 0.176884 0)
(9.72243 0.206393 0)
(9.67204 0.26846 0)
(9.61693 0.347186 0)
(9.55713 0.423103 0)
(9.49255 0.483175 0)
(9.4238 0.523839 0)
(9.35198 0.54831 0)
(9.27811 0.562227 0)
(9.20293 0.570574 0)
(9.12685 0.576582 0)
(9.0501 0.581918 0)
(8.97273 0.587278 0)
(8.8947 0.592897 0)
(8.81597 0.598837 0)
(8.73647 0.60511 0)
(8.65616 0.611722 0)
(8.57498 0.618676 0)
(8.49287 0.625978 0)
(8.40978 0.633633 0)
(8.32566 0.641644 0)
(8.24046 0.650016 0)
(8.15413 0.658753 0)
(8.06662 0.667858 0)
(7.97788 0.677334 0)
(7.88785 0.687184 0)
(7.7965 0.697409 0)
(7.70375 0.708013 0)
(7.60958 0.718996 0)
(7.51391 0.730358 0)
(7.4167 0.742101 0)
(7.3179 0.754224 0)
(7.21745 0.766726 0)
(7.1153 0.779604 0)
(7.01139 0.792856 0)
(6.90569 0.806478 0)
(6.79812 0.820465 0)
(6.68865 0.834811 0)
(6.57722 0.849509 0)
(6.46378 0.86455 0)
(6.34828 0.879924 0)
(6.23067 0.89562 0)
(6.11091 0.911623 0)
(5.98896 0.92792 0)
(5.86476 0.944492 0)
(5.73827 0.961322 0)
(5.60947 0.978388 0)
(5.4783 0.995667 0)
(5.34475 1.01313 0)
(5.20878 1.03076 0)
(5.07036 1.04852 0)
(4.92947 1.06638 0)
(4.78609 1.0843 0)
(4.64022 1.10225 0)
(4.49184 1.12019 0)
(4.34095 1.13807 0)
(4.18756 1.15585 0)
(4.03169 1.17349 0)
(3.87333 1.19093 0)
(3.71254 1.20812 0)
(3.54932 1.22502 0)
(3.38374 1.24157 0)
(3.21583 1.25771 0)
(3.04565 1.27338 0)
(2.87328 1.28853 0)
(2.69878 1.3031 0)
(2.52225 1.31703 0)
(2.34378 1.33027 0)
(2.16346 1.34275 0)
(1.98142 1.35442 0)
(1.79776 1.36523 0)
(1.61262 1.37512 0)
(1.42614 1.38406 0)
(1.23845 1.39198 0)
(1.0497 1.39885 0)
(0.860052 1.40464 0)
(0.669657 1.40931 0)
(0.478666 1.41282 0)
(0.287295 1.41537 0)
(0.0955437 1.41433 0)
(9.97818 0.00895486 0)
(9.96935 -0.0261792 0)
(9.98393 0.00676367 0)
(10.0038 0.0596658 0)
(10.0326 0.0706749 0)
(10.0489 0.0442698 0)
(10.0447 0.0293321 0)
(10.0242 0.053735 0)
(9.99228 0.103439 0)
(9.95456 0.14742 0)
(9.91857 0.166315 0)
(9.89144 0.16092 0)
(9.87635 0.146584 0)
(9.86993 0.142642 0)
(9.864 0.160304 0)
(9.85095 0.193879 0)
(9.82805 0.224614 0)
(9.7985 0.235853 0)
(9.76867 0.227376 0)
(9.74288 0.216415 0)
(9.7196 0.224972 0)
(9.69297 0.264954 0)
(9.65762 0.332308 0)
(9.61166 0.411924 0)
(9.55609 0.487231 0)
(9.49315 0.547493 0)
(9.42519 0.589774 0)
(9.35407 0.616748 0)
(9.28095 0.633258 0)
(9.20651 0.643797 0)
(9.13114 0.651475 0)
(9.055 0.658061 0)
(8.97817 0.664414 0)
(8.90063 0.670901 0)
(8.82233 0.677672 0)
(8.74326 0.684785 0)
(8.66334 0.692268 0)
(8.58255 0.700135 0)
(8.50082 0.708395 0)
(8.41812 0.717055 0)
(8.33439 0.726121 0)
(8.24958 0.735597 0)
(8.16364 0.745489 0)
(8.07652 0.755798 0)
(7.98818 0.76653 0)
(7.89856 0.777686 0)
(7.8076 0.78927 0)
(7.71527 0.801284 0)
(7.62149 0.81373 0)
(7.52623 0.826608 0)
(7.42943 0.83992 0)
(7.33103 0.853664 0)
(7.23098 0.86784 0)
(7.12924 0.882446 0)
(7.02573 0.897479 0)
(6.92042 0.912935 0)
(6.81324 0.928808 0)
(6.70415 0.945092 0)
(6.59309 0.961779 0)
(6.48002 0.97886 0)
(6.36487 0.996323 0)
(6.2476 1.01416 0)
(6.12816 1.03234 0)
(6.00651 1.05087 0)
(5.8826 1.06971 0)
(5.75638 1.08886 0)
(5.62782 1.10828 0)
(5.49688 1.12794 0)
(5.36351 1.14783 0)
(5.2277 1.16791 0)
(5.08941 1.18814 0)
(4.94861 1.20849 0)
(4.80529 1.22893 0)
(4.65942 1.2494 0)
(4.51102 1.26986 0)
(4.36005 1.29027 0)
(4.20654 1.31057 0)
(4.05048 1.33071 0)
(3.8919 1.35064 0)
(3.73082 1.37029 0)
(3.56726 1.38961 0)
(3.40128 1.40854 0)
(3.23291 1.427 0)
(3.06221 1.44493 0)
(2.88925 1.46227 0)
(2.7141 1.47895 0)
(2.53686 1.4949 0)
(2.35761 1.51005 0)
(2.17646 1.52435 0)
(1.99352 1.53772 0)
(1.80891 1.5501 0)
(1.62276 1.56143 0)
(1.43522 1.57166 0)
(1.24642 1.58073 0)
(1.05653 1.58861 0)
(0.865688 1.59523 0)
(0.674075 1.60058 0)
(0.48184 1.6046 0)
(0.289208 1.60751 0)
(0.0961819 1.60635 0)
(10.0027 0.00437879 0)
(10.0242 -0.0472651 0)
(10.0147 0.00348988 0)
(9.98915 0.0505226 0)
(9.97411 0.0721204 0)
(9.9687 0.0779837 0)
(9.95422 0.0872318 0)
(9.9316 0.106584 0)
(9.91682 0.12825 0)
(9.91692 0.14516 0)
(9.9208 0.155241 0)
(9.91231 0.156151 0)
(9.88833 0.148506 0)
(9.86042 0.144363 0)
(9.84013 0.161384 0)
(9.82695 0.202717 0)
(9.8114 0.247272 0)
(9.78712 0.266908 0)
(9.7579 0.25363 0)
(9.73251 0.228888 0)
(9.7147 0.226748 0)
(9.69956 0.268271 0)
(9.6778 0.34944 0)
(9.64199 0.448467 0)
(9.59002 0.541563 0)
(9.52467 0.614203 0)
(9.45097 0.66325 0)
(9.37355 0.693032 0)
(9.29527 0.710276 0)
(9.21732 0.720803 0)
(9.13989 0.728415 0)
(9.06273 0.735128 0)
(8.98552 0.74183 0)
(8.90796 0.748847 0)
(8.82985 0.756277 0)
(8.75107 0.764144 0)
(8.67151 0.772454 0)
(8.5911 0.78121 0)
(8.50979 0.790416 0)
(8.4275 0.800074 0)
(8.3442 0.810189 0)
(8.25983 0.820765 0)
(8.17433 0.831806 0)
(8.08766 0.843317 0)
(7.99976 0.855301 0)
(7.91059 0.867761 0)
(7.82009 0.880702 0)
(7.72821 0.894125 0)
(7.6349 0.908032 0)
(7.5401 0.922426 0)
(7.44376 0.937306 0)
(7.34582 0.952673 0)
(7.24623 0.968526 0)
(7.14493 0.984862 0)
(7.04188 1.00168 0)
(6.93701 1.01897 0)
(6.83028 1.03674 0)
(6.72162 1.05497 0)
(6.61099 1.07366 0)
(6.49832 1.09279 0)
(6.38357 1.11235 0)
(6.26669 1.13234 0)
(6.14763 1.15273 0)
(6.02633 1.1735 0)
(5.90274 1.19464 0)
(5.77684 1.21612 0)
(5.64855 1.23791 0)
(5.51786 1.26 0)
(5.38472 1.28234 0)
(5.24909 1.3049 0)
(5.11095 1.32764 0)
(4.97026 1.35053 0)
(4.827 1.37351 0)
(4.68116 1.39655 0)
(4.53272 1.41959 0)
(4.38168 1.44257 0)
(4.22803 1.46545 0)
(4.07178 1.48816 0)
(3.91294 1.51063 0)
(3.75154 1.5328 0)
(3.5876 1.5546 0)
(3.42116 1.57596 0)
(3.25227 1.59681 0)
(3.08098 1.61707 0)
(2.90735 1.63667 0)
(2.73147 1.65552 0)
(2.55342 1.67356 0)
(2.37329 1.6907 0)
(2.19119 1.70687 0)
(2.00723 1.722 0)
(1.82154 1.73601 0)
(1.63425 1.74884 0)
(1.44551 1.76042 0)
(1.25545 1.77069 0)
(1.06425 1.7796 0)
(0.87207 1.78711 0)
(0.679077 1.79316 0)
(0.485434 1.79771 0)
(0.291372 1.80101 0)
(0.0969044 1.79973 0)
(10.0091 -0.0485487 0)
(9.94785 -0.0415157 0)
(9.96824 0.0124043 0)
(9.98094 0.0588702 0)
(10.0026 0.068269 0)
(10.0109 0.0615373 0)
(9.99995 0.0707383 0)
(9.98207 0.0974399 0)
(9.96931 0.125545 0)
(9.96103 0.150852 0)
(9.94698 0.177208 0)
(9.92115 0.197552 0)
(9.88696 0.199721 0)
(9.85138 0.189627 0)
(9.81977 0.191922 0)
(9.79457 0.221974 0)
(9.77504 0.265147 0)
(9.759 0.29043 0)
(9.74495 0.283003 0)
(9.73184 0.260357 0)
(9.7173 0.257923 0)
(9.69748 0.301061 0)
(9.66851 0.388789 0)
(9.62787 0.498669 0)
(9.57521 0.603523 0)
(9.51242 0.68544 0)
(9.44277 0.739834 0)
(9.36947 0.771558 0)
(9.29466 0.788765 0)
(9.21935 0.798593 0)
(9.14383 0.805614 0)
(9.06806 0.812115 0)
(8.99187 0.818976 0)
(8.9151 0.826427 0)
(8.83765 0.834473 0)
(8.75944 0.843074 0)
(8.68041 0.852202 0)
(8.60051 0.86184 0)
(8.51969 0.871985 0)
(8.43789 0.882636 0)
(8.35508 0.893795 0)
(8.27119 0.905467 0)
(8.18619 0.917654 0)
(8.10002 0.930362 0)
(8.01263 0.943595 0)
(7.92396 0.957357 0)
(7.83397 0.971651 0)
(7.7426 0.986481 0)
(7.6498 1.00185 0)
(7.55551 1.01776 0)
(7.45968 1.03421 0)
(7.36225 1.0512 0)
(7.26318 1.06873 0)
(7.16239 1.0868 0)
(7.05985 1.1054 0)
(6.95548 1.12454 0)
(6.84924 1.14421 0)
(6.74107 1.16439 0)
(6.63091 1.18509 0)
(6.51871 1.20628 0)
(6.40442 1.22796 0)
(6.28797 1.25012 0)
(6.16933 1.27272 0)
(6.04842 1.29577 0)
(5.92522 1.31922 0)
(5.79966 1.34307 0)
(5.6717 1.36727 0)
(5.5413 1.3918 0)
(5.40841 1.41662 0)
(5.273 1.4417 0)
(5.13503 1.467 0)
(4.99448 1.49246 0)
(4.85131 1.51805 0)
(4.7055 1.54371 0)
(4.55704 1.56937 0)
(4.40591 1.59499 0)
(4.25212 1.6205 0)
(4.09566 1.64583 0)
(3.93654 1.67091 0)
(3.77479 1.69567 0)
(3.61043 1.72003 0)
(3.44349 1.7439 0)
(3.27402 1.76721 0)
(3.10207 1.78987 0)
(2.9277 1.8118 0)
(2.751 1.83291 0)
(2.57204 1.85311 0)
(2.39093 1.87231 0)
(2.20776 1.89043 0)
(2.02266 1.90739 0)
(1.83576 1.9231 0)
(1.64718 1.93748 0)
(1.45708 1.95047 0)
(1.26562 1.962 0)
(1.07295 1.972 0)
(0.879254 1.98042 0)
(0.684706 1.98722 0)
(0.489478 1.99232 0)
(0.293808 1.99602 0)
(0.0977175 1.99464 0)
(10 -0.182099 0)
(10.0207 -0.0661863 0)
(10.0097 0.0226286 0)
(10.005 0.0588667 0)
(10.0031 0.0690841 0)
(9.9949 0.0854445 0)
(9.98236 0.110245 0)
(9.96711 0.128975 0)
(9.94892 0.141242 0)
(9.92846 0.160135 0)
(9.91044 0.188948 0)
(9.90086 0.212904 0)
(9.9005 0.218326 0)
(9.90133 0.213062 0)
(9.89114 0.21979 0)
(9.863 0.248662 0)
(9.81956 0.283051 0)
(9.76993 0.296005 0)
(9.72449 0.279555 0)
(9.69007 0.256004 0)
(9.66677 0.261126 0)
(9.64853 0.317215 0)
(9.62715 0.419401 0)
(9.59626 0.542435 0)
(9.55325 0.657824 0)
(9.499 0.747403 0)
(9.43631 0.806925 0)
(9.36823 0.841865 0)
(9.29703 0.861041 0)
(9.22405 0.872135 0)
(9.14999 0.880081 0)
(9.07516 0.887367 0)
(8.99965 0.894977 0)
(8.92344 0.903182 0)
(8.84651 0.912009 0)
(8.7688 0.921427 0)
(8.69028 0.931411 0)
(8.61089 0.941951 0)
(8.53058 0.953042 0)
(8.44932 0.964687 0)
(8.36703 0.976889 0)
(8.28369 0.989652 0)
(8.19923 1.00298 0)
(8.1136 1.01688 0)
(8.02676 1.03136 0)
(7.93865 1.04642 0)
(7.84922 1.06206 0)
(7.75841 1.0783 0)
(7.66618 1.09512 0)
(7.57246 1.11255 0)
(7.4772 1.13056 0)
(7.38034 1.14918 0)
(7.28183 1.16839 0)
(7.18161 1.1882 0)
(7.07963 1.2086 0)
(6.97582 1.22959 0)
(6.87013 1.25116 0)
(6.7625 1.27331 0)
(6.65288 1.29602 0)
(6.5412 1.31929 0)
(6.42741 1.3431 0)
(6.31146 1.36744 0)
(6.19328 1.39229 0)
(6.07283 1.41762 0)
(5.95004 1.44342 0)
(5.82488 1.46965 0)
(5.69729 1.49629 0)
(5.56722 1.52331 0)
(5.43463 1.55065 0)
(5.29947 1.5783 0)
(5.16171 1.60619 0)
(5.02131 1.63428 0)
(4.87824 1.66252 0)
(4.73248 1.69085 0)
(4.58401 1.71921 0)
(4.43281 1.74752 0)
(4.27887 1.77573 0)
(4.12219 1.80376 0)
(3.96278 1.83153 0)
(3.80065 1.85895 0)
(3.63583 1.88594 0)
(3.46834 1.91241 0)
(3.29824 1.93826 0)
(3.12556 1.96341 0)
(2.95038 1.98776 0)
(2.77277 2.01121 0)
(2.59282 2.03365 0)
(2.41061 2.055 0)
(2.22626 2.07516 0)
(2.0399 2.09402 0)
(1.85164 2.11151 0)
(1.66163 2.12752 0)
(1.47002 2.14199 0)
(1.27698 2.15483 0)
(1.08267 2.16597 0)
(0.887284 2.17536 0)
(0.691 2.18293 0)
(0.494 2.18862 0)
(0.296532 2.19274 0)
(0.0986266 2.19126 0)
(10.0923 -0.0548182 0)
(10.0724 -0.0348644 0)
(10.0453 0.000823827 0)
(10.0474 0.039006 0)
(10.0358 0.0597945 0)
(10.0021 0.07756 0)
(9.97582 0.105266 0)
(9.97044 0.140617 0)
(9.97144 0.172947 0)
(9.96081 0.196723 0)
(9.93497 0.210225 0)
(9.90327 0.209964 0)
(9.87606 0.19899 0)
(9.85708 0.196927 0)
(9.84424 0.227632 0)
(9.83223 0.291878 0)
(9.81482 0.357946 0)
(9.788 0.385925 0)
(9.75233 0.363631 0)
(9.71232 0.319398 0)
(9.67334 0.301142 0)
(9.63834 0.342205 0)
(9.6063 0.442129 0)
(9.57297 0.573079 0)
(9.53364 0.700734 0)
(9.48567 0.801929 0)
(9.42924 0.870025 0)
(9.36617 0.91032 0)
(9.29856 0.932501 0)
(9.22805 0.94524 0)
(9.15571 0.954187 0)
(9.08212 0.962232 0)
(9.00757 0.970543 0)
(8.93216 0.979465 0)
(8.85592 0.989045 0)
(8.77886 0.999261 0)
(8.70094 1.01009 0)
(8.62215 1.02152 0)
(8.54243 1.03355 0)
(8.46174 1.04618 0)
(8.38005 1.05942 0)
(8.29729 1.07327 0)
(8.21343 1.08774 0)
(8.1284 1.10283 0)
(8.04217 1.11855 0)
(7.95467 1.1349 0)
(7.86585 1.15189 0)
(7.77566 1.16952 0)
(7.68405 1.18781 0)
(7.59095 1.20674 0)
(7.49631 1.22633 0)
(7.40008 1.24656 0)
(7.3022 1.26746 0)
(7.2026 1.28901 0)
(7.10124 1.3112 0)
(6.99804 1.33405 0)
(6.89296 1.35753 0)
(6.78593 1.38165 0)
(6.6769 1.4064 0)
(6.5658 1.43176 0)
(6.45257 1.45772 0)
(6.33716 1.48426 0)
(6.21951 1.51137 0)
(6.09956 1.53902 0)
(5.97725 1.56718 0)
(5.85253 1.59584 0)
(5.72535 1.62495 0)
(5.59566 1.65448 0)
(5.4634 1.68439 0)
(5.32854 1.71464 0)
(5.19102 1.74518 0)
(5.05081 1.77595 0)
(4.90787 1.8069 0)
(4.76218 1.83797 0)
(4.61371 1.86908 0)
(4.46244 1.90016 0)
(4.30835 1.93115 0)
(4.15145 1.96195 0)
(3.99173 1.99248 0)
(3.8292 2.02265 0)
(3.66388 2.05237 0)
(3.49581 2.08152 0)
(3.32502 2.11002 0)
(3.15156 2.13776 0)
(2.97549 2.16462 0)
(2.79689 2.1905 0)
(2.61583 2.2153 0)
(2.43243 2.23889 0)
(2.24678 2.26117 0)
(2.05901 2.28204 0)
(1.86926 2.30138 0)
(1.67766 2.31911 0)
(1.48438 2.33513 0)
(1.2896 2.34935 0)
(1.09347 2.3617 0)
(0.896207 2.3721 0)
(0.697995 2.3805 0)
(0.499026 2.3868 0)
(0.29956 2.39137 0)
(0.0996373 2.3898 0)
(10.1107 0.186945 0)
(10.1124 0.0905153 0)
(10.0353 0.067717 0)
(9.99043 0.100733 0)
(9.98409 0.132398 0)
(9.97616 0.142245 0)
(9.95362 0.131481 0)
(9.93439 0.123427 0)
(9.93132 0.142334 0)
(9.93794 0.189297 0)
(9.93837 0.241291 0)
(9.92383 0.270031 0)
(9.89866 0.265662 0)
(9.87183 0.247166 0)
(9.84809 0.246962 0)
(9.82773 0.279924 0)
(9.80908 0.328083 0)
(9.79001 0.358248 0)
(9.7688 0.354608 0)
(9.74373 0.334399 0)
(9.71292 0.334373 0)
(9.67579 0.383394 0)
(9.63385 0.484217 0)
(9.58882 0.61508 0)
(9.54077 0.745415 0)
(9.48858 0.852146 0)
(9.43146 0.926803 0)
(9.3695 0.972964 0)
(9.30351 0.999558 0)
(9.23446 1.01531 0)
(9.16326 1.02625 0)
(9.09055 1.03568 0)
(9.01672 1.04507 0)
(8.94195 1.05491 0)
(8.86632 1.06536 0)
(8.78985 1.07644 0)
(8.71254 1.08814 0)
(8.63435 1.10048 0)
(8.55525 1.11345 0)
(8.47519 1.12707 0)
(8.39412 1.14134 0)
(8.31201 1.15627 0)
(8.22879 1.17187 0)
(8.14441 1.18814 0)
(8.05883 1.2051 0)
(7.972 1.22274 0)
(7.88385 1.24107 0)
(7.79433 1.2601 0)
(7.7034 1.27984 0)
(7.61098 1.30028 0)
(7.51702 1.32143 0)
(7.42148 1.3433 0)
(7.32427 1.36587 0)
(7.22536 1.38916 0)
(7.12467 1.41316 0)
(7.02215 1.43787 0)
(6.91774 1.46328 0)
(6.81137 1.48938 0)
(6.70298 1.51617 0)
(6.59252 1.54363 0)
(6.47991 1.57175 0)
(6.36511 1.60052 0)
(6.24804 1.6299 0)
(6.12864 1.65989 0)
(6.00687 1.69046 0)
(5.88265 1.72157 0)
(5.75593 1.75318 0)
(5.62666 1.78528 0)
(5.49479 1.8178 0)
(5.36025 1.8507 0)
(5.22302 1.88394 0)
(5.08303 1.91745 0)
(4.94026 1.95117 0)
(4.79466 1.98504 0)
(4.64621 2.01898 0)
(4.49488 2.05291 0)
(4.34065 2.08675 0)
(4.18352 2.12042 0)
(4.02348 2.1538 0)
(3.86053 2.18682 0)
(3.69469 2.21935 0)
(3.526 2.2513 0)
(3.35447 2.28255 0)
(3.18016 2.31297 0)
(3.00313 2.34246 0)
(2.82344 2.37089 0)
(2.6412 2.39814 0)
(2.45648 2.42408 0)
(2.26941 2.4486 0)
(2.08011 2.47157 0)
(1.88871 2.49288 0)
(1.69537 2.51241 0)
(1.50026 2.53007 0)
(1.30354 2.54575 0)
(1.10542 2.55937 0)
(0.906074 2.57084 0)
(0.705732 2.58012 0)
(0.504586 2.58707 0)
(0.30291 2.59211 0)
(0.100755 2.59047 0)
(9.99388 0.0676549 0)
(9.94507 0.0715481 0)
(9.99094 0.0478312 0)
(10.0302 0.0321541 0)