/*--------------------------------*- C++ -*----------------------------------*\
| =========                 |                                                 |
| \\      /  F ield         | OpenFOAM: The Open Source CFD Toolbox           |
|  \\    /   O peration     | Version:  4.1                                   |
|   \\  /    A nd           | Web:      www.OpenFOAM.org                      |
|    \\/     M anipulation  |                                                 |
\*---------------------------------------------------------------------------*/
FoamFile
{
    version     2.0;
    format      ascii;
    class       volVectorField;
    location    "0.051";
    object      UMean;
}
// * * * * * * * * * * * * * * * * * * * * * * * * * * * * * * * * * * * * * //

dimensions      [0 1 -1 0 0 0 0];

internalField   nonuniform List<vector> 
43750
(
(9.88888 0.00712025 0)
(10.0438 0.0101653 0)
(9.95319 0.01152 0)
(9.96103 0.0124194 0)
(9.95208 0.0130571 0)
(9.9328 0.0138179 0)
(9.91139 0.0153573 0)
(9.88808 0.0173097 0)
(9.8619 0.0187272 0)
(9.83283 0.0194762 0)
(9.80108 0.0203308 0)
(9.76654 0.0219425 0)
(9.72884 0.0240457 0)
(9.68791 0.0257106 0)
(9.64418 0.0262858 0)
(9.59822 0.0260566 0)
(9.5503 0.0260197 0)
(9.50024 0.027055 0)
(9.44762 0.0292472 0)
(9.39211 0.0318841 0)
(9.33373 0.034019 0)
(9.27302 0.0350668 0)
(9.21075 0.0350316 0)
(9.14764 0.0343404 0)
(9.08414 0.0335089 0)
(9.02037 0.0328907 0)
(8.95629 0.0326117 0)
(8.89177 0.0326375 0)
(8.82664 0.0328736 0)
(8.7608 0.0332324 0)
(8.69417 0.0336566 0)
(8.6267 0.0341168 0)
(8.55833 0.0346014 0)
(8.48903 0.0351071 0)
(8.41875 0.0356335 0)
(8.34745 0.036181 0)
(8.27508 0.0367501 0)
(8.20161 0.037341 0)
(8.12699 0.037954 0)
(8.05116 0.0385894 0)
(7.97409 0.0392473 0)
(7.89573 0.0399278 0)
(7.81603 0.040631 0)
(7.73495 0.0413572 0)
(7.65243 0.0421063 0)
(7.56843 0.0428784 0)
(7.48289 0.0436734 0)
(7.39578 0.0444914 0)
(7.30704 0.0453321 0)
(7.21662 0.0461955 0)
(7.12448 0.0470812 0)
(7.03056 0.0479891 0)
(6.93482 0.0489187 0)
(6.8372 0.0498695 0)
(6.73767 0.0508411 0)
(6.63618 0.0518328 0)
(6.53268 0.0528439 0)
(6.42712 0.0538736 0)
(6.31947 0.054921 0)
(6.20969 0.0559852 0)
(6.09772 0.057065 0)
(5.98355 0.0581593 0)
(5.86713 0.0592669 0)
(5.74842 0.0603867 0)
(5.62741 0.0615172 0)
(5.50407 0.0626575 0)
(5.37837 0.0638061 0)
(5.2503 0.0649623 0)
(5.11986 0.0661209 0)
(4.98702 0.0672724 0)
(4.8518 0.06841 0)
(4.71417 0.06953 0)
(4.57417 0.07063 0)
(4.43179 0.0717074 0)
(4.28705 0.0727588 0)
(4.13999 0.0737811 0)
(3.99064 0.074771 0)
(3.83904 0.0757255 0)
(3.68522 0.0766416 0)
(3.52926 0.0775163 0)
(3.37121 0.078347 0)
(3.21113 0.0791315 0)
(3.0491 0.0798677 0)
(2.8852 0.0805541 0)
(2.71951 0.0811897 0)
(2.55213 0.0817738 0)
(2.38315 0.0823064 0)
(2.21268 0.0827879 0)
(2.04081 0.0832195 0)
(1.86765 0.0836024 0)
(1.69331 0.0839388 0)
(1.51791 0.0842309 0)
(1.34155 0.0844811 0)
(1.16435 0.0846923 0)
(0.986425 0.0848673 0)
(0.807884 0.0850086 0)
(0.628843 0.085119 0)
(0.449413 0.085197 0)
(0.269719 0.0852424 0)
(0.0898626 0.0852597 0)
(9.90767 0.00642834 0)
(10.0686 0.00729397 0)
(9.98368 0.00911198 0)
(9.9963 0.0123819 0)
(9.99031 0.0165985 0)
(9.97359 0.021667 0)
(9.95596 0.0271943 0)
(9.9381 0.0325009 0)
(9.91796 0.0372114 0)
(9.8945 0.0414438 0)
(9.86808 0.045551 0)
(9.83956 0.0497586 0)
(9.80929 0.0541173 0)
(9.77699 0.058615 0)
(9.74207 0.0631721 0)
(9.70426 0.067591 0)
(9.66387 0.0716387 0)
(9.62163 0.0752276 0)
(9.57812 0.0784907 0)
(9.53327 0.081635 0)
(9.48642 0.0847226 0)
(9.43679 0.0876148 0)
(9.38388 0.0901054 0)
(9.32774 0.092086 0)
(9.26879 0.0936036 0)
(9.2077 0.0948075 0)
(9.1451 0.0958619 0)
(9.08142 0.0968886 0)
(9.0169 0.0979544 0)
(8.95165 0.0990847 0)
(8.88567 0.100284 0)
(8.81894 0.101551 0)
(8.75142 0.102883 0)
(8.68306 0.10428 0)
(8.61381 0.105741 0)
(8.54363 0.107268 0)
(8.47247 0.108862 0)
(8.40028 0.110524 0)
(8.32703 0.112255 0)
(8.25265 0.114056 0)
(8.17711 0.115927 0)
(8.10034 0.11787 0)
(8.02231 0.119885 0)
(7.94296 0.121973 0)
(7.86224 0.124136 0)
(7.78009 0.126372 0)
(7.69647 0.128683 0)
(7.61132 0.13107 0)
(7.52458 0.133532 0)
(7.43621 0.13607 0)
(7.34614 0.138683 0)
(7.25432 0.141372 0)
(7.16069 0.144136 0)
(7.06521 0.146974 0)
(6.9678 0.149887 0)
(6.86843 0.152872 0)
(6.76702 0.155928 0)
(6.66352 0.159054 0)
(6.55789 0.162248 0)
(6.45005 0.165508 0)
(6.33997 0.16883 0)
(6.22758 0.172213 0)
(6.11283 0.175652 0)
(5.99567 0.179145 0)
(5.87606 0.182688 0)
(5.75394 0.186277 0)
(5.62928 0.189909 0)
(5.50202 0.193578 0)
(5.37212 0.197276 0)
(5.23955 0.200992 0)
(5.10428 0.204717 0)
(4.96628 0.208445 0)
(4.82553 0.212167 0)
(4.682 0.215877 0)
(4.53569 0.219564 0)
(4.38659 0.22322 0)
(4.2347 0.226834 0)
(4.08001 0.230396 0)
(3.92256 0.233895 0)
(3.76235 0.23732 0)
(3.59941 0.240661 0)
(3.43379 0.243906 0)
(3.26554 0.247045 0)
(3.0947 0.250067 0)
(2.92135 0.252961 0)
(2.74557 0.255718 0)
(2.56744 0.258329 0)
(2.38707 0.260785 0)
(2.20456 0.263077 0)
(2.02004 0.2652 0)
(1.83364 0.267146 0)
(1.6455 0.26891 0)
(1.45577 0.270486 0)
(1.26461 0.271872 0)
(1.07221 0.273064 0)
(0.878722 0.274058 0)
(0.684349 0.274854 0)
(0.48928 0.275449 0)
(0.293714 0.275861 0)
(0.0978004 0.275826 0)
(9.87936 0.00374876 0)
(10.0425 0.0144561 0)
(9.95608 0.023401 0)
(9.96551 0.0311299 0)
(9.95814 0.0375994 0)
(9.94139 0.0432548 0)
(9.92359 0.0493303 0)
(9.90555 0.0564939 0)
(9.88578 0.0639328 0)
(9.86277 0.0704715 0)
(9.8358 0.0759792 0)
(9.80504 0.0813018 0)
(9.7712 0.08719 0)
(9.73507 0.0935609 0)
(9.69719 0.0996882 0)
(9.65765 0.104937 0)
(9.61621 0.109332 0)
(9.57252 0.11354 0)
(9.52629 0.118396 0)
(9.47729 0.124347 0)
(9.42545 0.131179 0)
(9.37087 0.138184 0)
(9.31386 0.144569 0)
(9.2548 0.149819 0)
(9.19409 0.153829 0)
(9.13208 0.156808 0)
(9.06907 0.159105 0)
(9.00522 0.161047 0)
(8.94062 0.162872 0)
(8.87528 0.164714 0)
(8.80918 0.166638 0)
(8.7423 0.168668 0)
(8.67459 0.170809 0)
(8.60601 0.173061 0)
(8.53651 0.175426 0)
(8.46606 0.177903 0)
(8.3946 0.180494 0)
(8.3221 0.183199 0)
(8.2485 0.18602 0)
(8.17375 0.188959 0)
(8.09783 0.192019 0)
(8.02066 0.195199 0)
(7.94222 0.198502 0)
(7.86244 0.20193 0)
(7.78128 0.205483 0)
(7.69869 0.209163 0)
(7.61461 0.212971 0)
(7.52901 0.216908 0)
(7.44181 0.220975 0)
(7.35299 0.225173 0)
(7.26247 0.229503 0)
(7.17022 0.233963 0)
(7.07617 0.238555 0)
(6.98028 0.243277 0)
(6.88249 0.24813 0)
(6.78276 0.253113 0)
(6.68102 0.258223 0)
(6.57723 0.263458 0)
(6.47135 0.268817 0)
(6.36331 0.274296 0)
(6.25307 0.279892 0)
(6.14058 0.2856 0)
(6.0258 0.291417 0)
(5.90869 0.297335 0)
(5.78919 0.303351 0)
(5.66727 0.309457 0)
(5.5429 0.315646 0)
(5.41603 0.321908 0)
(5.28663 0.328236 0)
(5.15467 0.334622 0)
(5.02014 0.341056 0)
(4.883 0.347528 0)
(4.74324 0.354025 0)
(4.60084 0.360533 0)
(4.45581 0.367037 0)
(4.30813 0.373521 0)
(4.15781 0.379968 0)
(4.00486 0.38636 0)
(3.84929 0.392681 0)
(3.69113 0.39891 0)
(3.53041 0.405028 0)
(3.36717 0.411015 0)
(3.20145 0.41685 0)
(3.03331 0.422512 0)
(2.86281 0.42798 0)
(2.69004 0.433233 0)
(2.51506 0.43825 0)
(2.33798 0.443009 0)
(2.15889 0.447492 0)
(1.97792 0.451677 0)
(1.79517 0.455548 0)
(1.61079 0.459085 0)
(1.42492 0.462274 0)
(1.23771 0.465097 0)
(1.04932 0.467542 0)
(0.859913 0.469597 0)
(0.669667 0.471252 0)
(0.478756 0.4725 0)
(0.287391 0.473369 0)
(0.0956913 0.473363 0)
(9.88284 0.00279665 0)
(10.0387 0.0144521 0)
(9.95063 0.0253338 0)
(9.96174 0.0337509 0)
(9.95607 0.0418193 0)
(9.93965 0.0508765 0)
(9.92159 0.0605345 0)
(9.90314 0.0702369 0)
(9.88291 0.080241 0)
(9.85968 0.0910416 0)
(9.83296 0.10238 0)
(9.80296 0.113326 0)
(9.7702 0.123146 0)
(9.73501 0.131848 0)
(9.69727 0.139942 0)
(9.65663 0.147911 0)
(9.613 0.155994 0)
(9.56671 0.164296 0)
(9.51827 0.172882 0)
(9.468 0.181685 0)
(9.41587 0.190408 0)
(9.36175 0.198561 0)
(9.30553 0.205669 0)
(9.24731 0.211478 0)
(9.18731 0.216032 0)
(9.12586 0.219607 0)
(9.06325 0.222559 0)
(8.99969 0.225204 0)
(8.93529 0.22777 0)
(8.87008 0.230385 0)
(8.80408 0.233113 0)
(8.73726 0.23598 0)
(8.66959 0.238996 0)
(8.60103 0.242163 0)
(8.53155 0.245483 0)
(8.4611 0.248958 0)
(8.38963 0.252591 0)
(8.31711 0.256383 0)
(8.24349 0.260337 0)
(8.16872 0.264456 0)
(8.09275 0.268741 0)
(8.01554 0.273195 0)
(7.93703 0.277819 0)
(7.85718 0.282617 0)
(7.77594 0.287588 0)
(7.69325 0.292737 0)
(7.60908 0.298063 0)
(7.52336 0.303568 0)
(7.43604 0.309254 0)
(7.34707 0.315121 0)
(7.25641 0.32117 0)
(7.16399 0.327401 0)
(7.06977 0.333815 0)
(6.97369 0.34041 0)
(6.8757 0.347186 0)
(6.77575 0.354142 0)
(6.67378 0.361275 0)
(6.56975 0.368583 0)
(6.46361 0.376064 0)
(6.3553 0.383712 0)
(6.24479 0.391524 0)
(6.13201 0.399494 0)
(6.01693 0.407617 0)
(5.8995 0.415884 0)
(5.77968 0.424289 0)
(5.65744 0.432821 0)
(5.53273 0.441471 0)
(5.40552 0.450226 0)
(5.27578 0.459075 0)
(5.14349 0.468004 0)
(5.00862 0.476999 0)
(4.87115 0.486043 0)
(4.73107 0.495117 0)
(4.58838 0.504202 0)
(4.44306 0.513278 0)
(4.29512 0.522324 0)
(4.14457 0.531316 0)
(3.99143 0.540232 0)
(3.83571 0.549046 0)
(3.67744 0.557733 0)
(3.51667 0.566266 0)
(3.35343 0.574617 0)
(3.18778 0.582759 0)
(3.01978 0.590662 0)
(2.8495 0.598297 0)
(2.67701 0.605636 0)
(2.50241 0.612649 0)
(2.32579 0.619307 0)
(2.14726 0.625582 0)
(1.96692 0.631446 0)
(1.7849 0.636873 0)
(1.60133 0.641837 0)
(1.41636 0.646315 0)
(1.23012 0.650285 0)
(1.04276 0.653728 0)
(0.854459 0.656625 0)
(0.665369 0.658961 0)
(0.475656 0.660723 0)
(0.285523 0.661942 0)
(0.0950712 0.661924 0)
(9.89134 0.0129841 0)
(10.0537 0.0240932 0)
(9.968 0.0383157 0)
(9.97727 0.0514347 0)
(9.96814 0.0626155 0)
(9.94901 0.0729793 0)
(9.92886 0.0840099 0)
(9.90805 0.0961767 0)
(9.88513 0.108962 0)
(9.85961 0.121526 0)
(9.83159 0.133366 0)
(9.80103 0.144584 0)
(9.76767 0.155711 0)
(9.73139 0.167182 0)
(9.69242 0.178842 0)
(9.65118 0.189993 0)
(9.60801 0.200023 0)
(9.56312 0.209046 0)
(9.51649 0.217903 0)
(9.46787 0.227503 0)
(9.41695 0.238094 0)
(9.36356 0.249091 0)
(9.30777 0.259475 0)
(9.24979 0.268393 0)
(9.18996 0.27551 0)
(9.12863 0.281011 0)
(9.06613 0.285361 0)
(9.00267 0.289063 0)
(8.93838 0.292506 0)
(8.8733 0.295933 0)
(8.80743 0.299466 0)
(8.74076 0.303162 0)
(8.67325 0.307041 0)
(8.60485 0.31111 0)
(8.53554 0.315375 0)
(8.46526 0.319839 0)
(8.39397 0.324504 0)
(8.32163 0.329374 0)
(8.24818 0.334452 0)
(8.17359 0.339742 0)
(8.0978 0.345246 0)
(8.02077 0.350968 0)
(7.94245 0.356909 0)
(7.86278 0.363072 0)
(7.78173 0.369461 0)
(7.69923 0.376077 0)
(7.61524 0.382922 0)
(7.5297 0.389998 0)
(7.44257 0.397307 0)
(7.35378 0.40485 0)
(7.2633 0.412627 0)
(7.17106 0.42064 0)
(7.07701 0.428887 0)
(6.9811 0.437369 0)
(6.88328 0.446085 0)
(6.78349 0.455032 0)
(6.68168 0.464209 0)
(6.5778 0.473612 0)
(6.4718 0.483237 0)
(6.36362 0.49308 0)
(6.25322 0.503135 0)
(6.14055 0.513395 0)
(6.02556 0.523851 0)
(5.90822 0.534496 0)
(5.78847 0.545319 0)
(5.66627 0.556307 0)
(5.54159 0.567448 0)
(5.4144 0.578727 0)
(5.28465 0.590128 0)
(5.15233 0.601635 0)
(5.01741 0.613227 0)
(4.87987 0.624884 0)
(4.7397 0.636583 0)
(4.59688 0.648301 0)
(4.45142 0.660011 0)
(4.30331 0.671686 0)
(4.15256 0.683297 0)
(3.9992 0.694814 0)
(3.84323 0.706204 0)
(3.6847 0.717434 0)
(3.52364 0.72847 0)
(3.36009 0.739275 0)
(3.19412 0.749814 0)
(3.02577 0.760047 0)
(2.85514 0.769939 0)
(2.68229 0.77945 0)
(2.50731 0.788542 0)
(2.33031 0.797178 0)
(2.15139 0.805319 0)
(1.97066 0.812931 0)
(1.78826 0.819977 0)
(1.60432 0.826424 0)
(1.41897 0.832241 0)
(1.23236 0.837399 0)
(1.04464 0.841872 0)
(0.855984 0.845636 0)
(0.666546 0.848673 0)
(0.476493 0.850961 0)
(0.286024 0.852541 0)
(0.0952389 0.852522 0)
(9.88006 0.00172943 0)
(10.042 0.0230697 0)
(9.95729 0.0410358 0)
(9.9703 0.0566367 0)
(9.96582 0.0708693 0)
(9.94996 0.0849314 0)
(9.93107 0.0994285 0)
(9.9103 0.114193 0)
(9.88725 0.129065 0)
(9.86172 0.144359 0)
(9.83363 0.16032 0)
(9.80289 0.176522 0)
(9.76947 0.192117 0)
(9.73343 0.206501 0)
(9.69507 0.2196 0)
(9.65481 0.23172 0)
(9.6129 0.243359 0)
(9.56925 0.255102 0)
(9.52344 0.267456 0)
(9.47496 0.280582 0)
(9.42348 0.294101 0)
(9.36908 0.307205 0)
(9.31221 0.319019 0)
(9.25339 0.32897 0)
(9.19309 0.336953 0)
(9.13164 0.343266 0)
(9.06924 0.348411 0)
(9.006 0.352893 0)
(8.94196 0.35711 0)
(8.87712 0.361312 0)
(8.81149 0.365639 0)
(8.74505 0.370156 0)
(8.67776 0.374892 0)
(8.60959 0.37986 0)
(8.54049 0.385066 0)
(8.47044 0.390514 0)
(8.39938 0.39621 0)
(8.32727 0.402156 0)
(8.25406 0.408357 0)
(8.17971 0.414817 0)
(8.10416 0.421539 0)
(8.02738 0.428526 0)
(7.9493 0.435783 0)
(7.86989 0.443312 0)
(7.78909 0.451117 0)
(7.70685 0.459199 0)
(7.62312 0.467563 0)
(7.53784 0.476209 0)
(7.45097 0.485141 0)
(7.36245 0.494359 0)
(7.27224 0.503865 0)
(7.18026 0.513659 0)
(7.08648 0.523742 0)
(6.99084 0.534113 0)
(6.89328 0.54477 0)
(6.79375 0.555713 0)
(6.6922 0.566937 0)
(6.58857 0.57844 0)
(6.48282 0.590217 0)
(6.37488 0.602262 0)
(6.26472 0.614568 0)
(6.15228 0.627127 0)
(6.03751 0.639929 0)
(5.92037 0.652963 0)
(5.80081 0.666218 0)
(5.6788 0.679678 0)
(5.55428 0.693328 0)
(5.42723 0.707151 0)
(5.29761 0.721126 0)
(5.16539 0.735233 0)
(5.03055 0.749448 0)
(4.89306 0.763747 0)
(4.75291 0.7781 0)
(4.61009 0.79248 0)
(4.46459 0.806855 0)
(4.31642 0.82119 0)
(4.16557 0.835451 0)
(4.01206 0.849599 0)
(3.85592 0.863595 0)
(3.69717 0.877398 0)
(3.53585 0.890965 0)
(3.372 0.904251 0)
(3.20568 0.917212 0)
(3.03695 0.929801 0)
(2.86589 0.941971 0)
(2.69257 0.953675 0)
(2.51708 0.964865 0)
(2.33953 0.975495 0)
(2.16003 0.985518 0)
(1.97868 0.994889 0)
(1.79562 1.00356 0)
(1.61099 1.0115 0)
(1.42492 1.01867 0)
(1.23757 1.02502 0)
(1.04909 1.03053 0)
(0.859653 1.03517 0)
(0.669417 1.03891 0)
(0.478553 1.04173 0)
(0.287264 1.04367 0)
(0.095653 1.04366 0)
(9.90144 0.0122116 0)
(10.055 0.0314145 0)
(9.9658 0.0499596 0)
(9.97612 0.0672811 0)
(9.96928 0.0844359 0)
(9.9517 0.102873 0)
(9.93245 0.122296 0)
(9.91228 0.141332 0)
(9.88958 0.159202 0)
(9.86366 0.176114 0)
(9.83503 0.192559 0)
(9.80464 0.208892 0)
(9.77289 0.225342 0)
(9.73938 0.241847 0)
(9.70328 0.25785 0)
(9.66401 0.272626 0)
(9.62162 0.286048 0)
(9.57662 0.298961 0)
(9.52948 0.312664 0)
(9.48026 0.327924 0)
(9.42869 0.344367 0)
(9.37453 0.360695 0)
(9.31783 0.375453 0)
(9.25895 0.387735 0)
(9.19838 0.397414 0)
(9.13661 0.404955 0)
(9.07395 0.411059 0)
(9.01058 0.41638 0)
(8.94653 0.421395 0)
(8.8818 0.426395 0)
(8.81635 0.431534 0)
(8.75012 0.436888 0)
(8.68306 0.442491 0)
(8.61514 0.448362 0)
(8.54631 0.454509 0)
(8.47653 0.460942 0)
(8.40574 0.467665 0)
(8.3339 0.474684 0)
(8.26097 0.482004 0)
(8.18691 0.48963 0)
(8.11165 0.497567 0)
(8.03516 0.505817 0)
(7.95738 0.514386 0)
(7.87827 0.523277 0)
(7.79777 0.532494 0)
(7.71583 0.542041 0)
(7.63241 0.55192 0)
(7.54745 0.562135 0)
(7.46089 0.572687 0)
(7.37269 0.58358 0)
(7.28279 0.594813 0)
(7.19113 0.606389 0)
(7.09767 0.618307 0)
(7.00234 0.630568 0)
(6.9051 0.643169 0)
(6.80588 0.656109 0)
(6.70464 0.669385 0)
(6.60132 0.682992 0)
(6.49586 0.696925 0)
(6.38822 0.711178 0)
(6.27834 0.725743 0)
(6.16618 0.74061 0)
(6.05167 0.755768 0)
(5.93478 0.771204 0)
(5.81546 0.786904 0)
(5.69367 0.802852 0)
(5.56935 0.819028 0)
(5.44249 0.835413 0)
(5.31303 0.851984 0)
(5.18095 0.868714 0)
(5.04622 0.885578 0)
(4.90881 0.902545 0)
(4.76871 0.919582 0)
(4.62591 0.936655 0)
(4.48039 0.953726 0)
(4.33216 0.970755 0)
(4.18121 0.9877 0)
(4.02756 1.00452 0)
(3.87123 1.02116 0)
(3.71225 1.03757 0)
(3.55065 1.05371 0)
(3.38647 1.06952 0)
(3.21977 1.08494 0)
(3.05061 1.09993 0)
(2.87906 1.11442 0)
(2.7052 1.12835 0)
(2.52912 1.14168 0)
(2.35093 1.15434 0)
(2.17073 1.16629 0)
(1.98864 1.17745 0)
(1.80479 1.18779 0)
(1.61932 1.19726 0)
(1.43238 1.2058 0)
(1.24412 1.21337 0)
(1.05469 1.21994 0)
(0.864273 1.22547 0)
(0.673036 1.22993 0)
(0.481153 1.23329 0)
(0.28883 1.23561 0)
(0.0961756 1.2356 0)
(9.9369 0.0139858 0)
(10.0979 0.0352894 0)
(10.0107 0.0583133 0)
(10.0195 0.0788228 0)
(10.0101 0.0973297 0)
(9.99023 0.116167 0)
(9.96899 0.136237 0)
(9.94688 0.15707 0)
(9.92243 0.178026 0)
(9.89528 0.198721 0)
(9.86582 0.218836 0)
(9.83433 0.238202 0)
(9.8007 0.257086 0)
(9.76466 0.275955 0)
(9.72602 0.294844 0)
(9.68461 0.313187 0)
(9.64026 0.330458 0)
(9.59293 0.346909 0)
(9.54281 0.363505 0)
(9.49024 0.381084 0)
(9.4356 0.39955 0)
(9.37923 0.417809 0)
(9.32139 0.434397 0)
(9.26223 0.448269 0)
(9.20191 0.459189 0)
(9.14056 0.467632 0)
(9.07834 0.474405 0)
(9.01533 0.480295 0)
(8.95161 0.485878 0)
(8.88716 0.491498 0)
(8.82197 0.497327 0)
(8.75601 0.503439 0)
(8.68924 0.509861 0)
(8.62161 0.516606 0)
(8.55309 0.523678 0)
(8.48361 0.531083 0)
(8.41313 0.538826 0)
(8.34162 0.546912 0)
(8.26902 0.555346 0)
(8.19528 0.564133 0)
(8.12036 0.573279 0)
(8.04421 0.582788 0)
(7.96678 0.592665 0)
(7.88801 0.602915 0)
(7.80787 0.613542 0)
(7.72629 0.624549 0)
(7.64323 0.635941 0)
(7.55863 0.647721 0)
(7.47244 0.659893 0)
(7.3846 0.672458 0)
(7.29507 0.685418 0)
(7.20378 0.698775 0)
(7.11069 0.712529 0)
(7.01573 0.72668 0)
(6.91885 0.741227 0)
(6.82 0.756168 0)
(6.71912 0.771499 0)
(6.61616 0.787215 0)
(6.51105 0.803312 0)
(6.40375 0.819781 0)
(6.29421 0.836613 0)
(6.18236 0.853799 0)
(6.06817 0.871326 0)
(5.95157 0.889178 0)
(5.83253 0.907341 0)
(5.71099 0.925794 0)
(5.58692 0.944518 0)
(5.46027 0.963488 0)
(5.331 0.982678 0)
(5.19908 1.00206 0)
(5.06448 1.0216 0)
(4.92717 1.04127 0)
(4.78714 1.06102 0)
(4.64436 1.08083 0)
(4.49882 1.10063 0)
(4.35052 1.1204 0)
(4.19946 1.14007 0)
(4.04565 1.1596 0)
(3.88911 1.17894 0)
(3.72986 1.19801 0)
(3.56794 1.21678 0)
(3.40338 1.23516 0)
(3.23624 1.25311 0)
(3.06657 1.27055 0)
(2.89446 1.28741 0)
(2.71997 1.30364 0)
(2.54321 1.31917 0)
(2.36427 1.33392 0)
(2.18326 1.34784 0)
(2.0003 1.36085 0)
(1.81553 1.37291 0)
(1.62909 1.38394 0)
(1.44112 1.3939 0)
(1.25179 1.40273 0)
(1.06126 1.4104 0)
(0.869695 1.41685 0)
(0.677285 1.42205 0)
(0.484205 1.42597 0)
(0.290668 1.42868 0)
(0.0967891 1.42868 0)
(9.91302 0.0143431 0)
(10.0744 0.0410079 0)
(9.98796 0.0674365 0)
(9.99843 0.0920284 0)
(9.99035 0.115322 0)
(9.97081 0.139244 0)
(9.94929 0.16426 0)
(9.92708 0.189075 0)
(9.90322 0.212281 0)
(9.87729 0.233599 0)
(9.84938 0.253807 0)
(9.81951 0.274012 0)
(9.78733 0.29494 0)
(9.75242 0.316544 0)
(9.71455 0.338067 0)
(9.67382 0.358632 0)
(9.63057 0.37795 0)
(9.58514 0.396589 0)
(9.53766 0.415513 0)
(9.48797 0.435267 0)
(9.43584 0.455472 0)
(9.38127 0.474986 0)
(9.3245 0.492519 0)
(9.26595 0.507251 0)
(9.20601 0.519078 0)
(9.14499 0.528487 0)
(9.08312 0.536235 0)
(9.02048 0.543062 0)
(8.95713 0.549528 0)
(8.89305 0.555991 0)
(8.82824 0.562646 0)
(8.76264 0.56959 0)
(8.69623 0.576869 0)
(8.62896 0.584503 0)
(8.56079 0.592504 0)
(8.49167 0.600881 0)
(8.42157 0.609641 0)
(8.35042 0.61879 0)
(8.2782 0.628333 0)
(8.20484 0.638278 0)
(8.13031 0.648629 0)
(8.05454 0.659392 0)
(7.97751 0.670573 0)
(7.89914 0.682176 0)
(7.8194 0.694208 0)
(7.73824 0.706672 0)
(7.65559 0.719574 0)
(7.5714 0.732917 0)
(7.48563 0.746705 0)
(7.39822 0.76094 0)
(7.30911 0.775626 0)
(7.21824 0.790764 0)
(7.12557 0.806355 0)
(7.03104 0.822398 0)
(6.93458 0.838893 0)
(6.83615 0.855837 0)
(6.73569 0.873228 0)
(6.63313 0.891059 0)
(6.52843 0.909326 0)
(6.42153 0.92802 0)
(6.31236 0.947132 0)
(6.20089 0.966649 0)
(6.08706 0.986558 0)
(5.9708 1.00684 0)
(5.85208 1.02749 0)
(5.73085 1.04847 0)
(5.60706 1.06976 0)
(5.48066 1.09134 0)
(5.35161 1.11318 0)
(5.21988 1.13525 0)
(5.08544 1.1575 0)
(4.94825 1.1799 0)
(4.80829 1.20242 0)
(4.66554 1.22499 0)
(4.51998 1.24758 0)
(4.37162 1.27014 0)
(4.22044 1.29259 0)
(4.06645 1.31489 0)
(3.90967 1.33698 0)
(3.75012 1.35878 0)
(3.58783 1.38022 0)
(3.42284 1.40125 0)
(3.25519 1.42178 0)
(3.08496 1.44174 0)
(2.9122 1.46105 0)
(2.73699 1.47964 0)
(2.55944 1.49743 0)
(2.37964 1.51434 0)
(2.1977 1.53029 0)
(2.01375 1.54522 0)
(1.82792 1.55905 0)
(1.64036 1.57171 0)
(1.45121 1.58314 0)
(1.26064 1.59328 0)
(1.06883 1.60208 0)
(0.87595 1.60948 0)
(0.682187 1.61546 0)
(0.487726 1.61996 0)
(0.292788 1.62307 0)
(0.0974967 1.62309 0)
(9.89978 0.0128112 0)
(10.0599 0.0439237 0)
(9.97453 0.0731592 0)
(9.98625 0.100151 0)
(9.97999 0.126101 0)
(9.96252 0.151976 0)
(9.9435 0.177887 0)
(9.92441 0.203387 0)
(9.90384 0.228216 0)
(9.88032 0.252451 0)
(9.85319 0.276281 0)
(9.82285 0.299997 0)
(9.79014 0.324058 0)
(9.75552 0.348703 0)
(9.71878 0.373409 0)
(9.67944 0.397063 0)
(9.63734 0.418976 0)
(9.59277 0.439695 0)
(9.54606 0.460656 0)
(9.49721 0.482946 0)
(9.44588 0.50631 0)
(9.39177 0.529219 0)
(9.33495 0.54981 0)
(9.27584 0.566874 0)
(9.21505 0.580255 0)
(9.15319 0.59063 0)
(9.09065 0.599018 0)
(9.02764 0.60637 0)
(8.96416 0.613373 0)
(8.90015 0.620437 0)
(8.83554 0.627769 0)
(8.77023 0.635461 0)
(8.70416 0.643548 0)
(8.63725 0.652046 0)
(8.56946 0.660962 0)
(8.50074 0.670301 0)
(8.43104 0.680069 0)
(8.36031 0.690274 0)
(8.28851 0.700921 0)
(8.21558 0.712016 0)
(8.14148 0.723566 0)
(8.06615 0.735578 0)
(7.98956 0.748057 0)
(7.91165 0.76101 0)
(7.83237 0.774442 0)
(7.75166 0.788359 0)
(7.66948 0.802766 0)
(7.58576 0.817668 0)
(7.50046 0.833069 0)
(7.41353 0.848973 0)
(7.3249 0.865383 0)
(7.23451 0.882301 0)
(7.14232 0.899728 0)
(7.04827 0.917664 0)
(6.95229 0.936109 0)
(6.85434 0.955061 0)
(6.75434 0.974516 0)
(6.65225 0.994469 0)
(6.54801 1.01491 0)
(6.44156 1.03584 0)
(6.33283 1.05724 0)
(6.22179 1.07911 0)
(6.10836 1.10142 0)
(5.9925 1.12415 0)
(5.87415 1.1473 0)
(5.75327 1.17083 0)
(5.6298 1.19472 0)
(5.50369 1.21894 0)
(5.3749 1.24346 0)
(5.2434 1.26824 0)
(5.10914 1.29325 0)
(4.97209 1.31843 0)
(4.83223 1.34375 0)
(4.68952 1.36915 0)
(4.54396 1.39458 0)
(4.39553 1.41997 0)
(4.24422 1.44526 0)
(4.09004 1.4704 0)
(3.933 1.4953 0)
(3.77311 1.51989 0)
(3.61041 1.5441 0)
(3.44494 1.56784 0)
(3.27673 1.59103 0)
(3.10585 1.61358 0)
(2.93237 1.63542 0)
(2.75636 1.65644 0)
(2.57791 1.67657 0)
(2.39714 1.69571 0)
(2.21415 1.71377 0)
(2.02907 1.73068 0)
(1.84203 1.74635 0)
(1.65319 1.7607 0)
(1.4627 1.77366 0)
(1.27074 1.78516 0)
(1.07747 1.79514 0)
(0.883083 1.80355 0)
(0.687776 1.81033 0)
(0.491741 1.81544 0)
(0.295207 1.81897 0)
(0.0983038 1.81901 0)
(9.89089 0.0134383 0)
(10.0507 0.0479012 0)
(9.96408 0.0809055 0)
(9.97582 0.111601 0)
(9.9697 0.14106 0)
(9.95236 0.170697 0)
(9.93323 0.200488 0)
(9.9136 0.229597 0)
(9.89191 0.25768 0)
(9.86706 0.284901 0)
(9.83905 0.31125 0)
(9.80859 0.33673 0)
(9.77629 0.361929 0)
(9.74236 0.387686 0)
(9.70673 0.414044 0)
(9.66913 0.439981 0)
(9.62922 0.464459 0)
(9.58681 0.487622 0)
(9.54178 0.51076 0)
(9.49401 0.535081 0)
(9.44345 0.560501 0)
(9.39019 0.585515 0)
(9.33449 0.608102 0)
(9.27673 0.626839 0)
(9.21738 0.641449 0)
(9.15684 0.652649 0)
(9.09545 0.661601 0)
(9.03337 0.669419 0)
(8.97065 0.676907 0)
(8.90728 0.684531 0)
(8.84322 0.692513 0)
(8.77842 0.700935 0)
(8.71282 0.70982 0)
(8.64638 0.719174 0)
(8.57905 0.728996 0)
(8.51078 0.739291 0)
(8.44154 0.750062 0)
(8.37128 0.761316 0)
(8.29994 0.77306 0)
(8.22749 0.785299 0)
(8.15387 0.798043 0)
(8.07904 0.811296 0)
(8.00294 0.825068 0)
(7.92553 0.839364 0)
(7.84675 0.854191 0)
(7.76656 0.869555 0)
(7.6849 0.885463 0)
(7.60171 0.90192 0)
(7.51694 0.918932 0)
(7.43053 0.936501 0)
(7.34244 0.954632 0)
(7.25259 0.973329 0)
(7.16094 0.992591 0)
(7.06742 1.01242 0)
(6.97198 1.03282 0)
(6.87456 1.05378 0)
(6.7751 1.07531 0)
(6.67353 1.09739 0)
(6.5698 1.12002 0)
(6.46386 1.14319 0)
(6.35563 1.1669 0)
(6.24506 1.19112 0)
(6.1321 1.21585 0)
(6.01669 1.24105 0)
(5.89876 1.26672 0)
(5.77827 1.29283 0)
(5.65517 1.31935 0)
(5.5294 1.34624 0)
(5.40091 1.37348 0)
(5.26967 1.40102 0)
(5.13563 1.42882 0)
(4.99875 1.45683 0)
(4.859 1.485 0)
(4.71636 1.51328 0)
(4.5708 1.5416 0)
(4.42231 1.5699 0)
(4.27087 1.5981 0)
(4.11648 1.62614 0)
(3.95916 1.65393 0)
(3.79892 1.68139 0)
(3.63577 1.70843 0)
(3.46977 1.73497 0)
(3.30094 1.76091 0)
(3.12934 1.78614 0)
(2.95505 1.81059 0)
(2.77814 1.83414 0)
(2.59871 1.85669 0)
(2.41685 1.87815 0)
(2.23268 1.89841 0)
(2.04633 1.91738 0)
(1.85794 1.93497 0)
(1.66767 1.95109 0)
(1.47567 1.96564 0)
(1.28213 1.97857 0)
(1.08722 1.98978 0)
(0.891135 1.99923 0)
(0.694088 2.00685 0)
(0.496276 2.0126 0)
(0.297938 2.01657 0)
(0.0992153 2.01665 0)
(9.89085 0.0180124 0)
(10.0488 0.05363 0)
(9.96399 0.0868181 0)
(9.97547 0.11893 0)
(9.96793 0.151155 0)
(9.94952 0.183256 0)
(9.92998 0.214653 0)
(9.9101 0.245334 0)
(9.8885 0.275678 0)
(9.86451 0.305645 0)
(9.83802 0.334746 0)
(9.80891 0.36282 0)
(9.77689 0.39049 0)
(9.74174 0.418539 0)
(9.70363 0.44694 0)
(9.66318 0.474816 0)
(9.62108 0.501479 0)
(9.57777 0.527359 0)
(9.53328 0.553757 0)
(9.4872 0.581611 0)
(9.43899 0.61046 0)
(9.38823 0.6385 0)
(9.33485 0.663574 0)
(9.27907 0.684261 0)
(9.22132 0.700375 0)
(9.16205 0.712745 0)
(9.10164 0.722646 0)
(9.04032 0.731288 0)
(8.97823 0.739541 0)
(8.91541 0.747918 0)
(8.85184 0.756666 0)
(8.78752 0.765882 0)
(8.72239 0.775598 0)
(8.65643 0.78582 0)
(8.58958 0.796553 0)
(8.52181 0.807801 0)
(8.45307 0.819571 0)
(8.38331 0.831868 0)
(8.31249 0.844702 0)
(8.24056 0.858079 0)
(8.16747 0.872008 0)
(8.09318 0.886497 0)
(8.01763 0.901554 0)
(7.94078 0.917187 0)
(7.86256 0.933402 0)
(7.78293 0.950209 0)
(7.70184 0.967612 0)
(7.61923 0.985619 0)
(7.53505 1.00424 0)
(7.44923 1.02347 0)
(7.36172 1.04332 0)
(7.27247 1.06379 0)
(7.18142 1.08489 0)
(7.0885 1.10661 0)
(6.99365 1.12896 0)
(6.89683 1.15194 0)
(6.79795 1.17554 0)
(6.69697 1.19976 0)
(6.59382 1.22458 0)
(6.48844 1.25001 0)
(6.38076 1.27604 0)
(6.27074 1.30263 0)
(6.1583 1.32979 0)
(6.04338 1.35749 0)
(5.92593 1.38571 0)
(5.80589 1.41442 0)
(5.68321 1.4436 0)
(5.55782 1.4732 0)
(5.42968 1.50319 0)
(5.29874 1.53354 0)
(5.16495 1.56418 0)
(5.02828 1.59507 0)
(4.88868 1.62616 0)
(4.74612 1.65737 0)
(4.60057 1.68865 0)
(4.45203 1.71992 0)
(4.30046 1.75111 0)
(4.14586 1.78213 0)
(3.98825 1.81289 0)
(3.82762 1.84331 0)
(3.66399 1.87328 0)
(3.49741 1.90271 0)
(3.3279 1.93148 0)
(3.15553 1.9595 0)
(2.98036 1.98665 0)
(2.80246 2.01283 0)
(2.62192 2.03791 0)
(2.43886 2.06178 0)
(2.25339 2.08434 0)
(2.06563 2.10547 0)
(1.87574 2.12506 0)
(1.68386 2.14303 0)
(1.49018 2.15926 0)
(1.29487 2.17367 0)
(1.09813 2.18619 0)
(0.900153 2.19673 0)
(0.701157 2.20524 0)
(0.501355 2.21166 0)
(0.300997 2.21608 0)
(0.100237 2.21622 0)
(9.88449 0.0184881 0)
(10.0435 0.0562812 0)
(9.95668 0.094754 0)
(9.9674 0.131622 0)
(9.9601 0.167696 0)
(9.94295 0.203391 0)
(9.9252 0.2383 0)
(9.90669 0.271955 0)
(9.88529 0.304357 0)
(9.86045 0.335814 0)
(9.83292 0.366687 0)
(9.80345 0.397461 0)
(9.77215 0.428771 0)
(9.73873 0.460794 0)
(9.70282 0.492611 0)
(9.66422 0.52262 0)
(9.62298 0.549947 0)
(9.57944 0.575479 0)
(9.53401 0.601371 0)
(9.48699 0.629372 0)
(9.4384 0.659413 0)
(9.38808 0.689541 0)
(9.33583 0.717111 0)
(9.28153 0.740193 0)
(9.22527 0.758288 0)
(9.16733 0.772163 0)
(9.10801 0.783189 0)
(9.04759 0.792718 0)
(8.98625 0.801745 0)
(8.92407 0.810862 0)
(8.8611 0.820359 0)
(8.79734 0.830354 0)
(8.73276 0.840886 0)
(8.66734 0.851966 0)
(8.60103 0.8636 0)
(8.5338 0.875793 0)
(8.46561 0.888552 0)
(8.39641 0.901885 0)
(8.32615 0.9158 0)
(8.25479 0.930307 0)
(8.18229 0.945414 0)
(8.10858 0.96113 0)
(8.03363 0.977465 0)
(7.95738 0.994427 0)
(7.87978 1.01202 0)
(7.80077 1.03026 0)
(7.72031 1.04916 0)
(7.63833 1.06871 0)
(7.55479 1.08893 0)
(7.46961 1.10981 0)
(7.38276 1.13138 0)
(7.29416 1.15363 0)
(7.20376 1.17656 0)
(7.1115 1.20018 0)
(7.01731 1.22448 0)
(6.92114 1.24948 0)
(6.82291 1.27516 0)
(6.72258 1.30151 0)
(6.62006 1.32855 0)
(6.51531 1.35624 0)
(6.40825 1.3846 0)
(6.29882 1.41359 0)
(6.18696 1.4432 0)
(6.07261 1.47342 0)
(5.95569 1.50421 0)
(5.83616 1.53556 0)
(5.71395 1.56742 0)
(5.58899 1.59977 0)
(5.46125 1.63256 0)
(5.33066 1.66575 0)
(5.19716 1.69929 0)
(5.06073 1.73312 0)
(4.92131 1.76718 0)
(4.77886 1.8014 0)
(4.63335 1.83571 0)
(4.48476 1.87003 0)
(4.33307 1.90429 0)
(4.17827 1.93837 0)
(4.02034 1.9722 0)
(3.85931 2.00567 0)
(3.69517 2.03867 0)
(3.52797 2.07109 0)
(3.35773 2.10282 0)
(3.18451 2.13373 0)
(3.00838 2.1637 0)
(2.8294 2.19261 0)
(2.64766 2.22033 0)
(2.46328 2.24673 0)
(2.27637 2.27169 0)
(2.08706 2.29508 0)
(1.8955 2.31679 0)
(1.70187 2.33669 0)
(1.50632 2.35469 0)
(1.30905 2.37067 0)
(1.11027 2.38456 0)
(0.910189 2.39626 0)
(0.709026 2.40571 0)
(0.50701 2.41283 0)
(0.304404 2.41775 0)
(0.101374 2.41794 0)
(9.88975 0.0237533 0)
(10.0515 0.0626688 0)
(9.96624 0.10228 0)
(9.97829 0.140518 0)
(9.97185 0.177182 0)
(9.95419 0.213031 0)
(9.93559 0.24915 0)
(9.91721 0.285978 0)
(9.89697 0.32277 0)
(9.87336 0.358265 0)
(9.84616 0.391734 0)
(9.81605 0.423639 0)
(9.78377 0.455355 0)
(9.74961 0.488041 0)
(9.71345 0.521589 0)
(9.6751 0.554724 0)
(9.63439 0.586268 0)
(9.59127 0.616335 0)
(9.54577 0.646251 0)
(9.498 0.677295 0)
(9.44812 0.709455 0)
(9.39641 0.741195 0)
(9.3431 0.770288 0)
(9.28831 0.794979 0)
(9.23209 0.814716 0)
(9.17455 0.830123 0)
(9.1158 0.842479 0)
(9.05599 0.85313 0)
(8.99525 0.863118 0)
(8.93364 0.873101 0)
(8.87123 0.883422 0)
(8.80803 0.894236 0)
(8.74401 0.905603 0)
(8.67915 0.917548 0)
(8.61341 0.930083 0)
(8.54677 0.943216 0)
(8.47916 0.956958 0)
(8.41056 0.971318 0)
(8.34091 0.986307 0)
(8.27018 1.00193 0)
(8.1983 1.01821 0)
(8.12523 1.03515 0)
(8.05093 1.05275 0)
(7.97534 1.07103 0)
(7.8984 1.09 0)
(7.82007 1.10967 0)
(7.74029 1.13004 0)
(7.659 1.15113 0)
(7.57615 1.17294 0)
(7.49168 1.19548 0)
(7.40554 1.21876 0)
(7.31765 1.24278 0)
(7.22797 1.26754 0)
(7.13642 1.29306 0)
(7.04296 1.31932 0)
(6.9475 1.34633 0)
(6.84999 1.37409 0)
(6.75036 1.4026 0)
(6.64855 1.43185 0)
(6.54449 1.46182 0)
(6.43811 1.49252 0)
(6.32934 1.52392 0)
(6.21813 1.55601 0)
(6.10439 1.58876 0)
(5.98807 1.62216 0)
(5.86911 1.65617 0)
(5.74742 1.69077 0)
(5.62296 1.7259 0)
(5.49566 1.76154 0)
(5.36547 1.79763 0)
(5.23232 1.83411 0)
(5.09616 1.87094 0)
(4.95696 1.90804 0)
(4.81465 1.94534 0)
(4.66921 1.98276 0)
(4.5206 2.02022 0)
(4.3688 2.05763 0)
(4.21378 2.09488 0)
(4.05554 2.13188 0)
(3.89409 2.16851 0)
(3.72942 2.20465 0)
(3.56156 2.24018 0)
(3.39054 2.27497 0)
(3.21641 2.3089 0)
(3.03924 2.34181 0)
(2.85908 2.37358 0)
(2.67604 2.40407 0)
(2.49022 2.43312 0)
(2.30174 2.4606 0)
(2.11073 2.48638 0)
(1.91735 2.51031 0)
(1.72177 2.53227 0)
(1.52417 2.55213 0)
(1.32474 2.56977 0)
(1.12371 2.58511 0)
(0.921301 2.59804 0)
(0.717741 2.60848 0)
(0.513274 2.61635 0)
(0.308178 2.62178 0)
(0.102634 2.62205 0)
(9.90997 0.0203021 0)
(10.072 0.0648948 0)
(9.9862 0.107141 0)
(9.99767 0.150037 0)
(9.99044 0.192962 0)