/*--------------------------------*- C++ -*----------------------------------*\
| =========                 |                                                 |
| \\      /  F ield         | OpenFOAM: The Open Source CFD Toolbox           |
|  \\    /   O peration     | Version:  4.1                                   |
|   \\  /    A nd           | Web:      www.OpenFOAM.org                      |
|    \\/     M anipulation  |                                                 |
\*---------------------------------------------------------------------------*/
FoamFile
{
    version     2.0;
    format      ascii;
    class       volSymmTensorField;
    location    "0.051";
    object      UPrime2Mean;
}
// * * * * * * * * * * * * * * * * * * * * * * * * * * * * * * * * * * * * * //

dimensions      [0 2 -2 0 0 0 0];

internalField   nonuniform List<symmTensor> 
43750
(
(0.139074 0.00227855 0 0.0101729 0 0)
(0.0525887 0.00331208 0 0.00334616 0 0)
(0.0161938 0.000615506 0 0.00153058 0 0)
(0.00393999 0.000181515 0 0.000880401 0 0)
(0.00330751 5.92062e-06 0 0.000541803 0 0)
(0.0046013 -9.75757e-05 0 0.000408619 0 0)
(0.00608286 -0.000134167 0 0.00041155 0 0)
(0.00730917 -0.000141048 0 0.000437808 0 0)
(0.00870326 -0.000188079 0 0.000444651 0 0)
(0.0105717 -0.000277669 0 0.00042485 0 0)
(0.0129033 -0.000336133 0 0.000403166 0 0)
(0.0154606 -0.000301652 0 0.000388024 0 0)
(0.017972 -0.000169659 0 0.000364643 0 0)
(0.0202535 -3.63095e-05 0 0.000352584 0 0)
(0.0222856 -3.77734e-05 0 0.00033952 0 0)
(0.0241573 -0.000172164 0 0.000295853 0 0)
(0.0258911 -0.000280743 0 0.000261249 0 0)
(0.02735 -0.000191168 0 0.000253679 0 0)
(0.0282633 0.000171979 0 0.000218161 0 0)
(0.0283189 0.000731299 0 0.000151002 0 0)
(0.0273391 0.00126447 0 0.000113917 0 0)
(0.0254507 0.00154123 0 0.000119673 0 0)
(0.0230479 0.00149376 0 0.000122837 0 0)
(0.0205576 0.0012331 0 9.84243e-05 0 0)
(0.0182534 0.000922425 0 6.20659e-05 0 0)
(0.0162319 0.000667764 0 3.40646e-05 0 0)
(0.0144769 0.000498544 0 1.91988e-05 0 0)
(0.0129282 0.000399631 0 1.29974e-05 0 0)
(0.0115291 0.000344518 0 1.07642e-05 0 0)
(0.0102439 0.000311732 0 1.00315e-05 0 0)
(0.00905485 0.000288386 0 9.81434e-06 0 0)
(0.00795387 0.000268302 0 9.75693e-06 0 0)
(0.00693692 0.000249122 0 9.73758e-06 0 0)
(0.00600173 0.000230169 0 9.72046e-06 0 0)
(0.00514661 0.00021134 0 9.69885e-06 0 0)
(0.00436986 0.000192659 0 9.67337e-06 0 0)
(0.00366968 0.000174155 0 9.64509e-06 0 0)
(0.0030443 0.00015584 0 9.61428e-06 0 0)
(0.00249193 0.000137724 0 9.58056e-06 0 0)
(0.00201079 0.000119812 0 9.54328e-06 0 0)
(0.00159912 0.000102111 0 9.50159e-06 0 0)
(0.00125512 8.46317e-05 0 9.4546e-06 0 0)
(0.000977001 6.73883e-05 0 9.40131e-06 0 0)
(0.000762948 5.03979e-05 0 9.34073e-06 0 0)
(0.000611113 3.36822e-05 0 9.27176e-06 0 0)
(0.000519608 1.72669e-05 0 9.19329e-06 0 0)
(0.000486493 1.18215e-06 0 9.10416e-06 0 0)
(0.000509764 -1.45371e-05 0 9.00316e-06 0 0)
(0.000587342 -2.98508e-05 0 8.88903e-06 0 0)
(0.00071706 -4.47139e-05 0 8.76049e-06 0 0)
(0.000896647 -5.90757e-05 0 8.61627e-06 0 0)
(0.00112372 -7.28801e-05 0 8.45505e-06 0 0)
(0.00139576 -8.60648e-05 0 8.27556e-06 0 0)
(0.00171012 -9.8562e-05 0 8.07658e-06 0 0)
(0.00206397 -0.000110298 0 7.85695e-06 0 0)
(0.00245433 -0.000121193 0 7.61566e-06 0 0)
(0.00287801 -0.000131161 0 7.35183e-06 0 0)
(0.00333166 -0.000140115 0 7.06486e-06 0 0)
(0.00381168 -0.000147958 0 6.7544e-06 0 0)
(0.00431426 -0.000154597 0 6.42061e-06 0 0)
(0.00483537 -0.000159933 0 6.06399e-06 0 0)
(0.00537075 -0.00016387 0 5.68568e-06 0 0)
(0.0059159 -0.000166311 0 5.28698e-06 0 0)
(0.00646603 -0.000167166 0 4.87004e-06 0 0)
(0.00701619 -0.000166339 0 4.43709e-06 0 0)
(0.00756103 -0.000163773 0 3.99276e-06 0 0)
(0.00809512 -0.000159401 0 3.54124e-06 0 0)
(0.00861219 -0.000153249 0 3.09086e-06 0 0)
(0.00910565 -0.000145044 0 2.63759e-06 0 0)
(0.00956949 -0.000134345 0 2.17853e-06 0 0)
(0.00999783 -0.000120816 0 1.7197e-06 0 0)
(0.0103847 -0.000104344 0 1.27705e-06 0 0)
(0.010724 -8.49587e-05 0 8.723e-07 0 0)
(0.0110093 -6.27209e-05 0 5.28958e-07 0 0)
(0.0112345 -3.77044e-05 0 2.72282e-07 0 0)
(0.0113941 -1.0036e-05 0 1.30326e-07 0 0)
(0.0114827 2.00783e-05 0 1.34026e-07 0 0)
(0.0114956 5.23528e-05 0 3.16624e-07 0 0)
(0.011429 8.64163e-05 0 7.1298e-07 0 0)
(0.0112798 0.000121808 0 1.35871e-06 0 0)
(0.0110464 0.000157972 0 2.28897e-06 0 0)
(0.0107281 0.000194259 0 3.53698e-06 0 0)
(0.010326 0.000229923 0 5.13213e-06 0 0)
(0.00984292 0.000264139 0 7.0979e-06 0 0)
(0.00928331 0.000296007 0 9.4494e-06 0 0)
(0.00865376 0.00032458 0 1.2191e-05 0 0)
(0.00796283 0.000348885 0 1.53136e-05 0 0)
(0.00722116 0.000367963 0 1.87928e-05 0 0)
(0.00644134 0.000380901 0 2.25869e-05 0 0)
(0.0056378 0.000386882 0 2.6636e-05 0 0)
(0.00482654 0.000385229 0 3.08617e-05 0 0)
(0.00402479 0.000375449 0 3.51689e-05 0 0)
(0.00325056 0.000357279 0 3.94474e-05 0 0)
(0.00252212 0.000330714 0 4.3576e-05 0 0)
(0.00185741 0.000296041 0 4.74271e-05 0 0)
(0.00127342 0.000253845 0 5.08749e-05 0 0)
(0.000785545 0.000204993 0 5.3794e-05 0 0)
(0.000407083 0.000150712 0 5.61196e-05 0 0)
(0.000148282 9.23009e-05 0 5.7797e-05 0 0)
(1.67937e-05 3.12448e-05 0 5.84792e-05 0 0)
(0.148197 -0.000545722 0 0.0120473 0 0)
(0.0472249 0.00508754 0 0.00385199 0 0)
(0.0171028 -0.000748576 0 0.00156981 0 0)
(0.00429544 2.7206e-05 0 0.00105762 0 0)
(0.00366522 -0.000203992 0 0.00096001 0 0)
(0.00534608 -0.000795008 0 0.000934483 0 0)
(0.00721639 -0.00126112 0 0.00087663 0 0)
(0.00891814 -0.00157367 0 0.000813249 0 0)
(0.0109739 -0.00178309 0 0.000781136 0 0)
(0.0135562 -0.00194501 0 0.000770348 0 0)
(0.016588 -0.00207784 0 0.000753856 0 0)
(0.0199917 -0.00216443 0 0.000715758 0 0)
(0.0237274 -0.00217754 0 0.000653215 0 0)
(0.0277168 -0.00208235 0 0.000567612 0 0)
(0.0317883 -0.00184978 0 0.000464095 0 0)
(0.0357385 -0.00149193 0 0.000359761 0 0)
(0.039522 -0.00107586 0 0.000276197 0 0)
(0.043328 -0.000667095 0 0.00021938 0 0)
(0.0473556 -0.000267417 0 0.000178739 0 0)
(0.0515562 0.000165287 0 0.00014262 0 0)
(0.0555992 0.00065954 0 0.000108274 0 0)
(0.0589776 0.00119461 0 8.31512e-05 0 0)
(0.0611703 0.00169543 0 7.4927e-05 0 0)
(0.0618566 0.00207206 0 8.03852e-05 0 0)
(0.0610727 0.00227883 0 8.91655e-05 0 0)
(0.0591712 0.00233509 0 9.42043e-05 0 0)
(0.0566167 0.00229649 0 9.47213e-05 0 0)
(0.0537929 0.0022159 0 9.27893e-05 0 0)
(0.0509342 0.00212525 0 9.02157e-05 0 0)
(0.0481538 0.00203747 0 8.77809e-05 0 0)
(0.0454935 0.00195518 0 8.56168e-05 0 0)
(0.0429608 0.00187743 0 8.36406e-05 0 0)
(0.0405513 0.00180296 0 8.17609e-05 0 0)
(0.0382583 0.00173103 0 7.99269e-05 0 0)
(0.0360765 0.00166132 0 7.81195e-05 0 0)
(0.0340008 0.00159374 0 7.63339e-05 0 0)
(0.032027 0.00152823 0 7.45691e-05 0 0)
(0.030151 0.00146474 0 7.28242e-05 0 0)
(0.028369 0.00140323 0 7.10971e-05 0 0)
(0.0266774 0.00134363 0 6.93853e-05 0 0)
(0.0250725 0.00128589 0 6.76861e-05 0 0)
(0.023551 0.00122994 0 6.59962e-05 0 0)
(0.0221096 0.00117574 0 6.43126e-05 0 0)
(0.0207449 0.00112323 0 6.26319e-05 0 0)
(0.0194538 0.00107235 0 6.09507e-05 0 0)
(0.0182334 0.00102304 0 5.92656e-05 0 0)
(0.0170807 0.000975269 0 5.75729e-05 0 0)
(0.0159928 0.000928976 0 5.58693e-05 0 0)
(0.0149669 0.000884117 0 5.41512e-05 0 0)
(0.0140003 0.000840648 0 5.24153e-05 0 0)
(0.0130905 0.000798524 0 5.06581e-05 0 0)
(0.0122348 0.000757705 0 4.88764e-05 0 0)
(0.0114308 0.000718149 0 4.70673e-05 0 0)
(0.0106762 0.000679819 0 4.52278e-05 0 0)
(0.00996843 0.000642674 0 4.33555e-05 0 0)
(0.00930535 0.00060668 0 4.14484e-05 0 0)
(0.0086847 0.000571798 0 3.95047e-05 0 0)
(0.00810429 0.000537992 0 3.75236e-05 0 0)
(0.007562 0.000505226 0 3.55046e-05 0 0)
(0.00705577 0.000473464 0 3.34484e-05 0 0)
(0.00658355 0.00044267 0 3.13569e-05 0 0)
(0.00614335 0.00041282 0 2.92343e-05 0 0)
(0.00573324 0.000383891 0 2.70872e-05 0 0)
(0.00535131 0.000355881 0 2.49257e-05 0 0)
(0.0049958 0.000328784 0 2.27615e-05 0 0)
(0.00466495 0.000302608 0 2.06103e-05 0 0)
(0.00435719 0.000277325 0 1.84841e-05 0 0)
(0.00407062 0.000252904 0 1.63974e-05 0 0)
(0.00380338 0.000229183 0 1.43493e-05 0 0)
(0.00355397 0.000206026 0 1.23428e-05 0 0)
(0.00332101 0.000183369 0 1.03951e-05 0 0)
(0.0031032 0.000161227 0 8.53688e-06 0 0)
(0.0028992 0.000139641 0 6.8037e-06 0 0)
(0.00270769 0.000118622 0 5.22896e-06 0 0)
(0.0025274 9.81548e-05 0 3.84504e-06 0 0)
(0.00235712 7.82287e-05 0 2.6865e-06 0 0)
(0.00219575 5.88506e-05 0 1.79072e-06 0 0)
(0.00204222 4.00439e-05 0 1.19701e-06 0 0)
(0.0018956 2.18491e-05 0 9.45805e-07 0 0)
(0.00175503 4.32705e-06 0 1.07767e-06 0 0)
(0.00161976 -1.24394e-05 0 1.632e-06 0 0)
(0.00148915 -2.8344e-05 0 2.64533e-06 0 0)
(0.00136269 -4.3257e-05 0 4.14923e-06 0 0)
(0.00124 -5.7026e-05 0 6.16795e-06 0 0)
(0.00112084 -6.94779e-05 0 8.7157e-06 0 0)
(0.00100511 -8.04236e-05 0 1.17938e-05 0 0)
(0.00089288 -8.96637e-05 0 1.53876e-05 0 0)
(0.000784351 -9.69968e-05 0 1.9464e-05 0 0)
(0.000679888 -0.000102229 0 2.39694e-05 0 0)
(0.000579998 -0.000105186 0 2.88275e-05 0 0)
(0.000485313 -0.000105726 0 3.394e-05 0 0)
(0.000396576 -0.00010375 0 3.91869e-05 0 0)
(0.000314612 -9.92208e-05 0 4.44311e-05 0 0)
(0.0002403 -9.21686e-05 0 4.95227e-05 0 0)
(0.000174538 -8.27003e-05 0 5.43048e-05 0 0)
(0.000118197 -7.10001e-05 0 5.8618e-05 0 0)
(7.20818e-05 -5.73247e-05 0 6.2299e-05 0 0)
(3.69187e-05 -4.20416e-05 0 6.52331e-05 0 0)
(1.32043e-05 -2.54687e-05 0 6.7062e-05 0 0)
(1.31254e-06 -8.03043e-06 0 6.97703e-05 0 0)
(0.143033 -0.000726556 0 0.0155239 0 0)
(0.0500503 0.00580258 0 0.00611217 0 0)
(0.0174595 -0.000654333 0 0.00328626 0 0)
(0.00479635 0.00040624 0 0.00247467 0 0)
(0.00402095 2.11837e-06 0 0.00207916 0 0)
(0.0051104 -0.00102022 0 0.00190321 0 0)
(0.00645233 -0.00179696 0 0.0019192 0 0)
(0.00776436 -0.00230092 0 0.00196745 0 0)
(0.0094769 -0.00270568 0 0.00195241 0 0)
(0.0118 -0.00308339 0 0.00193932 0 0)
(0.0145893 -0.00346279 0 0.00193985 0 0)
(0.0175258 -0.00380428 0 0.00193312 0 0)
(0.0204508 -0.0039948 0 0.00188891 0 0)
(0.0234334 -0.00400695 0 0.00178808 0 0)
(0.0265927 -0.00394487 0 0.00168568 0 0)
(0.0299434 -0.00391664 0 0.00163139 0 0)
(0.0333767 -0.00393868 0 0.00160567 0 0)
(0.0367108 -0.00392626 0 0.00157939 0 0)
(0.0397258 -0.00371537 0 0.00151837 0 0)
(0.0421729 -0.00313287 0 0.00134821 0 0)
(0.0438138 -0.00211572 0 0.00103249 0 0)
(0.0445025 -0.000792731 0 0.00066009 0 0)
(0.0442347 0.000564704 0 0.000373252 0 0)
(0.0431322 0.00169097 0 0.000235825 0 0)
(0.0414027 0.00244684 0 0.000210552 0 0)
(0.0392878 0.00283915 0 0.000228806 0 0)
(0.0370013 0.00296281 0 0.000247098 0 0)
(0.0346881 0.00292861 0 0.000253417 0 0)
(0.0324272 0.00282046 0 0.000250701 0 0)
(0.0302564 0.00268699 0 0.000243997 0 0)
(0.0281902 0.00255048 0 0.000236319 0 0)
(0.0262306 0.0024186 0 0.000228815 0 0)
(0.0243744 0.00229273 0 0.000221718 0 0)
(0.0226174 0.0021724 0 0.000214968 0 0)
(0.0209558 0.00205689 0 0.00020847 0 0)
(0.019386 0.00194571 0 0.000202153 0 0)
(0.0179046 0.00183856 0 0.000195979 0 0)
(0.0165084 0.00173525 0 0.000189927 0 0)
(0.0151944 0.00163567 0 0.000183985 0 0)
(0.0139595 0.00153971 0 0.000178144 0 0)
(0.0128008 0.0014473 0 0.000172397 0 0)
(0.0117155 0.00135834 0 0.000166738 0 0)
(0.0107007 0.00127277 0 0.00016116 0 0)
(0.00975378 0.00119052 0 0.000155655 0 0)
(0.0088719 0.00111152 0 0.000150219 0 0)
(0.00805247 0.00103571 0 0.000144843 0 0)
(0.00729287 0.000963041 0 0.000139523 0 0)
(0.00659051 0.000893454 0 0.000134252 0 0)
(0.00594286 0.000826904 0 0.000129025 0 0)
(0.0053474 0.000763351 0 0.000123837 0 0)
(0.00480164 0.000702756 0 0.000118685 0 0)
(0.00430312 0.000645085 0 0.000113565 0 0)
(0.0038494 0.000590305 0 0.000108473 0 0)
(0.00343805 0.000538388 0 0.000103407 0 0)
(0.00306666 0.000489304 0 9.83666e-05 0 0)
(0.00273284 0.000443025 0 9.33501e-05 0 0)
(0.00243423 0.000399522 0 8.83575e-05 0 0)
(0.00216846 0.000358768 0 8.33898e-05 0 0)
(0.00193322 0.000320729 0 7.84486e-05 0 0)
(0.0017262 0.000285375 0 7.35373e-05 0 0)
(0.00154514 0.000252672 0 6.86612e-05 0 0)
(0.0013878 0.000222587 0 6.38287e-05 0 0)
(0.00125203 0.000195088 0 5.90522e-05 0 0)
(0.00113569 0.000170138 0 5.43474e-05 0 0)
(0.0010367 0.000147689 0 4.97327e-05 0 0)
(0.000953032 0.000127669 0 4.52243e-05 0 0)
(0.000882729 0.000109987 0 4.08376e-05 0 0)
(0.000823937 9.45267e-05 0 3.65811e-05 0 0)
(0.000774932 8.1204e-05 0 3.24846e-05 0 0)
(0.000734095 6.99062e-05 0 2.85828e-05 0 0)
(0.000699902 6.05029e-05 0 2.4904e-05 0 0)
(0.00067095 5.28447e-05 0 2.14667e-05 0 0)
(0.00064596 4.67654e-05 0 1.8284e-05 0 0)
(0.000623781 4.20904e-05 0 1.53678e-05 0 0)
(0.000603407 3.86432e-05 0 1.27303e-05 0 0)
(0.000583975 3.62467e-05 0 1.03844e-05 0 0)
(0.000564759 3.47237e-05 0 8.34228e-06 0 0)
(0.000545164 3.38985e-05 0 6.61486e-06 0 0)
(0.000524725 3.35993e-05 0 5.21103e-06 0 0)
(0.000503095 3.36614e-05 0 4.13706e-06 0 0)
(0.000480043 3.39307e-05 0 3.39599e-06 0 0)
(0.000455436 3.42663e-05 0 2.98713e-06 0 0)
(0.000429236 3.45437e-05 0 2.90542e-06 0 0)
(0.000401485 3.46575e-05 0 3.14105e-06 0 0)
(0.000372301 3.45237e-05 0 3.67894e-06 0 0)
(0.000341864 3.40807e-05 0 4.49844e-06 0 0)
(0.00031042 3.32904e-05 0 5.57317e-06 0 0)
(0.000278267 3.21368e-05 0 6.87089e-06 0 0)
(0.000245759 3.06253e-05 0 8.35375e-06 0 0)
(0.000213297 2.87793e-05 0 9.97863e-06 0 0)
(0.000181332 2.66369e-05 0 1.16979e-05 0 0)
(0.000150353 2.42462e-05 0 1.34601e-05 0 0)
(0.000120885 2.16604e-05 0 1.5212e-05 0 0)
(9.34715e-05 1.89337e-05 0 1.68997e-05 0 0)
(6.86627e-05 1.61155e-05 0 1.84709e-05 0 0)
(4.69893e-05 1.32511e-05 0 1.98761e-05 0 0)
(2.89541e-05 1.03694e-05 0 2.10672e-05 0 0)
(1.49896e-05 7.50125e-06 0 2.20028e-05 0 0)
(5.45469e-06 4.62295e-06 0 2.24356e-05 0 0)
(6.11558e-07 1.90375e-06 0 2.46003e-05 0 0)
(0.139775 -0.00542739 0 0.0146195 0 0)
(0.0515395 0.00752809 0 0.00712771 0 0)
(0.0145196 -0.00222251 0 0.00427634 0 0)
(0.00375498 -0.000207712 0 0.00363242 0 0)
(0.00333121 -0.000251206 0 0.00373907 0 0)
(0.00449461 -0.00132926 0 0.00402012 0 0)
(0.00585705 -0.00236582 0 0.00420662 0 0)
(0.00718382 -0.00317835 0 0.00432251 0 0)
(0.00894716 -0.00385514 0 0.00437825 0 0)
(0.0112861 -0.00443905 0 0.00426879 0 0)
(0.0140526 -0.00488664 0 0.00394858 0 0)
(0.017038 -0.00517751 0 0.00357223 0 0)
(0.0201525 -0.00536419 0 0.00329745 0 0)
(0.0233809 -0.00547849 0 0.00312523 0 0)
(0.026633 -0.00548617 0 0.00298643 0 0)
(0.0297013 -0.00532059 0 0.00282688 0 0)
(0.032373 -0.00492367 0 0.00261685 0 0)
(0.0345896 -0.00426428 0 0.00233765 0 0)
(0.0364429 -0.00333506 0 0.00197317 0 0)
(0.0379982 -0.0021559 0 0.00152855 0 0)
(0.0391852 -0.000792988 0 0.00106245 0 0)
(0.0398491 0.000624315 0 0.000678319 0 0)
(0.0398528 0.00192017 0 0.00045483 0 0)
(0.0391526 0.00293406 0 0.000387926 0 0)
(0.0378299 0.00358796 0 0.000410183 0 0)
(0.0360631 0.00390584 0 0.000452551 0 0)
(0.0340506 0.00397683 0 0.000480107 0 0)
(0.0319461 0.00390064 0 0.000487811 0 0)
(0.0298441 0.00375306 0 0.000482543 0 0)
(0.0277961 0.00357894 0 0.000471393 0 0)
(0.0258277 0.00339972 0 0.000458407 0 0)
(0.0239492 0.00322362 0 0.000445232 0 0)
(0.0221634 0.00305295 0 0.000432336 0 0)
(0.0204701 0.002888 0 0.000419772 0 0)
(0.018868 0.0027286 0 0.000407495 0 0)
(0.0173549 0.00257456 0 0.000395461 0 0)
(0.0159282 0.0024257 0 0.000383641 0 0)
(0.0145851 0.0022819 0 0.000372016 0 0)
(0.013323 0.00214303 0 0.000360571 0 0)
(0.012139 0.00200899 0 0.00034929 0 0)
(0.0110304 0.00187969 0 0.000338159 0 0)
(0.00999453 0.00175501 0 0.000327164 0 0)
(0.00902879 0.00163487 0 0.00031629 0 0)
(0.00813056 0.0015192 0 0.000305524 0 0)
(0.00729731 0.00140792 0 0.00029485 0 0)
(0.00652653 0.00130096 0 0.000284255 0 0)
(0.00581577 0.00119827 0 0.000273729 0 0)
(0.00516258 0.00109981 0 0.000263258 0 0)
(0.00456455 0.00100554 0 0.000252834 0 0)
(0.0040193 0.000915425 0 0.000242448 0 0)
(0.00352443 0.000829451 0 0.000232093 0 0)
(0.00307757 0.000747602 0 0.000221765 0 0)
(0.00267637 0.00066987 0 0.000211459 0 0)
(0.00231846 0.000596254 0 0.000201175 0 0)
(0.00200146 0.000526754 0 0.000190915 0 0)
(0.00172302 0.000461374 0 0.000180682 0 0)
(0.00148075 0.000400119 0 0.000170483 0 0)
(0.00127229 0.000342994 0 0.000160326 0 0)
(0.00109524 0.000290005 0 0.000150224 0 0)
(0.000947231 0.000241153 0 0.000140195 0 0)
(0.000825875 0.000196437 0 0.000130259 0 0)
(0.000728793 0.000155844 0 0.00012044 0 0)
(0.000653615 0.000119352 0 0.000110765 0 0)
(0.000597977 8.6923e-05 0 0.000101263 0 0)
(0.000559537 5.85024e-05 0 9.19646e-05 0 0)
(0.000535981 3.40211e-05 0 8.29021e-05 0 0)
(0.00052505 1.33955e-05 0 7.41127e-05 0 0)
(0.00052455 -3.47551e-06 0 6.56399e-05 0 0)
(0.000532358 -1.672e-05 0 5.75342e-05 0 0)
(0.000546432 -2.6497e-05 0 4.98445e-05 0 0)
(0.000564823 -3.29842e-05 0 4.26135e-05 0 0)
(0.000585701 -3.63786e-05 0 3.58798e-05 0 0)
(0.000607376 -3.69024e-05 0 2.96837e-05 0 0)
(0.000628304 -3.4804e-05 0 2.407e-05 0 0)
(0.000647104 -3.03576e-05 0 1.90845e-05 0 0)
(0.000662569 -2.38612e-05 0 1.47695e-05 0 0)
(0.000673683 -1.56351e-05 0 1.11619e-05 0 0)
(0.000679627 -6.01865e-06 0 8.29225e-06 0 0)
(0.000679792 4.63444e-06 0 6.18261e-06 0 0)
(0.000673775 1.59613e-05 0 4.84508e-06 0 0)
(0.000661385 2.75961e-05 0 4.28029e-06 0 0)
(0.000642636 3.91767e-05 0 4.47619e-06 0 0)
(0.000617737 5.03515e-05 0 5.40731e-06 0 0)
(0.000587082 6.07874e-05 0 7.03423e-06 0 0)
(0.000551232 7.01769e-05 0 9.30358e-06 0 0)
(0.000510895 7.82446e-05 0 1.21484e-05 0 0)
(0.000466901 8.47541e-05 0 1.54893e-05 0 0)
(0.000420176 8.95132e-05 0 1.92354e-05 0 0)
(0.000371717 9.23777e-05 0 2.32865e-05 0 0)
(0.000322564 9.32549e-05 0 2.75356e-05 0 0)
(0.000273768 9.21041e-05 0 3.18709e-05 0 0)
(0.00022637 8.89372e-05 0 3.61788e-05 0 0)
(0.000181371 8.38152e-05 0 4.03461e-05 0 0)
(0.000139716 7.68482e-05 0 4.42627e-05 0 0)
(0.00010227 6.81898e-05 0 4.78251e-05 0 0)
(6.98062e-05 5.80386e-05 0 5.09406e-05 0 0)
(4.29719e-05 4.66174e-05 0 5.3528e-05 0 0)
(2.23337e-05 3.4216e-05 0 5.55511e-05 0 0)
(8.20583e-06 2.09393e-05 0 5.65479e-05 0 0)
(1.03104e-06 7.7958e-06 0 6.15217e-05 0 0)
(0.146375 -0.0057081 0 0.0150194 0 0)
(0.0468843 0.00807684 0 0.00696045 0 0)
(0.016646 -0.00340579 0 0.00492094 0 0)
(0.00381226 -0.000333504 0 0.00467205 0 0)
(0.00327609 -0.000582776 0 0.00481126 0 0)
(0.00470988 -0.00223233 0 0.00505287 0 0)
(0.00624911 -0.00361015 0 0.00533617 0 0)
(0.0075199 -0.00447036 0 0.00555167 0 0)
(0.00902736 -0.00501883 0 0.00563324 0 0)
(0.0110894 -0.00549259 0 0.00561832 0 0)
(0.0136668 -0.00600067 0 0.0055497 0 0)
(0.0165183 -0.00649026 0 0.00542685 0 0)
(0.0194097 -0.00681408 0 0.005222 0 0)
(0.0221961 -0.00683129 0 0.00489283 0 0)
(0.0248447 -0.00653062 0 0.0044531 0 0)
(0.0274047 -0.00606577 0 0.00402788 0 0)
(0.0299302 -0.00561448 0 0.00372578 0 0)
(0.0324284 -0.00520443 0 0.00351935 0 0)
(0.0348297 -0.00468298 0 0.00330538 0 0)
(0.0369708 -0.00382855 0 0.00295536 0 0)
(0.0386276 -0.00250085 0 0.00237383 0 0)
(0.0395957 -0.000761231 0 0.00164795 0 0)
(0.0397619 0.00111556 0 0.00103086 0 0)
(0.0391331 0.00277823 0 0.000702982 0 0)
(0.0378321 0.00398015 0 0.000636296 0 0)
(0.0360602 0.00466621 0 0.000690348 0 0)
(0.0340284 0.00493266 0 0.000753282 0 0)
(0.0318996 0.00492927 0 0.000784809 0 0)
(0.0297749 0.0047845 0 0.000787745 0 0)
(0.0277097 0.00458008 0 0.000775102 0 0)
(0.0257301 0.00435763 0 0.000756258 0 0)
(0.0238456 0.00413446 0 0.000735651 0 0)
(0.0220575 0.00391634 0 0.000714865 0 0)
(0.0203639 0.00370475 0 0.000694325 0 0)
(0.0187626 0.00349988 0 0.000674106 0 0)
(0.0172508 0.00330167 0 0.000654207 0 0)
(0.0158255 0.00311001 0 0.000634619 0 0)
(0.0144839 0.00292478 0 0.000615334 0 0)
(0.0132231 0.00274587 0 0.000596339 0 0)
(0.0120403 0.00257315 0 0.000577618 0 0)
(0.0109327 0.00240651 0 0.000559152 0 0)
(0.00989782 0.00224581 0 0.000540917 0 0)
(0.00893291 0.00209096 0 0.000522892 0 0)
(0.00803542 0.00194183 0 0.000505053 0 0)
(0.00720285 0.00179834 0 0.000487377 0 0)
(0.00643271 0.0016604 0 0.000469843 0 0)
(0.00572258 0.00152793 0 0.00045243 0 0)
(0.00507006 0.00140089 0 0.000435118 0 0)
(0.00447275 0.0012792 0 0.000417891 0 0)
(0.00392831 0.00116285 0 0.000400734 0 0)
(0.00343439 0.00105179 0 0.000383633 0 0)
(0.00298866 0.000946006 0 0.00036658 0 0)
(0.0025888 0.000845494 0 0.000349567 0 0)
(0.00223249 0.00075025 0 0.000332593 0 0)
(0.0019174 0.000660277 0 0.000315659 0 0)
(0.00164121 0.000575584 0 0.000298769 0 0)
(0.0014016 0.000496184 0 0.000281935 0 0)
(0.00119622 0.000422091 0 0.000265172 0 0)
(0.00102275 0.000353317 0 0.0002485 0 0)
(0.000878824 0.000289875 0 0.000231947 0 0)
(0.000762109 0.000231766 0 0.000215545 0 0)
(0.000670248 0.000178987 0 0.000199332 0 0)
(0.000600891 0.000131519 0 0.000183348 0 0)
(0.000551692 8.93289e-05 0 0.000167641 0 0)
(0.000520317 5.23683e-05 0 0.000152262 0 0)
(0.000504457 2.05697e-05 0 0.00013727 0 0)
(0.000501838 -6.15544e-06 0 0.00012273 0 0)
(0.00051023 -2.79221e-05 0 0.000108715 0 0)
(0.000527459 -4.48761e-05 0 9.52996e-05 0 0)
(0.00055142 -5.71953e-05 0 8.25621e-05 0 0)
(0.000580087 -6.50896e-05 0 7.05791e-05 0 0)
(0.000611528 -6.88011e-05 0 5.94273e-05 0 0)
(0.000643925 -6.86083e-05 0 4.91842e-05 0 0)
(0.000675588 -6.48278e-05 0 3.99261e-05 0 0)
(0.000704974 -5.78132e-05 0 3.1724e-05 0 0)
(0.000730698 -4.79522e-05 0 2.46405e-05 0 0)
(0.000751551 -3.56641e-05 0 1.87282e-05 0 0)
(0.000766513 -2.13963e-05 0 1.40279e-05 0 0)
(0.000774766 -5.61963e-06 0 1.05665e-05 0 0)
(0.000775706 1.11771e-05 0 8.35484e-06 0 0)
(0.000768945 2.84947e-05 0 7.38553e-06 0 0)
(0.000754324 4.58316e-05 0 7.63135e-06 0 0)
(0.000731904 6.26933e-05 0 9.04419e-06 0 0)
(0.00070197 7.86016e-05 0 1.15546e-05 0 0)
(0.000665018 9.31057e-05 0 1.50719e-05 0 0)
(0.000621745 0.000105792 0 1.94852e-05 0 0)
(0.00057303 0.000116293 0 2.46649e-05 0 0)
(0.000519913 0.0001243 0 3.04655e-05 0 0)
(0.000463569 0.000129566 0 3.67282e-05 0 0)
(0.000405278 0.000131918 0 4.32848e-05 0 0)
(0.000346389 0.000131256 0 4.99619e-05 0 0)
(0.00028829 0.000127561 0 5.6585e-05 0 0)
(0.000232366 0.000120892 0 6.29825e-05 0 0)
(0.000179965 0.000111385 0 6.89896e-05 0 0)
(0.000132354 9.92484e-05 0 7.44523e-05 0 0)
(9.0701e-05 8.47642e-05 0 7.92323e-05 0 0)
(5.60079e-05 6.82597e-05 0 8.32016e-05 0 0)
(2.91695e-05 5.01761e-05 0 8.6318e-05 0 0)
(1.07245e-05 3.06955e-05 0 8.78668e-05 0 0)
(1.34358e-06 1.13383e-05 0 9.57309e-05 0 0)
(0.139541 -0.00755639 0 0.0160746 0 0)
(0.0495671 0.00846603 0 0.00844309 0 0)
(0.0158691 -0.00460826 0 0.00660257 0 0)
(0.00366058 -0.0011833 0 0.00671626 0 0)
(0.00303206 -0.00110372 0 0.0072886 0 0)
(0.00454489 -0.00272373 0 0.00801035 0 0)
(0.00622228 -0.00423734 0 0.00864285 0 0)
(0.00758365 -0.00534064 0 0.00906369 0 0)
(0.00917017 -0.00620038 0 0.00928784 0 0)
(0.0112762 -0.00692017 0 0.0092786 0 0)
(0.0138489 -0.00748946 0 0.0089315 0 0)
(0.0166714 -0.00785205 0 0.00828616 0 0)
(0.0195477 -0.00798696 0 0.00757739 0 0)
(0.0223881 -0.00794396 0 0.00699869 0 0)
(0.0252166 -0.00779893 0 0.0065736 0 0)
(0.0281154 -0.0075857 0 0.0062335 0 0)
(0.0311197 -0.00726954 0 0.0058977 0 0)
(0.0341479 -0.00675374 0 0.00548074 0 0)
(0.0369903 -0.00589122 0 0.00487817 0 0)
(0.0393299 -0.00452722 0 0.004013 0 0)
(0.0408357 -0.00261785 0 0.00295296 0 0)
(0.0413229 -0.000350763 0 0.0019441 0 0)
(0.0408422 0.00189703 0 0.00124884 0 0)
(0.0396122 0.0037572 0 0.000950556 0 0)
(0.0378933 0.00503701 0 0.000936622 0 0)
(0.0359079 0.00574412 0 0.00103309 0 0)
(0.0338107 0.00600893 0 0.00112271 0 0)
(0.0316918 0.00599057 0 0.00116711 0 0)
(0.0296007 0.00581875 0 0.00117253 0 0)
(0.0275671 0.00557725 0 0.00115567 0 0)
(0.0256102 0.0053113 0 0.00112901 0 0)
(0.0237401 0.00504162 0 0.00109895 0 0)
(0.0219611 0.00477634 0 0.00106815 0 0)
(0.0202739 0.00451821 0 0.00103751 0 0)
(0.0186777 0.00426802 0 0.00100728 0 0)
(0.0171703 0.00402593 0 0.000977541 0 0)
(0.0157491 0.00379187 0 0.000948288 0 0)
(0.0144115 0.00356572 0 0.000919511 0 0)
(0.0131545 0.00334731 0 0.000891186 0 0)
(0.0119754 0.00313648 0 0.000863283 0 0)
(0.0108715 0.00293308 0 0.000835769 0 0)
(0.00983996 0.00273693 0 0.000808608 0 0)
(0.00887831 0.00254791 0 0.000781765 0 0)
(0.00798394 0.00236587 0 0.000755203 0 0)
(0.00715436 0.00219069 0 0.000728887 0 0)
(0.00638708 0.00202227 0 0.000702783 0 0)
(0.0056797 0.00186052 0 0.00067686 0 0)
(0.00502982 0.00170536 0 0.000651088 0 0)
(0.00443507 0.00155673 0 0.000625441 0 0)
(0.00389311 0.00141459 0 0.000599897 0 0)
(0.00340162 0.00127889 0 0.000574436 0 0)
(0.00295826 0.00114962 0 0.000549044 0 0)
(0.00256075 0.00102677 0 0.00052371 0 0)
(0.00220676 0.000910337 0 0.000498432 0 0)
(0.00189399 0.000800323 0 0.000473209 0 0)
(0.00162013 0.000696746 0 0.000448051 0 0)
(0.00138287 0.000599622 0 0.000422971 0 0)
(0.00117987 0.00050897 0 0.000397993 0 0)
(0.00100881 0.000424809 0 0.000373146 0 0)
(0.000867353 0.000347153 0 0.000348468 0 0)
(0.000753154 0.00027601 0 0.000324004 0 0)
(0.000663865 0.000211378 0 0.00029981 0 0)
(0.000597138 0.000153239 0 0.000275945 0 0)
(0.000550631 0.000101561 0 0.00025248 0 0)
(0.000522012 5.62895e-05 0 0.000229495 0 0)
(0.000508971 1.73496e-05 0 0.000207077 0 0)
(0.000509227 -1.53624e-05 0 0.000185325 0 0)
(0.000520541 -4.19819e-05 0 0.000164343 0 0)
(0.000540726 -6.26798e-05 0 0.000144241 0 0)
(0.000567659 -7.76657e-05 0 0.000125135 0 0)
(0.000599294 -8.71901e-05 0 0.000107143 0 0)
(0.000633678 -9.15452e-05 0 9.03847e-05 0 0)
(0.000668962 -9.10675e-05 0 7.49766e-05 0 0)
(0.000703427 -8.61397e-05 0 6.10307e-05 0 0)
(0.000735492 -7.71894e-05 0 4.86515e-05 0 0)
(0.000763735 -6.46873e-05 0 3.79326e-05 0 0)
(0.000786904 -4.91437e-05 0 2.89537e-05 0 0)
(0.000803935 -3.11051e-05 0 2.17776e-05 0 0)
(0.000813965 -1.11486e-05 0 1.64466e-05 0 0)
(0.00081634 1.01249e-05 0 1.29795e-05 0 0)
(0.00081063 3.20991e-05 0 1.13687e-05 0 0)
(0.000796628 5.41518e-05 0 1.15782e-05 0 0)
(0.000774359 7.5666e-05 0 1.35411e-05 0 0)
(0.000744075 9.60411e-05 0 1.71593e-05 0 0)
(0.000706252 0.000114706 0 2.23033e-05 0 0)
(0.000661577 0.000131131 0 2.88127e-05 0 0)
(0.000610937 0.000144842 0 3.64987e-05 0 0)
(0.000555396 0.00015543 0 4.5147e-05 0 0)
(0.000496173 0.000162565 0 5.45219e-05 0 0)
(0.000434612 0.000166006 0 6.43716e-05 0 0)
(0.00037215 0.000165604 0 7.44334e-05 0 0)
(0.000310278 0.000161312 0 8.4441e-05 0 0)
(0.000250502 0.000153187 0 9.413e-05 0 0)
(0.000194303 0.000141386 0 0.000103245 0 0)
(0.000143089 0.000126166 0 0.000111546 0 0)
(9.81659e-05 0.000107881 0 0.000118816 0 0)
(6.06655e-05 8.69498e-05 0 0.000124854 0 0)
(3.16058e-05 6.39457e-05 0 0.000129597 0 0)
(1.16179e-05 3.91196e-05 0 0.00013197 0 0)
(1.45114e-06 1.44241e-05 0 0.000143777 0 0)
(0.138105 -0.0091661 0 0.0156152 0 0)
(0.0517492 0.012568 0 0.00970432 0 0)
(0.0159327 -0.00434023 0 0.00863257 0 0)
(0.00366394 -0.000434453 0 0.00900042 0 0)
(0.00306781 -0.00068411 0 0.00987457 0 0)
(0.00438478 -0.00287256 0 0.0107394 0 0)
(0.0060451 -0.00463955 0 0.0112169 0 0)
(0.00758184 -0.00575128 0 0.011471 0 0)
(0.00928082 -0.00655777 0 0.0117126 0 0)
(0.0113221 -0.00730821 0 0.0118686 0 0)
(0.0137498 -0.00806173 0 0.0118161 0 0)
(0.0165552 -0.00877011 0 0.0115315 0 0)
(0.0197005 -0.00935122 0 0.0110356 0 0)
(0.0231031 -0.00971305 0 0.0103702 0 0)
(0.026611 -0.00978772 0 0.00966898 0 0)
(0.0299942 -0.00961062 0 0.009098 0 0)
(0.0330637 -0.0092787 0 0.00867448 0 0)
(0.0357954 -0.00874943 0 0.00826138 0 0)
(0.0382362 -0.00779372 0 0.00763007 0 0)
(0.0403148 -0.00617418 0 0.00650725 0 0)
(0.041801 -0.003829 0 0.00486509 0 0)
(0.0424288 -0.00098239 0 0.00314129 0 0)
(0.0420599 0.0018854 0 0.00190246 0 0)
(0.040772 0.00426805 0 0.00135316 0 0)
(0.0388237 0.00588722 0 0.00129483 0 0)
(0.0365313 0.00675723 0 0.00142312 0 0)
(0.0341477 0.00706869 0 0.00154765 0 0)
(0.0318149 0.00703994 0 0.00161113 0 0)
(0.0295879 0.00683567 0 0.00162234 0 0)
(0.0274792 0.00655428 0 0.00160335 0 0)
(0.0254862 0.0062456 0 0.00157015 0 0)
(0.0236022 0.00593177 0 0.0015311 0 0)
(0.0218205 0.0056217 0 0.00148991 0 0)
(0.0201358 0.00531884 0 0.00144817 0 0)
(0.0185442 0.00502454 0 0.00140653 0 0)
(0.0170425 0.00473934 0 0.00136531 0 0)
(0.0156272 0.00446338 0 0.00132464 0 0)
(0.0142953 0.00419662 0 0.00128458 0 0)
(0.0130439 0.00393895 0 0.00124513 0 0)
(0.0118702 0.0036902 0 0.00120627 0 0)
(0.0107715 0.00345019 0 0.00116794 0 0)
(0.00974499 0.00321873 0 0.00113012 0 0)
(0.00878816 0.00299566 0 0.00109274 0 0)
(0.00789846 0.0027808 0 0.00105576 0 0)
(0.00707338 0.00257403 0 0.00101913 0 0)
(0.00631049 0.00237521 0 0.000982786 0 0)
(0.00560737 0.00218424 0 0.000946699 0 0)
(0.00496167 0.00200103 0 0.000910822 0 0)
(0.00437102 0.00182551 0 0.000875119 0 0)
(0.00383311 0.00165762 0 0.000839556 0 0)
(0.00334562 0.00149733 0 0.000804107 0 0)
(0.00290626 0.00134461 0 0.00076875 0 0)
(0.00251274 0.00119946 0 0.000733471 0 0)
(0.00216276 0.00106187 0 0.000698263 0 0)
(0.00185402 0.000931859 0 0.000663126 0 0)
(0.00158424 0.000809445 0 0.000628071 0 0)
(0.00135109 0.000694653 0 0.000593118 0 0)
(0.00115227 0.00058751 0 0.000558295 0 0)
(0.000985452 0.000488044 0 0.000523642 0 0)
(0.000848295 0.000396278 0 0.000489212 0 0)
(0.000738453 0.000312226 0 0.000455065 0 0)
(0.000653575 0.000235892 0 0.000421278 0 0)
(0.000591303 0.000167265 0 0.000387934 0 0)
(0.000549281 0.000106313 0 0.000355134 0 0)
(0.000525162 5.29823e-05 0 0.000322989 0 0)
(0.000516614 7.1885e-06 0 0.000291622 0 0)
(0.000521332 -3.11845e-05 0 0.000261169 0 0)
(0.000537046 -6.22909e-05 0 0.000231775 0 0)
(0.000561533 -8.63272e-05 0 0.000203595 0 0)
(0.000592634 -0.000103536 0 0.000176789 0 0)
(0.000628261 -0.000114208 0 0.000151524 0 0)
(0.000666417 -0.000118687 0 0.000127967 0 0)
(0.000705212 -0.00011737 0 0.000106281 0 0)
(0.000742881 -0.000110707 0 8.66254e-05 0 0)
(0.000777798 -9.92062e-05 0 6.91478e-05 0 0)
(0.000808498 -8.34259e-05 0 5.3984e-05 0 0)
(0.00083369 -6.39748e-05 0 4.12513e-05 0 0)
(0.000852272 -4.15068e-05 0 3.10439e-05 0 0)
(0.000863352 -1.67147e-05 0 2.34282e-05 0 0)
(0.000866252 9.67772e-06 0 1.84383e-05 0 0)
(0.000860525 3.69259e-05 0 1.60719e-05 0 0)
(0.000845959 6.42755e-05 0 1.62867e-05 0 0)
(0.000822582 9.09753e-05 0 1.89978e-05 0 0)
(0.000790663 0.000116292 0 2.40755e-05 0 0)
(0.000750702 0.000139524 0 3.13451e-05 0 0)
(0.000703427 0.000160019 0 4.05873e-05 0 0)
(0.000649774 0.000177188 0 5.1541e-05 0 0)
(0.000590873 0.000190521 0 6.39067e-05 0 0)