/*--------------------------------*- C++ -*----------------------------------*\
| =========                 |                                                 |
| \\      /  F ield         | OpenFOAM: The Open Source CFD Toolbox           |
|  \\    /   O peration     | Version:  4.1                                   |
|   \\  /    A nd           | Web:      www.OpenFOAM.org                      |
|    \\/     M anipulation  |                                                 |
\*---------------------------------------------------------------------------*/
FoamFile
{
    version     2.0;
    format      ascii;
    class       volScalarField;
    location    "716";
    object      p;
}
// * * * * * * * * * * * * * * * * * * * * * * * * * * * * * * * * * * * * * //

dimensions      [0 2 -2 0 0 0 0];

internalField   nonuniform List<scalar> 
43750
(
0.000238339
0.000230581
0.000224722
0.000221759
0.000219657
0.000217677
0.000216005
0.000214775
0.000213929
0.000213379
0.000213067
0.000212948
0.000212976
0.000213113
0.000213328
0.000213598
0.000213906
0.000214244
0.000214601
0.000214975
0.000215362
0.000215761
0.000216169
0.000216585
0.00021701
0.00021744
0.000217874
0.000218312
0.00021875
0.000219188
0.000219623
0.000220054
0.000220479
0.000220895
0.000221301
0.000221696
0.000222078
0.000222447
0.0002228
0.000223137
0.000223458
0.000223763
0.00022405
0.00022432
0.000224573
0.00022481
0.000225031
0.000225235
0.000225425
0.000225601
0.000225762
0.000225911
0.000226048
0.000226173
0.000226288
0.000226394
0.00022649
0.000226578
0.000226658
0.000226732
0.000226799
0.00022686
0.000226916
0.000226967
0.000227014
0.000227057
0.000227096
0.000227132
0.000227165
0.000227194
0.000227221
0.000227245
0.000227266
0.000227284
0.000227301
0.000227316
0.000227329
0.000227342
0.000227354
0.000227366
0.000227378
0.000227391
0.000227405
0.000227421
0.000227437
0.000227453
0.000227471
0.000227488
0.000227504
0.000227518
0.00022753
0.000227539
0.000227545
0.000227547
0.000227545
0.000227542
0.000227537
0.000227531
0.000227527
0.000227526
0.000227819
0.000224995
0.000222315
0.000220593
0.000219113
0.000217559
0.000216134
0.000215019
0.000214221
0.000213686
0.00021337
0.000213233
0.000213237
0.000213347
0.000213535
0.000213781
0.000214068
0.000214387
0.00021473
0.000215092
0.00021547
0.000215861
0.000216263
0.000216675
0.000217096
0.000217523
0.000217956
0.000218391
0.000218828
0.000219264
0.000219698
0.000220127
0.000220549
0.000220963
0.000221368
0.00022176
0.00022214
0.000222505
0.000222856
0.00022319
0.000223508
0.000223809
0.000224093
0.00022436
0.00022461
0.000224844
0.000225061
0.000225263
0.00022545
0.000225623
0.000225782
0.000225928
0.000226062
0.000226186
0.000226299
0.000226402
0.000226497
0.000226584
0.000226663
0.000226735
0.000226801
0.000226862
0.000226917
0.000226968
0.000227014
0.000227057
0.000227096
0.000227131
0.000227163
0.000227193
0.000227219
0.000227243
0.000227264
0.000227283
0.0002273
0.000227315
0.000227329
0.000227342
0.000227354
0.000227366
0.000227379
0.000227392
0.000227405
0.00022742
0.000227435
0.000227451
0.000227467
0.000227484
0.000227499
0.000227513
0.000227524
0.000227533
0.000227538
0.000227541
0.00022754
0.000227537
0.000227533
0.000227529
0.000227526
0.000227524
0.000223895
0.000223185
0.000221653
0.000220053
0.000218659
0.000217393
0.000216259
0.000215322
0.000214603
0.000214082
0.000213734
0.000213539
0.000213475
0.00021352
0.000213651
0.000213851
0.000214105
0.0002144
0.000214728
0.000215082
0.000215456
0.000215847
0.000216252
0.000216668
0.000217094
0.000217526
0.000217965
0.000218406
0.000218849
0.00021929
0.000219729
0.000220163
0.00022059
0.000221009
0.000221416
0.000221811
0.000222193
0.00022256
0.000222911
0.000223245
0.000223562
0.000223862
0.000224145
0.000224409
0.000224657
0.000224888
0.000225103
0.000225301
0.000225485
0.000225655
0.000225811
0.000225955
0.000226086
0.000226207
0.000226318
0.000226419
0.000226511
0.000226596
0.000226673
0.000226744
0.000226809
0.000226868
0.000226922
0.000226972
0.000227017
0.000227059
0.000227097
0.000227132
0.000227164
0.000227193
0.00022722
0.000227243
0.000227264
0.000227283
0.0002273
0.000227316
0.000227329
0.000227342
0.000227355
0.000227367
0.000227379
0.000227391
0.000227404
0.000227418
0.000227432
0.000227448
0.000227463
0.000227479
0.000227494
0.000227507
0.000227518
0.000227527
0.000227533
0.000227536
0.000227535
0.000227533
0.00022753
0.000227526
0.000227522
0.00022752
0.000221633
0.000221279
0.00022026
0.000219017
0.000217903
0.000216919
0.000216021
0.00021524
0.000214612
0.000214142
0.000213813
0.000213613
0.000213527
0.000213539
0.000213634
0.000213796
0.000214013
0.000214277
0.000214578
0.000214911
0.000215269
0.000215649
0.000216048
0.000216462
0.000216889
0.000217327
0.000217773
0.000218225
0.000218679
0.000219135
0.000219589
0.000220039
0.000220483
0.000220918
0.000221343
0.000221754
0.000222152
0.000222533
0.000222897
0.000223244
0.000223571
0.00022388
0.000224169
0.000224439
0.000224691
0.000224924
0.00022514
0.000225339
0.000225523
0.000225691
0.000225846
0.000225987
0.000226117
0.000226235
0.000226344
0.000226442
0.000226533
0.000226615
0.00022669
0.000226759
0.000226822
0.000226879
0.000226932
0.00022698
0.000227024
0.000227065
0.000227102
0.000227136
0.000227168
0.000227197
0.000227223
0.000227246
0.000227267
0.000227286
0.000227303
0.000227318
0.000227332
0.000227344
0.000227356
0.000227367
0.000227379
0.00022739
0.000227402
0.000227415
0.000227428
0.000227442
0.000227457
0.000227473
0.000227487
0.000227501
0.000227513
0.000227522
0.000227529
0.000227532
0.000227532
0.00022753
0.000227526
0.000227522
0.000227518
0.000227514
0.000219809
0.000219541
0.000218882
0.000218024
0.000217184
0.000216409
0.000215687
0.000215041
0.000214504
0.000214087
0.000213786
0.000213591
0.000213492
0.00021348
0.000213542
0.000213669
0.00021385
0.000214078
0.000214346
0.000214648
0.000214979
0.000215337
0.000215716
0.000216115
0.00021653
0.00021696
0.000217402
0.000217853
0.000218312
0.000218775
0.00021924
0.000219704
0.000220166
0.000220621
0.000221069
0.000221506
0.000221929
0.000222338
0.00022273
0.000223103
0.000223457
0.00022379
0.000224102
0.000224393
0.000224662
0.000224911
0.000225139
0.000225348
0.000225539
0.000225713
0.000225872
0.000226015
0.000226146
0.000226264
0.000226372
0.000226469
0.000226558
0.000226639
0.000226712
0.000226779
0.000226839
0.000226895
0.000226946
0.000226992
0.000227035
0.000227074
0.00022711
0.000227143
0.000227174
0.000227202
0.000227228
0.000227252
0.000227273
0.000227292
0.000227308
0.000227323
0.000227336
0.000227348
0.000227358
0.000227368
0.000227378
0.000227388
0.000227398
0.00022741
0.000227422
0.000227435
0.000227449
0.000227464
0.000227479
0.000227493
0.000227506
0.000227517
0.000227524
0.000227528
0.000227528
0.000227526
0.000227522
0.000227517
0.000227512
0.000227508
0.000218324
0.000218144
0.000217714
0.000217111
0.000216466
0.000215845
0.000215262
0.000214733
0.000214283
0.000213924
0.000213656
0.000213475
0.000213375
0.00021335
0.000213392
0.000213493
0.000213646
0.000213844
0.000214081
0.000214352
0.000214654
0.000214983
0.000215335
0.000215709
0.000216101
0.00021651
0.000216934
0.00021737
0.000217817
0.000218272
0.000218733
0.000219198
0.000219665
0.00022013
0.000220592
0.000221048
0.000221495
0.000221932
0.000222354
0.000222761
0.00022315
0.00022352
0.000223869
0.000224196
0.0002245
0.000224781
0.000225039
0.000225274
0.000225488
0.000225682
0.000225856
0.000226012
0.000226152
0.000226278
0.00022639
0.00022649
0.000226581
0.000226662
0.000226735
0.0002268
0.00022686
0.000226914
0.000226963
0.000227008
0.000227049
0.000227086
0.000227121
0.000227153
0.000227183
0.000227211
0.000227236
0.00022726
0.00022728
0.000227299
0.000227315
0.00022733
0.000227342
0.000227352
0.000227362
0.00022737
0.000227378
0.000227385
0.000227394
0.000227402
0.000227413
0.000227424
0.000227437
0.000227452
0.000227467
0.000227482
0.000227496
0.000227509
0.000227518
0.000227523
0.000227525
0.000227523
0.000227518
0.000227513
0.000227506
0.000227501
0.000217084
0.00021696
0.00021666
0.000216221
0.000215729
0.00021524
0.000214775
0.000214348
0.000213976
0.000213672
0.00021344
0.00021328
0.000213188
0.000213161
0.000213192
0.000213278
0.00021341
0.000213585
0.000213798
0.000214044
0.00021432
0.000214622
0.000214948
0.000215295
0.000215661
0.000216045
0.000216443
0.000216856
0.000217281
0.000217716
0.000218159
0.00021861
0.000219066
0.000219524
0.000219984
0.000220443
0.000220898
0.000221348
0.00022179
0.000222222
0.000222641
0.000223046
0.000223433
0.000223801
0.000224149
0.000224474
0.000224776
0.000225054
0.000225308
0.000225538
0.000225746
0.000225931
0.000226096
0.000226242
0.000226371
0.000226484
0.000226584
0.000226671
0.000226749
0.000226817
0.000226878
0.000226933
0.000226981
0.000227025
0.000227065
0.000227101
0.000227135
0.000227166
0.000227195
0.000227222
0.000227247
0.000227269
0.00022729
0.000227309
0.000227325
0.000227338
0.000227349
0.000227358
0.000227366
0.000227372
0.000227377
0.000227382
0.000227387
0.000227393
0.000227401
0.00022741
0.000227422
0.000227435
0.00022745
0.000227467
0.000227483
0.000227497
0.000227509
0.000227516
0.000227519
0.000227518
0.000227514
0.000227507
0.0002275
0.000227492
0.000216011
0.000215922
0.000215704
0.000215382
0.000215009
0.000214628
0.000214258
0.000213914
0.00021361
0.000213357
0.000213161
0.000213023
0.000212943
0.000212918
0.000212946
0.000213021
0.00021314
0.000213298
0.000213492
0.000213718
0.000213972
0.000214252
0.000214555
0.000214879
0.000215222
0.000215582
0.000215957
0.000216345
0.000216746
0.000217157
0.000217578
0.000218007
0.000218442
0.000218883
0.000219327
0.000219774
0.000220221
0.000220668
0.000221112
0.000221551
0.000221984
0.000222408
0.000222822
0.000223222
0.000223607
0.000223974
0.000224322
0.000224648
0.000224952
0.000225232
0.000225488
0.000225719
0.000225926
0.00022611
0.000226272
0.000226413
0.000226536
0.000226643
0.000226735
0.000226814
0.000226883
0.000226942
0.000226994
0.00022704
0.000227081
0.000227117
0.00022715
0.00022718
0.000227209
0.000227235
0.000227259
0.000227281
0.000227302
0.00022732
0.000227335
0.000227348
0.000227358
0.000227366
0.000227371
0.000227374
0.000227377
0.000227378
0.00022738
0.000227382
0.000227386
0.000227392
0.000227402
0.000227414
0.000227429
0.000227446
0.000227464
0.000227481
0.000227496
0.000227507
0.000227512
0.000227513
0.000227509
0.000227502
0.000227492
0.000227484
0.000215057
0.000214992
0.000214832
0.000214592
0.000214309
0.000214012
0.000213719
0.000213444
0.000213197
0.000212989
0.000212827
0.000212713
0.000212647
0.000212628
0.000212655
0.000212725
0.000212834
0.00021298
0.000213159
0.000213369
0.000213606
0.000213867
0.000214151
0.000214456
0.000214778
0.000215118
0.000215472
0.000215839
0.000216218
0.000216608
0.000217006
0.000217413
0.000217827
0.000218246
0.000218671
0.000219098
0.000219529
0.000219961
0.000220393
0.000220825
0.000221255
0.000221681
0.000222102
0.000222517
0.000222922
0.000223317
0.000223699
0.000224065
0.000224414
0.000224744
0.000225052
0.000225336
0.000225597
0.000225833
0.000226044
0.000226231
0.000226395
0.000226537
0.000226659
0.000226762
0.000226851
0.000226925
0.000226989
0.000227042
0.000227088
0.000227128
0.000227163
0.000227194
0.000227223
0.000227249
0.000227273
0.000227295
0.000227314
0.000227332
0.000227347
0.000227359
0.000227367
0.000227373
0.000227376
0.000227377
0.000227376
0.000227374
0.000227371
0.000227369
0.000227369
0.000227372
0.000227377
0.000227387
0.000227401
0.000227418
0.000227438
0.000227459
0.000227478
0.000227493
0.000227503
0.000227506
0.000227503
0.000227495
0.000227484
0.000227474
0.000214192
0.000214143
0.000214024
0.000213844
0.000213628
0.000213397
0.000213166
0.000212947
0.00021275
0.000212582
0.000212451
0.000212359
0.000212307
0.000212297
0.000212326
0.000212393
0.000212496
0.000212633
0.000212801
0.000212997
0.000213219
0.000213465
0.000213732
0.00021402
0.000214325
0.000214646
0.000214982
0.00021533
0.000215691
0.000216061
0.000216441
0.000216829
0.000217223
0.000217623
0.000218027
0.000218436
0.000218848
0.000219262
0.000219677
0.000220094
0.000220511
0.000220927
0.000221342
0.000221754
0.000222163
0.000222568
0.000222965
0.000223354
0.000223733
0.000224099
0.00022445
0.000224783
0.000225096
0.000225388
0.000225656
0.0002259
0.000226118
0.000226311
0.000226479
0.000226624
0.000226748
0.000226853
0.00022694
0.000227012
0.000227073
0.000227123
0.000227166
0.000227202
0.000227233
0.000227261
0.000227286
0.000227308
0.000227327
0.000227344
0.000227358
0.000227369
0.000227377
0.000227381
0.000227382
0.00022738
0.000227375
0.000227369
0.000227362
0.000227355
0.00022735
0.000227348
0.000227349
0.000227356
0.000227367
0.000227385
0.000227406
0.00022743
0.000227454
0.000227475
0.000227489
0.000227497
0.000227496
0.000227488
0.000227476
0.000227463
0.000213391
0.000213355
0.000213265
0.000213129
0.000212964
0.000212785
0.000212605
0.000212432
0.000212276
0.000212143
0.00021204
0.000211969
0.000211932
0.00021193
0.000211963
0.00021203
0.000212129
0.000212259
0.000212417
0.000212602
0.000212812
0.000213044
0.000213297
0.000213569
0.000213858
0.000214164
0.000214483
0.000214815
0.000215159
0.000215513
0.000215876
0.000216246
0.000216623
0.000217006
0.000217394
0.000217785
0.00021818
0.000218577
0.000218976
0.000219376
0.000219777
0.000220179
0.000220581
0.000220983
0.000221384
0.000221784
0.000222182
0.000222577
0.000222967
0.000223351
0.000223727
0.000224093
0.000224447
0.000224785
0.000225105
0.000225404
0.000225681
0.000225933
0.00022616
0.000226361
0.000226536
0.000226687
0.000226815
0.000226921
0.00022701
0.000227082
0.000227142
0.000227191
0.000227231
0.000227265
0.000227293
0.000227317
0.000227338
0.000227355
0.000227369
0.000227379
0.000227386
0.000227388
0.000227387
0.000227382
0.000227374
0.000227364
0.000227352
0.000227341
0.00022733
0.000227322
0.000227318
0.00022732
0.000227329
0.000227344
0.000227366
0.000227394
0.000227423
0.00022745
0.000227472
0.000227485
0.000227488
0.000227481
0.000227468
0.000227453
0.00021264
0.000212613
0.000212545
0.000212442
0.000212316
0.000212178
0.000212038
0.000211904
0.000211782
0.000211679
0.0002116
0.000211548
0.000211525
0.000211532
0.00021157
0.000211638
0.000211734
0.000211859
0.00021201
0.000212186
0.000212385
0.000212605
0.000212845
0.000213104
0.000213379
0.00021367
0.000213974
0.000214291
0.00021462
0.000214958
0.000215306
0.000215661
0.000216023
0.000216391
0.000216763
0.00021714
0.00021752
0.000217902
0.000218286
0.000218672
0.000219059
0.000219447
0.000219835
0.000220223
0.000220612
0.000221001
0.000221391
0.00022178
0.000222168
0.000222555
0.00022294
0.000223321
0.000223696
0.000224063
0.00022442
0.000224764
0.000225091
0.000225399
0.000225686
0.000225948
0.000226184
0.000226394
0.000226577
0.000226734
0.000226866
0.000226977
0.000227067
0.00022714
0.0002272
0.000227248
0.000227286
0.000227317
0.000227342
0.000227361
0.000227376
0.000227386
0.000227392
0.000227394
0.00022739
0.000227383
0.000227372
0.000227358
0.000227342
0.000227325
0.000227309
0.000227295
0.000227285
0.000227282
0.000227286
0.000227299
0.000227321
0.00022735
0.000227384
0.000227419
0.000227449
0.00022747
0.000227478
0.000227474
0.00022746
0.000227442
0.000211927
0.000211906
0.000211854
0.000211776
0.00021168
0.000211575
0.000211468
0.000211365
0.000211272
0.000211194
0.000211136
0.000211101
0.000211091
0.000211107
0.00021115
0.000211219
0.000211315
0.000211436
0.000211581
0.000211749
0.000211939
0.000212149
0.000212378
0.000212624
0.000212887
0.000213164
0.000213455
0.000213758
0.000214072
0.000214397
0.00021473
0.000215071
0.000215419
0.000215773
0.000216132
0.000216495
0.000216861
0.000217231
0.000217602
0.000217975
0.00021835
0.000218725
0.000219101
0.000219477
0.000219854
0.000220232
0.00022061
0.000220989
0.000221369
0.000221749
0.000222131
0.000222513
0.000222894
0.000223273
0.000223649
0.000224019
0.000224381
0.000224732
0.000225067
0.000225385
0.000225681
0.000225954
0.0002262
0.000226418
0.000226609
0.000226773
0.00022691
0.000227024
0.000227116
0.00022719
0.000227249
0.000227294
0.000227329
0.000227356
0.000227375
0.000227388
0.000227394
0.000227395
0.000227391
0.000227382
0.000227368
0.000227351
0.000227331
0.000227309
0.000227288
0.000227268
0.000227252
0.000227242
0.000227241
0.00022725
0.00022727
0.000227301
0.000227339
0.000227382
0.000227422
0.000227452
0.000227468
0.000227468
0.000227453
0.000227433
0.000211241
0.000211225
0.000211187
0.000211128
0.000211055
0.000210976
0.000210895
0.000210817
0.000210748
0.000210692
0.000210653
0.000210633
0.000210634
0.000210658
0.000210706
0.000210778
0.000210873
0.000210991
0.000211132
0.000211293
0.000211475
0.000211676
0.000211895
0.00021213
0.000212381
0.000212646
0.000212925
0.000213215
0.000213516
0.000213827
0.000214147
0.000214475
0.00021481
0.000215151
0.000215497
0.000215848
0.000216202
0.000216559
0.000216919
0.000217281
0.000217644
0.000218009
0.000218374
0.00021874
0.000219106
0.000219473
0.000219841
0.00022021
0.000220579
0.000220951
0.000221324
0.0002217
0.000222077
0.000222456
0.000222836
0.000223217
0.000223596
0.000223971
0.000224339
0.000224698
0.000225042
0.00022537
0.000225677
0.000225959
0.000226215
0.000226442
0.00022664
0.000226808
0.00022695
0.000227065
0.000227158
0.000227231
0.000227286
0.000227328
0.000227357
0.000227376
0.000227387
0.00022739
0.000227386
0.000227377
0.000227362
0.000227342
0.000227319
0.000227293
0.000227267
0.000227241
0.00022722
0.000227204
0.000227197
0.000227201
0.000227218
0.000227248
0.00022729
0.00022734
0.000227389
0.000227431
0.000227457
0.000227463
0.000227449
0.000227428
0.000210576
0.000210565
0.000210536
0.000210492
0.000210438
0.000210379
0.000210319
0.000210263
0.000210214
0.000210176
0.000210152
0.000210145
0.000210157
0.000210188
0.000210241
0.000210315
0.00021041
0.000210526
0.000210663
0.000210819
0.000210994
0.000211187
0.000211397
0.000211622
0.000211863
0.000212117
0.000212383
0.000212662
0.000212951
0.00021325
0.000213557
0.000213873
0.000214195
0.000214524
0.000214858
0.000215197
0.00021554
0.000215886
0.000216235
0.000216586
0.000216939
0.000217294
0.000217649
0.000218006
0.000218363
0.000218721
0.00021908
0.00021944
0.000219801
0.000220163
0.000220527
0.000220894
0.000221264
0.000221636
0.000222013
0.000222392
0.000222774
0.000223158
0.000223542
0.000223924
0.000224301
0.000224669
0.000225024
0.000225362
0.000225679
0.000225971
0.000226235
0.000226469
0.000226672
0.000226844
0.000226986
0.000227101
0.000227191
0.000227259
0.000227309
0.000227343
0.000227363
0.000227373
0.000227373
0.000227365
0.00022735
0.000227329
0.000227304
0.000227276
0.000227246
0.000227216
0.00022719
0.000227169
0.000227156
0.000227155
0.000227168
0.000227196
0.00022724
0.000227295
0.000227355
0.000227409
0.000227447
0.000227461
0.00022745
0.000227427
0.000209928
0.000209919
0.000209898
0.000209866
0.000209827
0.000209784
0.000209741
0.000209702
0.000209669
0.000209646
0.000209636
0.00020964
0.000209661
0.0002097
0.000209757
0.000209833
0.000209928
0.000210043
0.000210176
0.000210328
0.000210497
0.000210683
0.000210884
0.000211101
0.000211331
0.000211575
0.000211831
0.000212099
0.000212376
0.000212664
0.00021296
0.000213263
0.000213574
0.000213891
0.000214214
0.000214542
0.000214874
0.000215209
0.000215548
0.000215889
0.000216232
0.000216577
0.000216924
0.000217272
0.000217621
0.000217971
0.000218322
0.000218674
0.000219027
0.000219382
0.000219738
0.000220097
0.000220458
0.000220823
0.000221192
0.000221565
0.000221943
0.000222326
0.000222713
0.000223103
0.000223494
0.000223885
0.000224272
0.00022465
0.000225016
0.000225365
0.000225692
0.000225992
0.000226263
0.000226501
0.000226706
0.000226878
0.000227017
0.000227128
0.000227211
0.000227271
0.000227311
0.000227335
0.000227344
0.000227342
0.00022733
0.000227311
0.000227286
0.000227257
0.000227225
0.000227193
0.000227163
0.000227138
0.000227121
0.000227115
0.000227124
0.00022715
0.000227194
0.000227253
0.000227322
0.000227388
0.000227439
0.000227464
0.000227457
0.000227434
0.000209291
0.000209284
0.000209269
0.000209247
0.000209219
0.00020919
0.000209161
0.000209135
0.000209116
0.000209106
0.000209107
0.000209121
0.000209149
0.000209194
0.000209255
0.000209333
0.000209429
0.000209543
0.000209673
0.00020982
0.000209984
0.000210163
0.000210357
0.000210566
0.000210788
0.000211022
0.000211268
0.000211525
0.000211792
0.000212069
0.000212354
0.000212647
0.000212947
0.000213253
0.000213565
0.000213882
0.000214203
0.000214528
0.000214857
0.000215188
0.000215522
0.000215858
0.000216196
0.000216536
0.000216877
0.00021722
0.000217563
0.000217908
0.000218255
0.000218603
0.000218952
0.000219304
0.000219659
0.000220016
0.000220377
0.000220743
0.000221114
0.000221491
0.000221873
0.000222262
0.000222656
0.000223055
0.000223457
0.000223859
0.000224257
0.000224647
0.000225024
0.000225383
0.000225718
0.000226024
0.000226298
0.000226537
0.00022674
0.000226907
0.000227039
0.00022714
0.000227213
0.000227262
0.00022729
0.000227301
0.000227298
0.000227285
0.000227263
0.000227235
0.000227204
0.000227172
0.00022714
0.000227113
0.000227094
0.000227085
0.000227091
0.000227114
0.000227157
0.000227219
0.000227295
0.000227373
0.000227439
0.000227476
0.000227476
0.000227453
0.000208662
0.000208657
0.000208647
0.000208632
0.000208614
0.000208595
0.000208577
0.000208563
0.000208556
0.000208556
0.000208566
0.000208588
0.000208623
0.000208673
0.000208738
0.000208818
0.000208914
0.000209026
0.000209154
0.000209298
0.000209456
0.00020963
0.000209817
0.000210018
0.000210232
0.000210457
0.000210694
0.000210942
0.000211199
0.000211465
0.00021174
0.000212022
0.000212312
0.000212608
0.000212909
0.000213216
0.000213527
0.000213842
0.000214161
0.000214484
0.000214808
0.000215136
0.000215465
0.000215797
0.00021613
0.000216466
0.000216802
0.000217141
0.000217481
0.000217822
0.000218166
0.000218512
0.00021886
0.000219211
0.000219566
0.000219925
0.000220289
0.000220658
0.000221034
0.000221417
0.000221807
0.000222205
0.00022261
0.00022302
0.000223434
0.000223849
0.000224259
0.000224661
0.000225049
0.000225416
0.000225757
0.000226066
0.000226339
0.000226574
0.00022677
0.000226927
0.000227048
0.000227136
0.000227195
0.00022723
0.000227245
0.000227244
0.000227231
0.000227209
0.000227182
0.000227152
0.000227122
0.000227096
0.000227076
0.000227067
0.000227071
0.000227093
0.000227135
0.000227199
0.00022728
0.000227368
0.000227448
0.0002275
0.000227508
0.000227487
0.000208038
0.000208036
0.000208029
0.00020802
0.000208009
0.000207999
0.000207991
0.000207986
0.000207987
0.000207996
0.000208015
0.000208043
0.000208084
0.000208138
0.000208206
0.000208288
0.000208384
0.000208495
0.000208621
0.000208761
0.000208915
0.000209083
0.000209264
0.000209458
0.000209664
0.000209881
0.00021011
0.000210348
0.000210596
0.000210853
0.000211118
0.00021139
0.00021167
0.000211956
0.000212247
0.000212544
0.000212846
0.000213151
0.000213461
0.000213774
0.00021409
0.000214409
0.00021473
0.000215054
0.00021538
0.000215708
0.000216037
0.000216369
0.000216703
0.000217038
0.000217376
0.000217716
0.000218059
0.000218405
0.000218755
0.000219108
0.000219465
0.000219828
0.000220197
0.000220573
0.000220957
0.000221349
0.000221749
0.000222159
0.000222577
0.000223001
0.000223429
0.000223858
0.000224282
0.000224696
0.000225092
0.000225465
0.000225808
0.000226116
0.000226384
0.000226609
0.000226793
0.000226936
0.000227042
0.000227114
0.000227159
0.00022718
0.000227184
0.000227175
0.000227156
0.000227133
0.000227108
0.000227086
0.000227069
0.000227062
0.000227068
0.000227091
0.000227133
0.000227198
0.000227284
0.000227381
0.000227475
0.000227542
0.00022756
0.000227543
0.000207419
0.000207417
0.000207414
0.000207409
0.000207405
0.000207401
0.0002074
0.000207403
0.000207412
0.000207428
0.000207453
0.000207488
0.000207533
0.000207591
0.000207661
0.000207744
0.00020784
0.00020795
0.000208073
0.00020821
0.00020836
0.000208523
0.000208699
0.000208886
0.000209085
0.000209294
0.000209514
0.000209744
0.000209983
0.000210231
0.000210487
0.00021075
0.00021102
0.000211296
0.000211578
0.000211866
0.000212158
0.000212455
0.000212755
0.000213059
0.000213367
0.000213677
0.000213991
0.000214306
0.000214624
0.000214945
0.000215268
0.000215593
0.00021592
0.000216249
0.000216582
0.000216916
0.000217254
0.000217595
0.000217939
0.000218287
0.000218639
0.000218997
0.00021936
0.000219729
0.000220106
0.000220491
0.000220885
0.000221289
0.000221704
0.000222128
0.000222561
0.000223001
0.000223446
0.000223889
0.000224326
0.00022475
0.000225154
0.00022553
0.000225871
0.000226172
0.000226429
0.000226641
0.000226809
0.000226935
0.000227024
0.000227081
0.000227113
0.000227125
0.000227124
0.000227113
0.000227099
0.000227084
0.000227075
0.000227073
0.000227083
0.00022711
0.000227156
0.000227224
0.000227313
0.000227418
0.000227524
0.000227606
0.000227637
0.000227626
0.000206801
0.0002068
0.0002068
0.000206799
0.000206799
0.000206801
0.000206806
0.000206816
0.000206831
0.000206853
0.000206883
0.000206922
0.000206971
0.000207032
0.000207103
0.000207187
0.000207283
0.000207392
0.000207514
0.000207647
0.000207793
0.000207951
0.000208121
0.000208302
0.000208494
0.000208697
0.000208909
0.000209131
0.000209362
0.000209601
0.000209848
0.000210102
0.000210363
0.00021063
0.000210903
0.000211181
0.000211464
0.000211752
0.000212043
0.000212339
0.000212638
0.00021294
0.000213245
0.000213553
0.000213864
0.000214177
0.000214493
0.000214811
0.000215132
0.000215455
0.000215781
0.00021611
0.000216442
0.000216778
0.000217117
0.00021746
0.000217808
0.00021816
0.000218518
0.000218882
0.000219253
0.000219631
0.000220019
0.000220416
0.000220824
0.000221243
0.000221673
0.000222115
0.000222566
0.000223025
0.000223486
0.000223945
0.000224394
0.000224827
0.000225234
0.000225609
0.000225943
0.000226233
0.000226476
0.000226671
0.000226821
0.00022693
0.000227005
0.000227051
0.000227077
0.000227088
0.00022709
0.00022709
0.000227092
0.000227101
0.00022712
0.000227154
0.000227207
0.000227279
0.000227374
0.000227486
0.000227603
0.000227701
0.000227746
0.000227742
0.000206183
0.000206184
0.000206185
0.000206187
0.000206191
0.000206198
0.000206208
0.000206222
0.000206242
0.000206269
0.000206304
0.000206347
0.000206399
0.000206462
0.000206535
0.000206619
0.000206715
0.000206822
0.000206941
0.000207072
0.000207214
0.000207368
0.000207533
0.000207708
0.000207893
0.000208089
0.000208294
0.000208508
0.000208731
0.000208961
0.0002092
0.000209445
0.000209697
0.000209956
0.00021022
0.000210489
0.000210763
0.000211042
0.000211325
0.000211612
0.000211903
0.000212197
0.000212494
0.000212794
0.000213097
0.000213403
0.000213712
0.000214023
0.000214337
0.000214654
0.000214974
0.000215297
0.000215624
0.000215954
0.000216288
0.000216626
0.000216968
0.000217316
0.000217669
0.000218028
0.000218394
0.000218766
0.000219148
0.000219538
0.000219939
0.000220351
0.000220776
0.000221213
0.000221663
0.000222125
0.000222597
0.000223075
0.000223554
0.000224028
0.000224489
0.000224927
0.000225335
0.000225705
0.000226029
0.000226305
0.000226531
0.000226709
0.000226843
0.00022694
0.000227006
0.00022705
0.00022708
0.000227101
0.000227122
0.000227146
0.000227179
0.000227225
0.000227287
0.000227369
0.000227472
0.000227592
0.000227719
0.000227831
0.000227892
0.000227898
0.000205565
0.000205567
0.000205569
0.000205574
0.000205581
0.000205591
0.000205605
0.000205624
0.000205648
0.000205678
0.000205716
0.000205762
0.000205817
0.000205881
0.000205956
0.00020604
0.000206135
0.000206241
0.000206358
0.000206486
0.000206624
0.000206774
0.000206933
0.000207103
0.000207282
0.000207471
0.000207669
0.000207876
0.000208091
0.000208314
0.000208544
0.000208781
0.000209024
0.000209274
0.000209529
0.00020979
0.000210056
0.000210326
0.000210601
0.000210879
0.000211162
0.000211447
0.000211736
0.000212029
0.000212324
0.000212623
0.000212924
0.000213228
0.000213536
0.000213846
0.00021416
0.000214477
0.000214797
0.000215121
0.00021545
0.000215782
0.00021612
0.000216462
0.000216811
0.000217165
0.000217525
0.000217893
0.000218269
0.000218654
0.000219048
0.000219453
0.000219871
0.000220301
0.000220746
0.000221205
0.000221677
0.000222163
0.000222657
0.000223157
0.000223655
0.000224144
0.000224614
0.000225057
0.000225463
0.000225824
0.000226136
0.000226397
0.000226608
0.000226772
0.000226897
0.000226989
0.000227058
0.000227113
0.00022716
0.000227207
0.00022726
0.000227323
0.000227401
0.000227496
0.00022761
0.00022774
0.000227879
0.000228004
0.00022808
0.000228099
0.000204946
0.000204948
0.000204952
0.000204958
0.000204968
0.000204981
0.000204998
0.00020502
0.000205047
0.000205081
0.000205121
0.00020517
0.000205226
0.000205292
0.000205366
0.000205451
0.000205545
0.000205649
0.000205764
0.000205889
0.000206024
0.000206169
0.000206323
0.000206488
0.000206661
0.000206844
0.000207035
0.000207234
0.000207442
0.000207657
0.000207879
0.000208108
0.000208343
0.000208585
0.000208832
0.000209084
0.000209341
0.000209603
0.000209869
0.000210139
0.000210413
0.000210691
0.000210972
0.000211257
0.000211544
0.000211835
0.000212129
0.000212426
0.000212727
0.00021303
0.000213337
0.000213648
0.000213962
0.00021428
0.000214603
0.00021493
0.000215262
0.000215599
0.000215941
0.00021629
0.000216646
0.000217009
0.00021738
0.000217759
0.000218148
0.000218547
0.000218957
0.000219381
0.000219819
0.000220271
0.00022074
0.000221224
0.000221724
0.000222236
0.000222756
0.000223279
0.000223797
0.000224301
0.00022478
0.000225225
0.000225627
0.00022598
0.00022628
0.000226529
0.00022673
0.000226889
0.000227015
0.000227116
0.000227202
0.000227282
0.000227363
0.00022745
0.000227548
0.000227662
0.000227791
0.000227935
0.000228086
0.000228225
0.000228317
0.000228349
0.000204325
0.000204327
0.000204332
0.00020434
0.000204352
0.000204367
0.000204386
0.000204411
0.00020444
0.000204476
0.000204519
0.000204569
0.000204627
0.000204693
0.000204768
0.000204852
0.000204945
0.000205048
0.00020516
0.000205282
0.000205413
0.000205554
0.000205704
0.000205863
0.000206031
0.000206207
0.000206392
0.000206584
0.000206784
0.000206992
0.000207206
0.000207427
0.000207655
0.000207888
0.000208127
0.000208371
0.000208619
0.000208873
0.000209131
0.000209393
0.000209658
0.000209928
0.000210201
0.000210478
0.000210758
0.000211041
0.000211327
0.000211617
0.00021191
0.000212207