/*--------------------------------*- C++ -*----------------------------------*\
| =========                 |                                                 |
| \\      /  F ield         | OpenFOAM: The Open Source CFD Toolbox           |
|  \\    /   O peration     | Version:  4.1                                   |
|   \\  /    A nd           | Web:      www.OpenFOAM.org                      |
|    \\/     M anipulation  |                                                 |
\*---------------------------------------------------------------------------*/
FoamFile
{
    version     2.0;
    format      ascii;
    class       surfaceScalarField;
    location    "716";
    object      phi;
}
// * * * * * * * * * * * * * * * * * * * * * * * * * * * * * * * * * * * * * //

dimensions      [0 3 -1 0 0 0 0];

internalField   nonuniform List<scalar> 
87025
(
1.87721e-05
1.22786e-06
1.70548e-05
1.71737e-06
1.52564e-05
1.79834e-06
1.35145e-05
1.74187e-06
1.18984e-05
1.61614e-06
1.04532e-05
1.44514e-06
9.19815e-06
1.25507e-06
8.13027e-06
1.06788e-06
7.23374e-06
8.96517e-07
6.48653e-06
7.47193e-07
5.86463e-06
6.21892e-07
5.34474e-06
5.19873e-07
4.90589e-06
4.38836e-07
4.53007e-06
3.75809e-07
4.20238e-06
3.27673e-07
3.91092e-06
2.91439e-07
3.64649e-06
2.64417e-07
3.40217e-06
2.44302e-07
3.17295e-06
2.29202e-07
2.95531e-06
2.17616e-07
2.74689e-06
2.08394e-07
2.54619e-06
2.00681e-07
2.3523e-06
1.93866e-07
2.16476e-06
1.87521e-07
1.98338e-06
1.81362e-07
1.80815e-06
1.75203e-07
1.6392e-06
1.68933e-07
1.47669e-06
1.62485e-07
1.32084e-06
1.55828e-07
1.17187e-06
1.48949e-07
1.03e-06
1.41855e-07
8.95414e-07
1.34559e-07
7.68307e-07
1.27086e-07
6.48818e-07
1.19466e-07
5.37058e-07
1.11738e-07
4.3309e-07
1.03945e-07
3.36931e-07
9.61371e-08
2.48543e-07
8.83645e-08
1.67838e-07
8.06816e-08
9.46751e-08
7.31392e-08
2.88725e-08
6.57785e-08
-2.98294e-08
5.86776e-08
-8.17604e-08
5.1906e-08
-1.27249e-07
4.54639e-08
-1.6664e-07
3.93663e-08
-2.00318e-07
3.36536e-08
-2.28691e-07
2.83477e-08
-2.52194e-07
2.34794e-08
-2.71216e-07
1.89965e-08
-2.86155e-07
1.49176e-08
-2.97464e-07
1.12848e-08
-3.05546e-07
8.06016e-09
-3.10782e-07
5.21177e-09
-3.1352e-07
2.71276e-09
-3.14091e-07
5.44516e-10
-3.12807e-07
-1.30984e-09
-3.09949e-07
-2.88507e-09
-3.05766e-07
-4.21013e-09
-3.00487e-07
-5.30495e-09
-2.94324e-07
-6.18832e-09
-2.87458e-07
-6.88994e-09
-2.8004e-07
-7.43916e-09
-2.72184e-07
-7.87559e-09
-2.63957e-07
-8.24354e-09
-2.55388e-07
-8.58426e-09
-2.46478e-07
-8.92291e-09
-2.37228e-07
-9.26314e-09
-2.27662e-07
-9.57836e-09
-2.1786e-07
-9.81583e-09
-2.07972e-07
-9.90352e-09
-1.98225e-07
-9.76677e-09
-1.88904e-07
-9.34301e-09
-1.80333e-07
-8.59821e-09
-1.7283e-07
-7.5344e-09
-1.66673e-07
-6.19355e-09
-1.62062e-07
-4.65223e-09
-1.59095e-07
-3.0137e-09
-1.57748e-07
-1.39823e-09
-1.57869e-07
6.61903e-11
-1.59178e-07
1.24929e-09
-1.61264e-07
2.02407e-09
-1.636e-07
2.27025e-09
-1.65551e-07
1.88531e-09
-1.66412e-07
7.94155e-10
-1.65449e-07
-1.02992e-09
-1.61964e-07
-3.55013e-09
-1.55384e-07
-6.64519e-09
-1.45346e-07
-1.01008e-08
-1.31797e-07
-1.36101e-08
-1.15059e-07
-1.67976e-08
-9.58576e-08
-1.92594e-08
-7.52902e-08
-2.06249e-08
-5.47256e-08
-2.06217e-08
-3.56469e-08
-1.9136e-08
-1.94562e-08
-1.62479e-08
-7.27381e-09
-1.22383e-08
2.43974e-10
-7.57186e-09
3.0763e-09
-2.88918e-09
2.13604e-09
8.92143e-10
2.12562e-09
2.08526e-05
3.75206e-07
2.14523e-05
1.1177e-06
2.17133e-05
1.53727e-06
2.16611e-05
1.7941e-06
2.13392e-05
1.93807e-06
2.08076e-05
1.97667e-06
2.01289e-05
1.93374e-06
1.93563e-05
1.84048e-06
1.85318e-05
1.72097e-06
1.76876e-05
1.59136e-06
1.68468e-05
1.46277e-06
1.60241e-05
1.3425e-06
1.52284e-05
1.23454e-06
1.44638e-05
1.14041e-06
1.37314e-05
1.06005e-06
1.30303e-05
9.92439e-07
1.23587e-05
9.36038e-07
1.17139e-05
8.89132e-07
1.1093e-05
8.50009e-07
1.04935e-05
8.17089e-07
9.9129e-06
7.88978e-07
9.34907e-06
7.64487e-07
8.80028e-06
7.42621e-07
8.26521e-06
7.22561e-07
7.74291e-06
7.03635e-07
7.23278e-06
6.85298e-07
6.73457e-06
6.67106e-07
6.24833e-06
6.48699e-07
5.77433e-06
6.29788e-07
5.3131e-06
6.10148e-07
4.86531e-06
5.89608e-07
4.43178e-06
5.68053e-07
4.01341e-06
5.45418e-07
3.61114e-06
5.21691e-07
3.22593e-06
4.96906e-07
2.85869e-06
4.71147e-07
2.51025e-06
4.4454e-07
2.18132e-06
4.17249e-07
1.87248e-06
3.89469e-07
1.58416e-06
3.61418e-07
1.31656e-06
3.33327e-07
1.06974e-06
3.05444e-07
8.4358e-07
2.78011e-07
6.37741e-07
2.51247e-07
4.51693e-07
2.2536e-07
2.84752e-07
2.00536e-07
1.36109e-07
1.76935e-07
4.85639e-09
1.54672e-07
-1.10113e-07
1.3391e-07
-2.09946e-07
1.14693e-07
-2.95701e-07
9.69842e-08
-3.6851e-07
8.08095e-08
-4.29506e-07
6.61475e-08
-4.79784e-07
5.2925e-08
-5.20432e-07
4.11262e-08
-5.5252e-07
3.07092e-08
-5.77027e-07
2.15532e-08
-5.94862e-07
1.35565e-08
-6.0688e-07
6.64546e-09
-6.13871e-07
7.38755e-10
-6.16541e-07
-4.2788e-09
-6.15498e-07
-8.53623e-09
-6.11247e-07
-1.21736e-08
-6.04185e-07
-1.53469e-08
-5.94609e-07
-1.8196e-08
-5.82752e-07
-2.08115e-08
-5.68833e-07
-2.32135e-08
-5.53111e-07
-2.53323e-08
-5.35947e-07
-2.70155e-08
-5.17835e-07
-2.80575e-08
-4.99411e-07
-2.82417e-08
-4.81421e-07
-2.73935e-08
-4.64667e-07
-2.54242e-08
-4.49925e-07
-2.23608e-08
-4.37862e-07
-1.83549e-08
-4.28954e-07
-1.36711e-08
-4.23428e-07
-8.66307e-09
-4.21219e-07
-3.7418e-09
-4.21952e-07
6.52434e-10
-4.24932e-07
4.07547e-09
-4.29167e-07
6.09846e-09
-4.33397e-07
6.33493e-09
-4.36151e-07
4.47031e-09
-4.3583e-07
3.04603e-10
-4.30832e-07
-6.1952e-09
-4.19699e-07
-1.48466e-08
-4.01296e-07
-2.52084e-08
-3.74991e-07
-3.65618e-08
-3.40822e-07
-4.79314e-08
-2.99612e-07
-5.81565e-08
-2.53003e-07
-6.60152e-08
-2.03382e-07
-7.03924e-08
-1.53685e-07
-7.04653e-08
-1.07095e-07
-6.5875e-08
-6.66471e-08
-5.68436e-08
-3.48155e-08
-4.42172e-08
-1.30987e-08
-2.94346e-08
-1.62934e-09
-1.44882e-08
1.23153e-09
-2.09996e-09
3.34432e-09
2.01452e-05
2.30045e-07
2.05277e-05
7.35127e-07
2.09782e-05
1.08676e-06
2.14318e-05
1.3405e-06
2.18297e-05
1.54019e-06
2.21217e-05
1.68466e-06
2.22836e-05
1.77175e-06
2.23133e-05
1.81086e-06
2.22199e-05
1.81436e-06
2.20183e-05
1.79292e-06
2.17254e-05
1.75559e-06
2.1358e-05
1.70993e-06
2.09308e-05
1.66172e-06
2.04564e-05
1.61483e-06
1.99448e-05
1.5716e-06
1.9404e-05
1.5332e-06
1.88401e-05
1.49998e-06
1.82574e-05
1.47174e-06
1.76595e-05
1.44797e-06
1.70486e-05
1.42795e-06
1.64266e-05
1.41092e-06
1.5795e-05
1.39611e-06
1.51548e-05
1.3828e-06
1.4507e-05
1.37028e-06
1.38527e-05
1.35793e-06
1.31929e-05
1.34514e-06
1.25286e-05
1.33137e-06
1.18611e-05
1.31612e-06
1.1192e-05
1.29891e-06
1.05228e-05
1.27931e-06
9.85544e-06
1.25695e-06
9.19196e-06
1.23151e-06
8.53464e-06
1.20271e-06
7.88594e-06
1.17037e-06
7.24843e-06
1.13439e-06
6.62478e-06
1.09476e-06
6.01772e-06
1.05157e-06
5.42993e-06
1.00502e-06
4.86397e-06
9.55395e-07
4.32226e-06
9.03102e-07
3.80694e-06
8.4862e-07
3.31984e-06
7.92504e-07
2.86247e-06
7.35356e-07
2.43587e-06
6.77804e-07
2.04072e-06
6.20479e-07
1.67723e-06
5.6399e-07
1.34523e-06
5.08904e-07
1.04413e-06
4.55728e-07
7.73091e-07
4.04911e-07
5.3094e-07
3.56804e-07
3.16222e-07
3.11659e-07
1.27327e-07
2.69657e-07
-3.74895e-08
2.30912e-07
-1.8012e-07
1.95499e-07
-3.02411e-07
1.63358e-07
-4.0613e-07
1.34365e-07
-4.9305e-07
1.08406e-07
-5.64864e-07
8.53036e-08
-6.23212e-07
6.49269e-08
-6.6966e-07
4.71244e-08
-7.05638e-07
3.16408e-08
-7.32434e-07
1.82073e-08
-7.51191e-07
6.5377e-09
-7.6289e-07
-3.68662e-09
-7.6835e-07
-1.27701e-08
-7.68266e-07
-2.09258e-08
-7.6327e-07
-2.82377e-08
-7.54008e-07
-3.46248e-08
-7.41206e-07
-3.98515e-08
-7.25726e-07
-4.35778e-08
-7.08582e-07
-4.54335e-08
-6.90915e-07
-4.51199e-08
-6.73916e-07
-4.24928e-08
-6.58735e-07
-3.76236e-08
-6.46363e-07
-3.08217e-08
-6.37524e-07
-2.26181e-08
-6.32586e-07
-1.37204e-08
-6.31504e-07
-4.95437e-09
-6.33789e-07
2.79715e-09
-6.38508e-07
8.64591e-09
-6.44313e-07
1.17493e-08
-6.49503e-07
1.1367e-08
-6.52114e-07
6.9226e-09
-6.5005e-07
-1.919e-09
-6.41241e-07
-1.51613e-08
-6.23843e-07
-3.23972e-08
-5.96454e-07
-5.27471e-08
-5.58321e-07
-7.48381e-08
-5.09543e-07
-9.68505e-08
-4.51192e-07
-1.16644e-07
-3.85369e-07
-1.31974e-07
-3.15123e-07
-1.40774e-07
-2.44238e-07
-1.41488e-07
-1.76874e-07
-1.33379e-07
-1.17092e-07
-1.16769e-07
-6.83053e-08
-9.3144e-08
-3.27358e-08
-6.51381e-08
-1.09552e-08
-3.64307e-08
-1.41064e-09
-1.17418e-08
1.92008e-09
2.00454e-05
1.84592e-07
2.02264e-05
5.54152e-07
2.04592e-05
8.53948e-07
2.07196e-05
1.08009e-06
2.10023e-05
1.25747e-06
2.12905e-05
1.39641e-06
2.1563e-05
1.49922e-06
2.18024e-05
1.57151e-06
2.19959e-05
1.62083e-06
2.21353e-05
1.65351e-06
2.22165e-05
1.67442e-06
2.22387e-05
1.68767e-06
2.22037e-05
1.69669e-06
2.21144e-05
1.7041e-06
2.19743e-05
1.71172e-06
2.17868e-05
1.7207e-06
2.15551e-05
1.73167e-06
2.12819e-05
1.74485e-06
2.09697e-05
1.76015e-06
2.06204e-05
1.77728e-06
2.02354e-05
1.79584e-06
1.98162e-05
1.81533e-06
1.93638e-05
1.83521e-06
1.88792e-05
1.8549e-06
1.83633e-05
1.8738e-06
1.78171e-05
1.89132e-06
1.72416e-05
1.90682e-06
1.6638e-05
1.91967e-06
1.60077e-05
1.92919e-06
1.53523e-05
1.93474e-06
1.46736e-05
1.93564e-06
1.39738e-05
1.93126e-06
1.32555e-05
1.92097e-06
1.25217e-05
1.90422e-06
1.17755e-05
1.8805e-06
1.10208e-05
1.84944e-06
1.02616e-05
1.81077e-06
9.50226e-06
1.76435e-06
8.74738e-06
1.71025e-06
8.00177e-06
1.64869e-06
7.27027e-06
1.5801e-06
6.55766e-06
1.50509e-06
5.86852e-06
1.42447e-06
5.20711e-06
1.33919e-06
4.57722e-06
1.25035e-06
3.98205e-06
1.15914e-06
3.42415e-06
1.06678e-06
2.90534e-06
9.7451e-07
2.42674e-06
8.83493e-07
1.98871e-06
7.94806e-07
1.59096e-06
7.09386e-07
1.23258e-06
6.28013e-07
9.12153e-07
5.51303e-07
6.27909e-07
4.79705e-07
3.77734e-07
4.13487e-07
1.59284e-07
3.52762e-07
-2.99022e-08
2.97532e-07
-1.92388e-07
2.47725e-07
-3.30658e-07
2.03133e-07
-4.47069e-07
1.63474e-07
-5.43909e-07
1.28424e-07
-6.23342e-07
9.75893e-08
-6.8739e-07
7.05411e-08
-7.37876e-07
4.6762e-08
-7.76399e-07
2.57211e-08
-8.04361e-07
7.00738e-09
-8.23017e-07
-9.60989e-09
-8.33538e-07
-2.41338e-08
-8.37108e-07
-3.63148e-08
-8.35002e-07
-4.57231e-08
-8.28632e-07
-5.18513e-08
-8.1953e-07
-5.42787e-08
-8.09291e-07
-5.27991e-08
-7.99466e-07
-4.75289e-08
-7.91422e-07
-3.89565e-08
-7.86218e-07
-2.79262e-08
-7.8448e-07
-1.5573e-08
-7.86331e-07
-3.22893e-09
-7.91348e-07
7.67952e-09
-7.98564e-07
1.57208e-08
-8.06517e-07
1.9555e-08
-8.13324e-07
1.80243e-08
-8.16799e-07
1.02469e-08
-8.14597e-07
-4.27219e-09
-8.04388e-07
-2.55171e-08
-7.84075e-07
-5.28543e-08
-7.52007e-07
-8.49532e-08
-7.07218e-07
-1.19761e-07
-6.49639e-07
-1.5456e-07
-5.80269e-07
-1.86141e-07
-5.0128e-07
-2.11089e-07
-4.15984e-07
-2.26196e-07
-3.28658e-07
-2.28942e-07
-2.4418e-07
-2.1799e-07
-1.67493e-07
-1.93588e-07
-1.02968e-07
-1.57805e-07
-5.37384e-08
-1.1451e-07
-2.11145e-08
-6.91633e-08
-4.30046e-09
-2.86951e-08
-2.39268e-09
2.00361e-05
1.48512e-07
2.01463e-05
4.43897e-07
2.02946e-05
7.05616e-07
2.04568e-05
9.1791e-07
2.0627e-05
1.08729e-06
2.0801e-05
1.22234e-06
2.0973e-05
1.32721e-06
2.11379e-05
1.40658e-06
2.1292e-05
1.46674e-06
2.14319e-05
1.51361e-06
2.15545e-05
1.5518e-06
2.16572e-05
1.58494e-06
2.1738e-05
1.61588e-06
2.17953e-05
1.64679e-06
2.18279e-05
1.67914e-06
2.18347e-05
1.71388e-06
2.18148e-05
1.75152e-06
2.17674e-05
1.79227e-06
2.16914e-05
1.83608e-06
2.15859e-05
1.88275e-06
2.14498e-05
1.93193e-06
2.12819e-05
1.98322e-06
2.1081e-05
2.03611e-06
2.08458e-05
2.09008e-06
2.05751e-05
2.14451e-06
2.02676e-05
2.19876e-06
1.99223e-05
2.25213e-06
1.95381e-05
2.30385e-06
1.91142e-05
2.35308e-06
1.865e-05
2.39893e-06
1.81451e-05
2.44046e-06
1.75997e-05
2.47665e-06
1.70142e-05
2.50648e-06
1.63895e-05
2.52887e-06
1.57272e-05
2.54279e-06
1.50294e-05
2.54723e-06
1.42989e-05
2.54124e-06
1.35392e-05
2.52402e-06
1.27546e-05
2.49489e-06
1.19499e-05
2.45339e-06
1.11307e-05
2.3993e-06
1.03031e-05
2.33266e-06
9.4737e-06
2.25384e-06
8.64938e-06
2.1635e-06
7.83709e-06
2.06262e-06
7.04372e-06
1.9525e-06
6.2758e-06
1.83469e-06
5.53932e-06
1.71097e-06
4.83954e-06
1.58326e-06
4.1808e-06
1.45353e-06
3.5664e-06
1.32377e-06
2.99857e-06
1.19583e-06
2.47845e-06
1.0714e-06
2.00618e-06
9.51947e-07
1.581e-06
8.38637e-07
1.20137e-06
7.32356e-07
8.6515e-07
6.3371e-07
5.69782e-07
5.43046e-07
3.12391e-07
4.60473e-07
8.99128e-08
3.859e-07
-1.00798e-07
3.19086e-07
-2.62871e-07
2.59617e-07
-3.99277e-07
2.06907e-07
-5.12817e-07
1.60268e-07
-6.0608e-07
1.18952e-07
-6.81415e-07
8.23144e-08
-7.40945e-07
4.98901e-08
-7.86577e-07
2.14673e-08
-8.20113e-07
-2.81503e-09
-8.43341e-07
-2.25365e-08
-8.58114e-07
-3.71264e-08
-8.66404e-07
-4.60463e-08
-8.70263e-07
-4.90063e-08
-8.71733e-07
-4.61368e-08
-8.72694e-07
-3.80852e-08
-8.74704e-07
-2.60158e-08
-8.78858e-07
-1.15304e-08
-8.85672e-07
3.46447e-09
-8.95031e-07
1.69105e-08
-9.06187e-07
2.67414e-08
-9.17807e-07
3.10357e-08
-9.28065e-07
2.81399e-08
-9.34756e-07
1.67946e-08
-9.35441e-07
-3.72991e-09
-9.27616e-07
-3.34818e-08
-9.08914e-07
-7.16909e-08
-8.7733e-07
-1.16667e-07
-8.31464e-07
-1.65752e-07
-7.70779e-07
-2.15365e-07
-6.95856e-07
-2.61181e-07
-6.08581e-07
-2.98478e-07
-5.12238e-07
-3.22655e-07
-4.11402e-07
-3.29895e-07
-3.11619e-07
-3.17895e-07
-2.18824e-07
-2.86511e-07
-1.38581e-07
-2.38175e-07
-7.52599e-08
-1.77949e-07
-3.13795e-08
-1.13214e-07
-7.06825e-09
-5.30872e-08
-9.47435e-09
2.00245e-05
1.23999e-07
2.00965e-05
3.71895e-07
2.02019e-05
6.00152e-07
2.03234e-05
7.96393e-07
2.04506e-05
9.60141e-07
2.0577e-05
1.0959e-06
2.06974e-05
1.20684e-06
2.0808e-05
1.2959e-06
2.09076e-05
1.36719e-06
2.09959e-05
1.4253e-06
2.10734e-05
1.47429e-06
2.11407e-05
1.51757e-06
2.11986e-05
1.55795e-06
2.12477e-05
1.59773e-06
2.12882e-05
1.63862e-06
2.13202e-05
1.68186e-06
2.13434e-05
1.72826e-06
2.13573e-05
1.77835e-06
2.1361e-05
1.83241e-06
2.13532e-05
1.89052e-06
2.13325e-05
1.95263e-06
2.12971e-05
2.01859e-06
2.1245e-05
2.08815e-06
2.11741e-05
2.16098e-06
2.10819e-05
2.23668e-06
2.09659e-05
2.31477e-06
2.08233e-05
2.3947e-06
2.06513e-05
2.47579e-06
2.04471e-05
2.5573e-06
2.02077e-05
2.63833e-06
1.99302e-05
2.7179e-06
1.9612e-05
2.79489e-06
1.92504e-05
2.86807e-06
1.88432e-05
2.93607e-06
1.83885e-05
2.99745e-06
1.7885e-05
3.05068e-06
1.7332e-05
3.0942e-06
1.67296e-05
3.12642e-06
1.60787e-05
3.14582e-06
1.53811e-05
3.15096e-06
1.46398e-05
3.14057e-06
1.38589e-05
3.1136e-06
1.30434e-05
3.06931e-06
1.21996e-05
3.0073e-06
1.13346e-05
2.92758e-06
1.04565e-05
2.83063e-06
9.57375e-06
2.71739e-06
8.69544e-06
2.58927e-06
7.83054e-06
2.44814e-06
6.98781e-06
2.29626e-06
6.17539e-06
2.13618e-06
5.40053e-06
1.97067e-06
4.66933e-06
1.80259e-06
3.98654e-06
1.63472e-06
3.35547e-06
1.46969e-06
2.77797e-06
1.30983e-06
2.25455e-06
1.1571e-06
1.78451e-06
1.01306e-06
1.36613e-06
8.78817e-07
9.96915e-07
7.55081e-07
6.73791e-07
6.42174e-07
3.93305e-07
5.40067e-07
1.51777e-07
4.48401e-07
-5.45368e-08
3.66549e-07
-2.29322e-07
2.93708e-07
-3.76037e-07
2.29e-07
-4.9782e-07
1.71642e-07
-5.9751e-07
1.21125e-07
-6.77706e-07
7.73439e-08
-7.40871e-07
4.05862e-08
-7.89434e-07
1.13877e-08
-8.25889e-07
-9.64964e-09
-8.52821e-07
-2.21423e-08
-8.7286e-07
-2.61749e-08
-8.8856e-07
-2.2474e-08
-9.02204e-07
-1.247e-08
-9.1562e-07
1.77735e-09
-9.30019e-07
1.77475e-08
-9.45899e-07
3.2667e-08
-9.63026e-07
4.37399e-08
-9.80473e-07
4.8349e-08
-9.96694e-07
4.4226e-08
-1.00965e-06
2.96098e-08
-1.01691e-06
3.39965e-09
-1.01584e-06
-3.46824e-08
-1.00375e-06
-8.39079e-08
-9.7813e-07
-1.42408e-07
-9.36914e-07
-2.07084e-07
-8.78794e-07
-2.73595e-07
-8.03576e-07
-3.36506e-07
-7.12515e-07
-3.89645e-07
-6.08563e-07
-4.26711e-07
-4.96422e-07
-4.42144e-07
-3.82295e-07
-4.32135e-07
-2.73292e-07
-3.95631e-07
-1.76532e-07
-3.35058e-07
-9.80917e-08
-2.56526e-07
-4.20161e-08
-1.69372e-07
-9.8404e-09
-8.54076e-08
-1.93262e-08
2.00167e-05
1.07338e-07
2.00666e-05
3.21902e-07
2.01429e-05
5.23849e-07
2.02347e-05
7.04613e-07
2.03331e-05
8.61687e-07
2.04323e-05
9.96711e-07
2.05274e-05
1.11176e-06
2.06144e-05
1.20883e-06
2.0691e-05
1.29058e-06
2.07561e-05
1.3602e-06
2.08096e-05
1.4208e-06
2.0852e-05
1.4751e-06
2.08845e-05
1.52547e-06
2.09083e-05
1.57394e-06
2.09247e-05
1.62217e-06
2.09351e-05
1.67146e-06
2.09405e-05
1.7228e-06
2.09419e-05
1.77694e-06
2.09399e-05
1.83443e-06
2.09347e-05
1.89565e-06
2.09265e-05
1.96085e-06
2.09149e-05
2.0302e-06
2.08992e-05
2.10379e-06
2.08785e-05
2.18162e-06
2.08515e-05
2.26366e-06
2.08165e-05
2.34977e-06
2.07714e-05
2.43976e-06
2.07139e-05
2.53333e-06
2.06411e-05
2.63009e-06
2.05499e-05
2.72952e-06
2.04368e-05
2.83094e-06
2.02981e-05
2.93356e-06
2.01298e-05
3.03636e-06
1.99277e-05
3.13817e-06
1.96875e-05
3.23763e-06
1.9405e-05
3.33318e-06
1.90761e-05
3.42306e-06
1.86971e-05
3.50538e-06
1.82649e-05
3.57809e-06
1.77767e-05
3.63907e-06
1.72311e-05
3.68615e-06
1.66275e-05
3.71723e-06
1.59665e-05
3.73029e-06
1.52502e-05
3.72356e-06
1.44822e-05
3.69557e-06
1.36676e-05
3.64525e-06
1.28129e-05
3.57204e-06
1.19263e-05
3.47594e-06
1.10168e-05
3.35759e-06
1.00948e-05
3.2183e-06
9.1709e-06
3.06003e-06
8.25625e-06
2.88532e-06
7.36156e-06
2.69726e-06
6.49693e-06
2.49934e-06
5.67136e-06
2.29525e-06
4.8924e-06
2.08878e-06
4.16591e-06
1.88357e-06
3.49597e-06
1.68298e-06
2.88483e-06
1.48994e-06
2.33306e-06
1.30682e-06
1.83978e-06
1.13543e-06
1.40287e-06
9.76949e-07
1.01927e-06
8.31974e-07
6.85242e-07
7.00558e-07
3.96635e-07
5.82291e-07
1.49182e-07
4.76428e-07
-6.12887e-08
3.82085e-07
-2.3871e-07
2.98515e-07
-3.86681e-07
2.25279e-07
-5.08472e-07
1.62334e-07
-6.07186e-07
1.1005e-07
-6.85915e-07
6.90193e-08
-7.4786e-07
3.97321e-08
-7.96343e-07
2.22275e-08
-8.34721e-07
1.58158e-08
-8.66214e-07
1.89251e-08
-8.93666e-07
2.91227e-08
-9.19322e-07
4.32905e-08
-9.44664e-07
5.78904e-08
-9.70331e-07
6.92835e-08
-9.96113e-07
7.40048e-08
-1.02101e-06
6.89986e-08
-1.04334e-06
5.18125e-08
-1.06084e-06
2.07705e-08
-1.07078e-06
-2.48655e-08
-1.07014e-06
-8.46681e-08
-1.05581e-06
-1.5685e-07
-1.02489e-06
-2.38116e-07
-9.75028e-07
-3.23556e-07
-9.04931e-07
-4.067e-07
-8.14841e-07
-4.79828e-07
-7.07015e-07
-5.34632e-07
-5.85994e-07
-5.63261e-07
-4.58535e-07
-5.59696e-07
-3.33058e-07
-5.21219e-07
-2.18598e-07
-4.4963e-07
-1.23438e-07
-3.51785e-07
-5.38304e-08
-2.39157e-07
-1.28496e-08
-1.2645e-07
-3.21889e-08
2.0012e-05
9.53695e-08
2.00479e-05
2.85934e-07
2.01037e-05
4.68031e-07
2.01727e-05
6.35613e-07
2.02485e-05
7.8588e-07
2.03262e-05
9.1895e-07
2.0402e-05
1.03597e-06
2.04725e-05
1.13834e-06
2.05352e-05
1.22786e-06
2.05886e-05
1.3068e-06
2.06319e-05
1.37747e-06
2.0665e-05
1.44201e-06
2.06881e-05
1.50232e-06
2.07019e-05
1.5601e-06
2.07073e-05
1.61674e-06
2.07054e-05
1.67342e-06
2.06971e-05
1.73107e-06
2.06836e-05
1.79043e-06
2.06659e-05
1.8521e-06
2.0645e-05
1.91652e-06
2.06217e-05
1.98408e-06
2.05969e-05
2.05505e-06
2.0571e-05
2.12969e-06
2.05444e-05
2.20819e-06
2.05173e-05
2.29072e-06
2.04896e-05
2.37741e-06
2.0461e-05
2.46835e-06
2.04307e-05
2.56359e-06
2.03977e-05
2.66312e-06
2.03604e-05
2.76683e-06
2.03167e-05
2.87455e-06
2.02643e-05
2.98596e-06
2.02001e-05
3.1006e-06
2.01204e-05
3.21784e-06
2.00212e-05
3.33684e-06
1.98978e-05
3.45654e-06
1.97452e-05
3.57563e-06
1.95581e-05
3.69251e-06
1.93308e-05
3.80534e-06
1.90579e-05
3.91199e-06
1.87339e-05
4.01012e-06
1.8354e-05
4.09714e-06
1.79139e-05
4.17037e-06
1.74104e-05
4.22703e-06
1.68416e-05
4.26438e-06
1.6207e-05
4.27985e-06
1.55079e-05
4.27113e-06
1.47475e-05
4.23635e-06
1.39309e-05
4.17416e-06
1.30652e-05
4.08392e-06
1.21595e-05
3.96574e-06
1.12242e-05
3.82058e-06
1.02712e-05
3.65028e-06
9.31304e-06
3.4575e-06
8.36258e-06
3.2457e-06
7.43239e-06
3.01895e-06
6.53418e-06
2.78176e-06
5.67828e-06
2.53887e-06
4.8732e-06
2.29499e-06
4.12541e-06
2.0546e-06
3.43917e-06
1.82165e-06
2.81662e-06
1.59948e-06
2.25791e-06
1.39067e-06
1.7615e-06
1.19695e-06
1.3245e-06
1.01928e-06
9.43024e-07
8.57882e-07
6.12642e-07
7.12445e-07
3.28764e-07
5.82365e-07
8.69708e-08
4.67037e-07
-1.16885e-07
3.66145e-07
-2.86718e-07
2.79829e-07
-4.26295e-07
2.08533e-07
-5.39427e-07
1.52792e-07
-6.30107e-07
1.12827e-07
-7.02533e-07
8.81535e-08
-7.60984e-07
7.72798e-08
-8.09558e-07
7.75936e-08
-8.51871e-07
8.54939e-08
-8.90787e-07
9.66925e-08
-9.28233e-07
1.06611e-07
-9.6511e-07
1.10762e-07
-1.00131e-06
1.05076e-07
-1.03577e-06
8.61525e-08
-1.06658e-06
5.14681e-08
-1.09111e-06
-4.5197e-10
-1.10607e-06
-6.98146e-08
-1.10778e-06
-1.55245e-07
-1.09243e-06
-2.5357e-07
-1.05647e-06
-3.59601e-07
-9.97233e-07
-4.66028e-07
-9.13543e-07
-5.63602e-07
-8.06491e-07
-6.41766e-07
-6.80008e-07
-6.8983e-07
-5.41087e-07
-6.98709e-07
-3.99403e-07
-6.63e-07
-2.66197e-07
-5.82943e-07
-1.52562e-07
-4.65548e-07
-6.74624e-08
-3.2431e-07
-1.63821e-08
-1.77677e-07
-4.85813e-08
2.00088e-05
8.65709e-08
2.00351e-05
2.59568e-07
2.00765e-05
4.2665e-07
2.01287e-05
5.8344e-07
2.01871e-05
7.27449e-07
2.02479e-05
8.5814e-07
2.03078e-05
9.75994e-07
2.03643e-05
1.0819e-06
2.0415e-05
1.17709e-06
2.04586e-05
1.26317e-06
2.04942e-05
1.34188e-06
2.05213e-05
1.4149e-06
2.05398e-05
1.48379e-06
2.055e-05
1.54994e-06
2.05521e-05
1.61456e-06
2.05468e-05
1.67868e-06
2.05347e-05
1.74314e-06
2.05165e-05
1.80862e-06
2.04929e-05
1.87567e-06
2.04647e-05
1.94473e-06
2.04326e-05
2.01616e-06
2.03974e-05
2.09024e-06
2.03598e-05
2.16724e-06
2.03206e-05
2.24735e-06
2.02806e-05
2.33079e-06
2.02402e-05
2.41773e-06
2.02002e-05
2.50834e-06
2.0161e-05
2.6028e-06
2.01228e-05
2.70125e-06
2.00858e-05
2.80382e-06
2.00498e-05
2.91062e-06
2.0014e-05
3.02169e-06
1.99776e-05
3.13703e-06
1.99389e-05
3.25651e-06
1.98958e-05
3.37991e-06
1.98455e-05
3.50681e-06
1.97845e-05
3.63662e-06
1.97085e-05
3.76848e-06
1.96126e-05
3.90128e-06
1.9491e-05
4.03356e-06
1.93376e-05
4.16353e-06
1.91457e-05
4.28903e-06
1.89085e-05
4.40757e-06
1.86192e-05
4.51629e-06
1.82715e-05
4.61209e-06
1.78597e-05
4.69164e-06
1.73792e-05
4.75154e-06
1.68272e-05
4.78842e-06
1.62022e-05
4.79914e-06
1.55052e-05
4.78093e-06
1.47393e-05
4.73157e-06
1.39103e-05
4.64962e-06
1.30261e-05
4.5345e-06
1.20969e-05
4.38666e-06
1.11349e-05
4.20766e-06
1.01537e-05
4.00011e-06
9.16779e-06
3.7677e-06
8.19166e-06
3.51499e-06
7.23941e-06
3.24722e-06
6.32392e-06
2.97008e-06
5.45622e-06
2.68933e-06
4.64514e-06
2.41055e-06
3.89697e-06
2.13882e-06
3.21544e-06
1.87847e-06
2.60182e-06
1.63288e-06
2.05523e-06
1.40446e-06
1.57305e-06
1.1946e-06
1.1515e-06
1.00389e-06
7.86135e-07
8.32372e-07
4.72351e-07
6.79891e-07
2.05693e-07
5.46439e-07
-1.812e-08
4.32288e-07
-2.03421e-07
3.38024e-07
-3.54789e-07
2.64118e-07
-4.77145e-07
2.10422e-07
-5.75743e-07
1.75784e-07
-6.55982e-07
1.57732e-07
-7.23065e-07
1.52471e-07
-7.81594e-07
1.55112e-07
-8.35231e-07
1.60136e-07
-8.86463e-07
1.61882e-07
-9.36516e-07
1.55015e-07
-9.85354e-07
1.34879e-07
-1.03176e-06
9.77632e-08
-1.07343e-06
4.11154e-08
-1.10709e-06
-3.62583e-08
-1.12862e-06
-1.33808e-07
-1.1334e-06
-2.48878e-07
-1.11669e-06
-3.76395e-07
-1.07424e-06
-5.08558e-07
-1.00311e-06
-6.348e-07
-9.02694e-07
-7.42253e-07
-7.75661e-07
-8.16936e-07
-6.2865e-07
-8.45799e-07
-4.7225e-07
-8.19491e-07
-3.19977e-07
-7.35311e-07
-1.86204e-07
-5.99397e-07
-8.36285e-08
-4.27064e-07
-2.0637e-08
-2.40709e-07
-6.92305e-08
2.00065e-05
8.00221e-08
2.00261e-05
2.39949e-07
2.00572e-05
3.95608e-07
2.00968e-05
5.43773e-07
2.01419e-05
6.8239e-07
2.01893e-05
8.10701e-07
2.02365e-05
9.28772e-07
2.02813e-05
1.03711e-06
2.03218e-05
1.13654e-06
2.03568e-05
1.22819e-06
2.03853e-05
1.31336e-06
2.04068e-05
1.39336e-06
2.04211e-05
1.46946e-06
2.04282e-05
1.54282e-06
2.04283e-05
1.61447e-06
2.04216e-05
1.68531e-06
2.04086e-05
1.75612e-06
2.03897e-05
1.82752e-06
2.03653e-05
1.90004e-06
2.03359e-05
1.9741e-06
2.0302e-05
2.05004e-06
2.02641e-05
2.12814e-06
2.02227e-05
2.20863e-06
2.01783e-05
2.2917e-06
2.01316e-05
2.37752e-06
2.00831e-05
2.46624e-06
2.00334e-05
2.558e-06
1.99832e-05
2.65294e-06
1.99332e-05
2.75121e-06
1.98841e-05
2.85294e-06
1.98364e-05
2.9583e-06
1.97907e-05
3.06742e-06
1.97472e-05
3.18046e-06
1.97062e-05
3.29754e-06
1.96673e-05
3.41875e-06
1.963e-05
3.54413e-06
1.9593e-05
3.67362e-06
1.95544e-05
3.80704e-06
1.95116e-05
3.94403e-06
1.94612e-05
4.08399e-06
1.93986e-05
4.22605e-06
1.93187e-05
4.36898e-06
1.92151e-05
4.51117e-06
1.90808e-05
4.65057e-06
1.89082e-05
4.78467e-06
1.86893e-05
4.9105e-06
1.84162e-05
5.02467e-06
1.80812e-05
5.12343e-06
1.76775e-05
5.2028e-06
1.71997e-05
5.2587e-06
1.66441e-05
5.28716e-06
1.60092e-05
5.28451e-06
1.52961e-05
5.24763e-06
1.45086e-05
5.17418e-06
1.36534e-05
5.06282e-06
1.27401e-05
4.91339e-06
1.17808e-05
4.72703e-06
1.07895e-05
4.50624e-06
9.78187e-06
4.25484e-06
8.77411e-06
3.97782e-06
7.78232e-06
3.6811e-06
6.82159e-06
3.37127e-06
5.90524e-06
3.05515e-06
5.04425e-06
2.73945e-06
4.24676e-06
2.43036e-06
3.51798e-06
2.13322e-06
2.86025e-06
1.85232e-06
2.27338e-06
1.59074e-06
1.75522e-06
1.35051e-06
1.3023e-06
1.13278e-06
9.10472e-07
9.38227e-07
5.75324e-07
7.67388e-07
2.9237e-07
6.2092e-07
5.69207e-08
4.99497e-07
-1.36268e-07
4.0353e-07
-2.93121e-07
3.32546e-07
-4.20114e-07
2.84629e-07
-5.23978e-07
2.56234e-07
-6.11212e-07
2.42243e-07
-6.87585e-07
2.36404e-07
-7.57667e-07
2.31859e-07
-8.2457e-07
2.21814e-07
-8.89817e-07
2.00025e-07
-9.53364e-07
1.61212e-07
-1.01368e-06
1.01334e-07
-1.06787e-06
1.7843e-08
-1.11175e-06
-9.0009e-08
-1.14015e-06
-2.20564e-07
-1.14727e-06
-3.69344e-07
-1.12732e-06
-5.28576e-07
-1.07536e-06
-6.86822e-07
-9.88543e-07
-8.29127e-07
-8.67522e-07
-9.38018e-07
-7.17703e-07
-9.95686e-07
-5.49863e-07
-9.87405e-07
-3.79516e-07
-9.05745e-07
-2.2472e-07
-7.5431e-07
-1.02558e-07
-5.49247e-07
-2.58072e-08
-3.17602e-07
-9.50464e-08
2.00049e-05
7.51005e-08
2.00196e-05
2.25203e-07
2.00431e-05
3.72154e-07
2.00733e-05
5.13532e-07
2.0108e-05
6.47683e-07
2.01449e-05
7.73825e-07
2.01818e-05
8.91803e-07
2.0217e-05
1.00186e-06
2.0249e-05
1.10453e-06
2.02766e-05
1.20061e-06
2.02989e-05
1.29106e-06
2.03153e-05
1.3769e-06
2.03257e-05
1.45913e-06
2.03297e-05
1.53871e-06
2.03277e-05
1.61652e-06
2.03196e-05
1.69336e-06
2.03058e-05
1.76991e-06
2.02866e-05
1.84675e-06
2.02622e-05
1.92438e-06
2.02331e-05
2.00321e-06
2.01995e-05
2.08358e-06
2.01619e-05
2.16577e-06
2.01205e-05
2.25001e-06
2.00757e-05
2.33648e-06
2.00278e-05
2.42534e-06
1.99773e-05
2.51672e-06
1.99246e-05
2.61073e-06
1.987e-05
2.70747e-06
1.98142e-05
2.80703e-06
1.97576e-05
2.90951e-06
1.97009e-05
3.015e-06
1.96447e-05
3.1236e-06
1.95897e-05
3.23543e-06
1.95366e-05
3.35063e-06
1.9486e-05
3.46934e-06
1.94384e-05
3.5917e-06
1.93941e-05
3.71786e-06
1.93532e-05
3.84796e-06
1.93152e-05
3.98205e-06
1.9279e-05
4.12013e-06
1.9243e-05
4.26204e-06
1.92045e-05
4.40744e-06
1.916e-05
4.55571e-06
1.91047e-05
4.70589e-06
1.90327e-05
4.8566e-06
1.89373e-05
5.00596e-06
1.88104e-05
5.15156e-06
1.86434e-05
5.29041e-06
1.84272e-05
5.41896e-06
1.81528e-05
5.53314e-06
1.78114e-05
5.62847e-06
1.73957e-05
5.70025e-06
1.68996e-05
5.74371e-06
1.63194e-05
5.75431e-06
1.56542e-05
5.72801e-06
1.4906e-05
5.66158e-06
1.40802e-05
5.55287e-06
1.31853e-05
5.40107e-06
1.22333e-05
5.20688e-06
1.12385e-05
4.97263e-06
1.02173e-05
4.70227e-06
9.18737e-06
4.40119e-06
8.1665e-06
4.07601e-06
7.17171e-06
3.73423e-06
6.21831e-06
3.38374e-06
5.31912e-06
3.0324e-06
4.4839e-06
2.68752e-06
3.71915e-06
2.35548e-06
3.02816e-06
2.04148e-06
2.41149e-06
1.74943e-06
1.86759e-06
1.48209e-06
1.39353e-06
1.24141e-06
9.85566e-07
1.02884e-06
6.39368e-07
8.45642e-07
3.50024e-07
6.92808e-07
1.11777e-07
5.70718e-07
-8.22385e-08
4.78559e-07
-2.39829e-07
4.13736e-07
-3.69205e-07
3.71526e-07
-4.7832e-07
3.45426e-07
-5.74191e-07
3.27635e-07
-6.62387e-07
3.09917e-07
-7.46628e-07
2.84176e-07
-8.28692e-07
2.4319e-07
-9.08411e-07
1.80971e-07
-9.83809e-07
9.31618e-08
-1.0512e-06
-2.26952e-08
-1.10528e-06
-1.6655e-07
-1.1396e-06
-3.35086e-07
-1.14704e-06
-5.21193e-07
-1.12066e-06
-7.13259e-07
-1.05501e-06
-8.94823e-07
-9.47951e-07
-1.04512e-06
-8.02585e-07
-1.14111e-06
-6.28757e-07
-1.1613e-06
-4.43212e-07
-1.09136e-06
-2.67608e-07
-9.29964e-07
-1.24498e-07
-6.92529e-07
-3.1969e-08
-4.10147e-07
-1.27026e-07
2.00037e-05
7.13828e-08
2.00148e-05
2.14063e-07
2.00326e-05
3.54375e-07
2.00556e-05
4.9047e-07
2.00823e-05
6.21025e-07
2.01108e-05
7.45319e-07
2.01395e-05
8.63093e-07
2.01669e-05
9.74423e-07
2.01918e-05
1.07965e-06
2.0213e-05
1.17932e-06
2.02299e-05
1.27413e-06
2.02419e-05
1.36488e-06
2.02487e-05
1.45237e-06
2.025e-05
1.53738e-06
2.02459e-05
1.62064e-06
2.02364e-05
1.70285e-06
2.02216e-05
1.7846e-06
2.02019e-05
1.86643e-06
2.01775e-05
1.9488e-06
2.01486e-05
2.03209e-06
2.01155e-05
2.11666e-06
2.00785e-05
2.20276e-06
2.00378e-05
2.29064e-06
1.99938e-05
2.38049e-06
1.99467e-05
2.47246e-06
1.98967e-05
2.56669e-06
1.98441e-05
2.66328e-06
1.97893e-05
2.76232e-06
1.97324e-05
2.86388e-06
1.96739e-05
2.96802e-06
1.96141e-05
3.0748e-06
1.95534e-05
3.18426e-06
1.94923e-05
3.29646e-06
1.94315e-05
3.41145e-06
1.93715e-05
3.52933e-06
1.9313e-05
3.65017e-06
1.92568e-05
3.77409e-06
1.92035e-05
3.90125e-06
1.91537e-05
4.0318e-06
1.91079e-05
4.16591e-06
1.90662e-05
4.30374e-06
1.90282e-05
4.4454e-06
1.8993e-05
4.59091e-06
1.89588e-05
4.74011e-06
1.89227e-05
4.89264e-06
1.88809e-05
5.04779e-06
1.8828e-05
5.20442e-06
1.87575e-05
5.36087e-06
1.86616e-05
5.51486e-06
1.85313e-05
5.66345e-06
1.83568e-05
5.80297e-06
1.81279e-05
5.92913e-06
1.78346e-05
6.03701e-06
1.74676e-05
6.12131e-06
1.7019e-05
6.17654e-06
1.64833e-05
6.19731e-06
1.58575e-05
6.17868e-06
1.5142e-05
6.11654e-06
1.43409e-05
6.00794e-06
1.34621e-05
5.85144e-06
1.2517e-05
5.64734e-06
1.15204e-05
5.39783e-06
1.04893e-05
5.10703e-06
9.44271e-06
4.78083e-06
8.39984e-06
4.4266e-06
7.37943e-06
4.05281e-06
6.39846e-06
3.66848e-06
5.47129e-06
3.28264e-06
4.60901e-06
2.90374e-06
3.81919e-06
2.53923e-06
3.10602e-06
2.19525e-06
2.47079e-06
1.87661e-06
1.91265e-06
1.58695e-06
1.42918e-06
1.32908e-06
1.01676e-06
1.10518e-06
6.70617e-07
9.16807e-07
3.84594e-07
7.64522e-07
1.51023e-07
6.47238e-07
-3.91662e-08
5.6164e-07
-1.9578e-07
5.01961e-07
-3.28326e-07
4.60103e-07
-4.45156e-07
4.26669e-07
-5.52783e-07
3.91728e-07
-6.55563e-07
3.45898e-07
-7.55447e-07
2.80787e-07
-8.52074e-07
1.89723e-07
-9.42912e-07
6.80814e-08
-1.02328e-06
-8.62399e-08
-1.08657e-06
-2.71843e-07
-1.12485e-06
-4.8296e-07
-1.12946e-06
-7.08691e-07
-1.09231e-06
-9.3201e-07
-1.00789e-06
-1.12958e-06
-8.75884e-07
-1.27316e-06
-7.03743e-07
-1.33349e-06
-5.0814e-07
-1.28703e-06
-3.13824e-07
-1.12438e-06
-1.49068e-07
-8.57272e-07
-3.91906e-08
-5.2015e-07
-1.66223e-07
2.00028e-05
6.85725e-08
2.00112e-05
2.05642e-07
2.00247e-05
3.40905e-07