# vtk DataFile Version 2.0
sampleSurface
ASCII
DATASET POLYDATA
POINTS 652 double
0 0 0
0.02 0 0
0.02 0 0.1
0 0 0.1
0.04 0 0
0.04 0 0.1
0.06 0 0
0.06 0 0.1
0.08 0 0
0.08 0 0.1
0.1 0 0
0.1 0 0.1
0.12 0 0
0.12 0 0.1
0.14 0 0
0.14 0 0.1
0.16 0 0
0.16 0 0.1
0.18 0 0
0.18 0 0.1
0.2 0 0
0.2 0 0.1
0.22 0 0
0.22 0 0.1
0.24 0 0
0.24 0 0.1
0.26 0 0
0.26 0 0.1
0.28 0 0
0.28 0 0.1
0.3 0 0
0.3 0 0.1
0.32 0 0
0.32 0 0.1
0.34 0 0
0.34 0 0.1
0.36 0 0
0.36 0 0.1
0.38 0 0
0.38 0 0.1
0.4 0 0
0.4 0 0.1
0.42 0 0
0.42 0 0.1
0.44 0 0
0.44 0 0.1
0.46 0 0
0.46 0 0.1
0.48 0 0
0.48 0 0.1
0.5 0 0
0.5 0 0.1
0.52 0 0
0.52 0 0.1
0.54 0 0
0.54 0 0.1
0.56 0 0
0.56 0 0.1
0.58 0 0
0.58 0 0.1
0.6 0 0
0.6 0 0.1
0.62 0 0
0.62 0 0.1
0.64 0 0
0.64 0 0.1
0.66 0 0
0.66 0 0.1
0.68 0 0
0.68 0 0.1
0.7 0 0
0.7 0 0.1
0.72 0 0
0.72 0 0.1
0.74 0 0
0.74 0 0.1
0.76 0 0
0.76 0 0.1
0.78 0 0
0.78 0 0.1
0.8 0 0
0.8 0 0.1
0.82 0 0
0.82 0 0.1
0.84 0 0
0.84 0 0.1
0.86 0 0
0.86 0 0.1
0.88 0 0
0.88 0 0.1
0.9 0 0
0.9 0 0.1
0.92 0 0
0.92 0 0.1
0.94 0 0
0.94 0 0.1
0.96 0 0
0.96 0 0.1
0.98 0 0
0.98 0 0.1
1 0 0
1 0 0.1
1.02 0 0
1.02 0 0.1
1.04 0 0
1.04 0 0.1
1.06 0 0
1.06 0 0.1
1.08 0 0
1.08 0 0.1
1.1 0 0
1.1 0 0.1
1.12 0 0
1.12 0 0.1
1.14 0 0
1.14 0 0.1
1.16 0 0
1.16 0 0.1
1.18 0 0
1.18 0 0.1
1.2 0 0
1.2 0 0.1
1.22 0 0
1.22 0 0.1
1.24 0 0
1.24 0 0.1
1.26 0 0
1.26 0 0.1
1.28 0 0
1.28 0 0.1
1.3 0 0
1.3 0 0.1
1.32 0 0
1.32 0 0.1
1.34 0 0
1.34 0 0.1
1.36 0 0
1.36 0 0.1
1.38 0 0
1.38 0 0.1
1.4 0 0
1.4 0 0.1
1.42 0 0
1.42 0 0.1
1.44 0 0
1.44 0 0.1
1.46 0 0
1.46 0 0.1
1.48 0 0
1.48 0 0.1
1.5 0 0
1.5 0 0.1
1.52 0 0
1.52 0 0.1
1.54 0 0
1.54 0 0.1
1.56 0 0
1.56 0 0.1
1.58 0 0
1.58 0 0.1
1.6 0 0
1.6 0 0.1
1.62 0 0
1.62 0 0.1
1.64 0 0
1.64 0 0.1
1.66 0 0
1.66 0 0.1
1.68 0 0
1.68 0 0.1
1.7 0 0
1.7 0 0.1
1.72 0 0
1.72 0 0.1
1.74 0 0
1.74 0 0.1
1.76 0 0
1.76 0 0.1
1.78 0 0
1.78 0 0.1
1.8 0 0
1.8 0 0.1
1.82 0 0
1.82 0 0.1
1.84 0 0
1.84 0 0.1
1.86 0 0
1.86 0 0.1
1.88 0 0
1.88 0 0.1
1.9 0 0
1.9 0 0.1
1.92 0 0
1.92 0 0.1
1.94 0 0
1.94 0 0.1
1.96 0 0
1.96 0 0.1
1.98 0 0
1.98 0 0.1
2 0 0
2 0 0.1
2 0.02 0
2 0.02 0.1
2 0.04 0
2 0.04 0.1
2 0.06 0
2 0.06 0.1
2 0.08 0
2 0.08 0.1
2 0.1 0
2 0.1 0.1
2 0.12 0
2 0.12 0.1
2 0.14 0
2 0.14 0.1
2 0.16 0
2 0.16 0.1
2 0.18 0
2 0.18 0.1
2 0.2 0
2 0.2 0.1
2 0.22 0
2 0.22 0.1
2 0.24 0
2 0.24 0.1
2 0.26 0
2 0.26 0.1
2 0.28 0
2 0.28 0.1
2 0.3 0
2 0.3 0.1
2 0.32 0
2 0.32 0.1
2 0.34 0
2 0.34 0.1
2 0.36 0
2 0.36 0.1
2 0.38 0
2 0.38 0.1
2 0.4 0
2 0.4 0.1
2 0.42 0
2 0.42 0.1
2 0.44 0
2 0.44 0.1
2 0.46 0
2 0.46 0.1
2 0.48 0
2 0.48 0.1
2 0.5 0
2 0.5 0.1
2 0.52 0
2 0.52 0.1
2 0.54 0
2 0.54 0.1
2 0.56 0
2 0.56 0.1
2 0.58 0
2 0.58 0.1
2 0.6 0
2 0.6 0.1
2 0.62 0
2 0.62 0.1
2 0.64 0
2 0.64 0.1
2 0.66 0
2 0.66 0.1
2 0.68 0
2 0.68 0.1
2 0.7 0
2 0.7 0.1
2 0.72 0
2 0.72 0.1
2 0.74 0
2 0.74 0.1
2 0.76 0
2 0.76 0.1
2 0.78 0
2 0.78 0.1
2 0.8 0
2 0.8 0.1
2 0.82 0
2 0.82 0.1
2 0.84 0
2 0.84 0.1
2 0.86 0
2 0.86 0.1
2 0.88 0
2 0.88 0.1
2 0.9 0
2 0.9 0.1
2 0.92 0
2 0.92 0.1
2 0.94 0
2 0.94 0.1
2 0.96 0
2 0.96 0.1
2 0.98 0
2 0.98 0.1
2 1 0
2 1 0.1
2.02 1 0
2.02 1 0.1
2.04 1 0
2.04 1 0.1
2.06 1 0
2.06 1 0.1
2.08 1 0
2.08 1 0.1
2.1 1 0
2.1 1 0.1
2.12 1 0
2.12 1 0.1
2.14 1 0
2.14 1 0.1
2.16 1 0
2.16 1 0.1
2.18 1 0
2.18 1 0.1
2.2 1 0
2.2 1 0.1
2.22 1 0
2.22 1 0.1
2.24 1 0
2.24 1 0.1
2.26 1 0
2.26 1 0.1
2.28 1 0
2.28 1 0.1
2.3 1 0
2.3 1 0.1
2.32 1 0
2.32 1 0.1
2.34 1 0
2.34 1 0.1
2.36 1 0
2.36 1 0.1
2.38 1 0
2.38 1 0.1
2.4 1 0
2.4 1 0.1
2.42 1 0
2.42 1 0.1
2.44 1 0
2.44 1 0.1
2.46 1 0
2.46 1 0.1
2.48 1 0
2.48 1 0.1
2.5 1 0
2.5 1 0.1
2.5 0 0
2.5 0 0.1
2.5 0.02 0.1
2.5 0.02 0
2.5 0.04 0.1
2.5 0.04 0
2.5 0.06 0.1
2.5 0.06 0
2.5 0.08 0.1
2.5 0.08 0
2.5 0.1 0.1
2.5 0.1 0
2.5 0.12 0.1
2.5 0.12 0
2.5 0.14 0.1
2.5 0.14 0
2.5 0.16 0.1
2.5 0.16 0
2.5 0.18 0.1
2.5 0.18 0
2.5 0.2 0.1
2.5 0.2 0
2.5 0.22 0.1
2.5 0.22 0
2.5 0.24 0.1
2.5 0.24 0
2.5 0.26 0.1
2.5 0.26 0
2.5 0.28 0.1
2.5 0.28 0
2.5 0.3 0.1
2.5 0.3 0
2.5 0.32 0.1
2.5 0.32 0
2.5 0.34 0.1
2.5 0.34 0
2.5 0.36 0.1
2.5 0.36 0
2.5 0.38 0.1
2.5 0.38 0
2.5 0.4 0.1
2.5 0.4 0
2.5 0.42 0.1
2.5 0.42 0
2.5 0.44 0.1
2.5 0.44 0
2.5 0.46 0.1
2.5 0.46 0
2.5 0.48 0.1
2.5 0.48 0
2.5 0.5 0.1
2.5 0.5 0
2.5 0.52 0.1
2.5 0.52 0
2.5 0.54 0.1
2.5 0.54 0
2.5 0.56 0.1
2.5 0.56 0
2.5 0.58 0.1
2.5 0.58 0
2.5 0.6 0.1
2.5 0.6 0
2.5 0.62 0.1
2.5 0.62 0
2.5 0.64 0.1
2.5 0.64 0
2.5 0.66 0.1
2.5 0.66 0
2.5 0.68 0.1
2.5 0.68 0
2.5 0.7 0.1
2.5 0.7 0
2.5 0.72 0.1
2.5 0.72 0
2.5 0.74 0.1
2.5 0.74 0
2.5 0.76 0.1
2.5 0.76 0
2.5 0.78 0.1
2.5 0.78 0
2.5 0.8 0.1
2.5 0.8 0
2.5 0.82 0.1
2.5 0.82 0
2.5 0.84 0.1
2.5 0.84 0
2.5 0.86 0.1
2.5 0.86 0
2.5 0.88 0.1
2.5 0.88 0
2.5 0.9 0.1
2.5 0.9 0
2.5 0.92 0.1
2.5 0.92 0
2.5 0.94 0.1
2.5 0.94 0
2.5 0.96 0.1
2.5 0.96 0
2.5 0.98 0.1
2.5 0.98 0
2.52 0 0
2.52 0 0.1
2.54 0 0
2.54 0 0.1
2.56 0 0
2.56 0 0.1
2.58 0 0
2.58 0 0.1
2.6 0 0
2.6 0 0.1
2.62 0 0
2.62 0 0.1
2.64 0 0
2.64 0 0.1
2.66 0 0
2.66 0 0.1
2.68 0 0
2.68 0 0.1
2.7 0 0
2.7 0 0.1
2.72 0 0
2.72 0 0.1
2.74 0 0
2.74 0 0.1
2.76 0 0
2.76 0 0.1
2.78 0 0
2.78 0 0.1
2.8 0 0
2.8 0 0.1
2.82 0 0
2.82 0 0.1
2.84 0 0
2.84 0 0.1
2.86 0 0
2.86 0 0.1
2.88 0 0
2.88 0 0.1
2.9 0 0
2.9 0 0.1
2.92 0 0
2.92 0 0.1
2.94 0 0
2.94 0 0.1
2.96 0 0
2.96 0 0.1
2.98 0 0
2.98 0 0.1
3 0 0
3 0 0.1
3.02 0 0
3.02 0 0.1
3.04 0 0
3.04 0 0.1
3.06 0 0
3.06 0 0.1
3.08 0 0
3.08 0 0.1
3.1 0 0
3.1 0 0.1
3.12 0 0
3.12 0 0.1
3.14 0 0
3.14 0 0.1
3.16 0 0
3.16 0 0.1
3.18 0 0
3.18 0 0.1
3.2 0 0
3.2 0 0.1
3.22 0 0
3.22 0 0.1
3.24 0 0
3.24 0 0.1
3.26 0 0
3.26 0 0.1
3.28 0 0
3.28 0 0.1
3.3 0 0
3.3 0 0.1
3.32 0 0
3.32 0 0.1
3.34 0 0
3.34 0 0.1
3.36 0 0
3.36 0 0.1
3.38 0 0
3.38 0 0.1
3.4 0 0
3.4 0 0.1
3.42 0 0
3.42 0 0.1
3.44 0 0
3.44 0 0.1
3.46 0 0
3.46 0 0.1
3.48 0 0
3.48 0 0.1
3.5 0 0
3.5 0 0.1
3.52 0 0
3.52 0 0.1
3.54 0 0
3.54 0 0.1
3.56 0 0
3.56 0 0.1
3.58 0 0
3.58 0 0.1
3.6 0 0
3.6 0 0.1
3.62 0 0
3.62 0 0.1
3.64 0 0
3.64 0 0.1
3.66 0 0
3.66 0 0.1
3.68 0 0
3.68 0 0.1
3.7 0 0
3.7 0 0.1
3.72 0 0
3.72 0 0.1
3.74 0 0
3.74 0 0.1
3.76 0 0
3.76 0 0.1
3.78 0 0
3.78 0 0.1
3.8 0 0
3.8 0 0.1
3.82 0 0
3.82 0 0.1
3.84 0 0
3.84 0 0.1
3.86 0 0
3.86 0 0.1
3.88 0 0
3.88 0 0.1
3.9 0 0
3.9 0 0.1
3.92 0 0
3.92 0 0.1
3.94 0 0
3.94 0 0.1
3.96 0 0
3.96 0 0.1
3.98 0 0
3.98 0 0.1
4 0 0
4 0 0.1
4.02 0 0
4.02 0 0.1
4.04 0 0
4.04 0 0.1
4.06 0 0
4.06 0 0.1
4.08 0 0
4.08 0 0.1
4.1 0 0
4.1 0 0.1
4.12 0 0
4.12 0 0.1
4.14 0 0
4.14 0 0.1
4.16 0 0
4.16 0 0.1
4.18 0 0
4.18 0 0.1
4.2 0 0
4.2 0 0.1
4.22 0 0
4.22 0 0.1
4.24 0 0
4.24 0 0.1
4.26 0 0
4.26 0 0.1
4.28 0 0
4.28 0 0.1
4.3 0 0
4.3 0 0.1
4.32 0 0
4.32 0 0.1
4.34 0 0
4.34 0 0.1
4.36 0 0
4.36 0 0.1
4.38 0 0
4.38 0 0.1
4.4 0 0
4.4 0 0.1
4.42 0 0
4.42 0 0.1
4.44 0 0
4.44 0 0.1
4.46 0 0
4.46 0 0.1
4.48 0 0
4.48 0 0.1
4.5 0 0
4.5 0 0.1

POLYGONS 325 1625
4 0 1 2 3
4 1 4 5 2
4 4 6 7 5
4 6 8 9 7
4 8 10 11 9
4 10 12 13 11
4 12 14 15 13
4 14 16 17 15
4 16 18 19 17
4 18 20 21 19
4 20 22 23 21
4 22 24 25 23
4 24 26 27 25
4 26 28 29 27
4 28 30 31 29
4 30 32 33 31
4 32 34 35 33
4 34 36 37 35
4 36 38 39 37
4 38 40 41 39
4 40 42 43 41
4 42 44 45 43
4 44 46 47 45
4 46 48 49 47
4 48 50 51 49
4 50 52 53 51
4 52 54 55 53
4 54 56 57 55
4 56 58 59 57
4 58 60 61 59
4 60 62 63 61
4 62 64 65 63
4 64 66 67 65
4 66 68 69 67
4 68 70 71 69
4 70 72 73 71
4 72 74 75 73
4 74 76 77 75
4 76 78 79 77
4 78 80 81 79
4 80 82 83 81
4 82 84 85 83
4 84 86 87 85
4 86 88 89 87
4 88 90 91 89
4 90 92 93 91
4 92 94 95 93
4 94 96 97 95
4 96 98 99 97
4 98 100 101 99
4 100 102 103 101
4 102 104 105 103
4 104 106 107 105
4 106 108 109 107
4 108 110 111 109
4 110 112 113 111
4 112 114 115 113
4 114 116 117 115
4 116 118 119 117
4 118 120 121 119
4 120 122 123 121
4 122 124 125 123
4 124 126 127 125
4 126 128 129 127
4 128 130 131 129
4 130 132 133 131
4 132 134 135 133
4 134 136 137 135
4 136 138 139 137
4 138 140 141 139
4 140 142 143 141
4 142 144 145 143
4 144 146 147 145
4 146 148 149 147
4 148 150 151 149
4 150 152 153 151
4 152 154 155 153
4 154 156 157 155
4 156 158 159 157
4 158 160 161 159
4 160 162 163 161
4 162 164 165 163
4 164 166 167 165
4 166 168 169 167
4 168 170 171 169
4 170 172 173 171
4 172 174 175 173
4 174 176 177 175
4 176 178 179 177
4 178 180 181 179
4 180 182 183 181
4 182 184 185 183
4 184 186 187 185
4 186 188 189 187
4 188 190 191 189
4 190 192 193 191
4 192 194 195 193
4 194 196 197 195
4 196 198 199 197
4 198 200 201 199
4 200 202 203 201
4 202 204 205 203
4 204 206 207 205
4 206 208 209 207
4 208 210 211 209
4 210 212 213 211
4 212 214 215 213
4 214 216 217 215
4 216 218 219 217
4 218 220 221 219
4 220 222 223 221
4 222 224 225 223
4 224 226 227 225
4 226 228 229 227
4 228 230 231 229
4 230 232 233 231
4 232 234 235 233
4 234 236 237 235
4 236 238 239 237
4 238 240 241 239
4 240 242 243 241
4 242 244 245 243
4 244 246 247 245
4 246 248 249 247
4 248 250 251 249
4 250 252 253 251
4 252 254 255 253
4 254 256 257 255
4 256 258 259 257
4 258 260 261 259
4 260 262 263 261
4 262 264 265 263
4 264 266 267 265
4 266 268 269 267
4 268 270 271 269
4 270 272 273 271
4 272 274 275 273
4 274 276 277 275
4 276 278 279 277
4 278 280 281 279
4 280 282 283 281
4 282 284 285 283
4 284 286 287 285
4 286 288 289 287
4 288 290 291 289
4 290 292 293 291
4 292 294 295 293
4 294 296 297 295
4 296 298 299 297
4 298 300 301 299
4 300 302 303 301
4 302 304 305 303
4 304 306 307 305
4 306 308 309 307
4 308 310 311 309
4 310 312 313 311
4 312 314 315 313
4 314 316 317 315
4 316 318 319 317
4 318 320 321 319
4 320 322 323 321
4 322 324 325 323
4 324 326 327 325
4 326 328 329 327
4 328 330 331 329
4 330 332 333 331
4 332 334 335 333
4 334 336 337 335
4 336 338 339 337
4 338 340 341 339
4 340 342 343 341
4 342 344 345 343
4 344 346 347 345
4 346 348 349 347
4 348 350 351 349
4 352 353 354 355
4 355 354 356 357
4 357 356 358 359
4 359 358 360 361
4 361 360 362 363
4 363 362 364 365
4 365 364 366 367
4 367 366 368 369
4 369 368 370 371
4 371 370 372 373
4 373 372 374 375
4 375 374 376 377
4 377 376 378 379
4 379 378 380 381
4 381 380 382 383
4 383 382 384 385
4 385 384 386 387
4 387 386 388 389
4 389 388 390 391
4 391 390 392 393
4 393 392 394 395
4 395 394 396 397
4 397 396 398 399
4 399 398 400 401
4 401 400 402 403
4 403 402 404 405
4 405 404 406 407
4 407 406 408 409
4 409 408 410 411
4 411 410 412 413
4 413 412 414 415
4 415 414 416 417
4 417 416 418 419
4 419 418 420 421
4 421 420 422 423
4 423 422 424 425
4 425 424 426 427
4 427 426 428 429
4 429 428 430 431
4 431 430 432 433
4 433 432 434 435
4 435 434 436 437
4 437 436 438 439
4 439 438 440 441
4 441 440 442 443
4 443 442 444 445
4 445 444 446 447
4 447 446 448 449
4 449 448 450 451
4 451 450 351 350
4 352 452 453 353
4 452 454 455 453
4 454 456 457 455
4 456 458 459 457
4 458 460 461 459
4 460 462 463 461
4 462 464 465 463
4 464 466 467 465
4 466 468 469 467
4 468 470 471 469
4 470 472 473 471
4 472 474 475 473
4 474 476 477 475
4 476 478 479 477
4 478 480 481 479
4 480 482 483 481
4 482 484 485 483
4 484 486 487 485
4 486 488 489 487
4 488 490 491 489
4 490 492 493 491
4 492 494 495 493
4 494 496 497 495
4 496 498 499 497
4 498 500 501 499
4 500 502 503 501
4 502 504 505 503
4 504 506 507 505
4 506 508 509 507
4 508 510 511 509
4 510 512 513 511
4 512 514 515 513
4 514 516 517 515
4 516 518 519 517
4 518 520 521 519
4 520 522 523 521
4 522 524 525 523
4 524 526 527 525
4 526 528 529 527
4 528 530 531 529
4 530 532 533 531
4 532 534 535 533
4 534 536 537 535
4 536 538 539 537
4 538 540 541 539
4 540 542 543 541
4 542 544 545 543
4 544 546 547 545
4 546 548 549 547
4 548 550 551 549
4 550 552 553 551
4 552 554 555 553
4 554 556 557 555
4 556 558 559 557
4 558 560 561 559
4 560 562 563 561
4 562 564 565 563
4 564 566 567 565
4 566 568 569 567
4 568 570 571 569
4 570 572 573 571
4 572 574 575 573
4 574 576 577 575
4 576 578 579 577
4 578 580 581 579
4 580 582 583 581
4 582 584 585 583
4 584 586 587 585
4 586 588 589 587
4 588 590 591 589
4 590 592 593 591
4 592 594 595 593
4 594 596 597 595
4 596 598 599 597
4 598 600 601 599
4 600 602 603 601
4 602 604 605 603
4 604 606 607 605
4 606 608 609 607
4 608 610 611 609
4 610 612 613 611
4 612 614 615 613
4 614 616 617 615
4 616 618 619 617
4 618 620 621 619
4 620 622 623 621
4 622 624 625 623
4 624 626 627 625
4 626 628 629 627
4 628 630 631 629
4 630 632 633 631
4 632 634 635 633
4 634 636 637 635
4 636 638 639 637
4 638 640 641 639
4 640 642 643 641
4 642 644 645 643
4 644 646 647 645
4 646 648 649 647
4 648 650 651 649
POINT_DATA 652
FIELD attributes 1
U 3 652 float
2.55673 0.0157868 0.0306179
1.27887 0.00789825 0.0153089
1.27887 0.00789825 0.0153089
2.55673 0.0157868 0.0306179
0.00100853 8.8943e-06 0
0.00100853 8.8943e-06 0
0.00100292 6.34796e-06 0
0.00100292 6.34796e-06 0
0.000999646 2.82691e-06 0
0.000999646 2.82691e-06 0
0.000997942 -3.95368e-07 0
0.000997942 -3.95368e-07 0
0.000997173 -2.629e-06 0
0.000997173 -2.629e-06 0
0.000997411 -2.90935e-06 0
0.000997411 -2.90935e-06 0
0.000997622 -9.25225e-07 0
0.000997622 -9.25225e-07 0
0.000995987 2.17346e-06 0
0.000995987 2.17346e-06 0
0.000991873 4.42429e-06 0
0.000991873 4.42429e-06 0
0.000986404 4.61382e-06 0
0.000986404 4.61382e-06 0
0.000981334 3.09761e-06 0
0.000981334 3.09761e-06 0
0.000977742 1.26322e-06 0
0.000977742 1.26322e-06 0
0.000975761 3.5173e-07 0
0.000975761 3.5173e-07 0
0.000974934 7.0914e-07 0
0.000974934 7.0914e-07 0
0.000974539 1.84608e-06 0
0.000974539 1.84608e-06 0
0.000973735 2.92002e-06 0
0.000973735 2.92002e-06 0
0.000971749 3.25141e-06 0
0.000971749 3.25141e-06 0
0.000968252 2.66874e-06 0
0.000968252 2.66874e-06 0
0.000963678 1.56493e-06 0
0.000963678 1.56493e-06 0
0.000959016 6.50861e-07 0
0.000959016 6.50861e-07 0
0.000955081 5.65878e-07 0
0.000955081 5.65878e-07 0
0.000951855 1.50173e-06 0
0.000951855 1.50173e-06 0
0.000948526 2.99253e-06 0
0.000948526 2.99253e-06 0
0.000944213 4.15107e-06 0
0.000944213 4.15107e-06 0
0.000938741 4.30371e-06 0
0.000938741 4.30371e-06 0
0.000932696 3.5036e-06 0
0.000932696 3.5036e-06 0
0.000926761 2.43955e-06 0
0.000926761 2.43955e-06 0
0.000921102 1.79574e-06 0
0.000921102 1.79574e-06 0
0.000915417 1.66867e-06 0
0.000915417 1.66867e-06 0
0.000909467 1.62697e-06 0
0.000909467 1.62697e-06 0
0.000903407 1.34225e-06 0
0.000903407 1.34225e-06 0
0.000897544 1.09002e-06 0
0.000897544 1.09002e-06 0
0.000891874 1.52068e-06 0
0.000891874 1.52068e-06 0
0.000885982 2.9066e-06 0
0.000885982 2.9066e-06 0
0.000879449 4.70128e-06 0
0.000879449 4.70128e-06 0
0.000872302 5.93532e-06 0
0.000872302 5.93532e-06 0
0.000864967 6.09594e-06 0
0.000864967 6.09594e-06 0
0.000857753 5.6151e-06 0
0.000857753 5.6151e-06 0
0.000850414 5.45673e-06 0
0.000850414 5.45673e-06 0
0.000842307 6.19454e-06 0
0.000842307 6.19454e-06 0
0.000833015 7.47747e-06 0
0.000833015 7.47747e-06 0
0.000822826 8.38604e-06 0
0.000822826 8.38604e-06 0
0.000812559 8.3233e-06 0
0.000812559 8.3233e-06 0
0.000802862 7.59672e-06 0
0.000802862 7.59672e-06 0
0.000793585 7.16813e-06 0
0.000793585 7.16813e-06 0
0.000783747 7.83927e-06 0
0.000783747 7.83927e-06 0
0.000772109 9.59696e-06 0
0.000772109 9.59696e-06 0
0.000757956 1.16276e-05 0
0.000757956 1.16276e-05 0
0.000741538 1.29278e-05 0
0.000741538 1.29278e-05 0
0.000723887 1.29704e-05 0
0.000723887 1.29704e-05 0
0.000706227 1.19238e-05 0
0.000706227 1.19238e-05 0
0.000689434 1.03792e-05 0
0.000689434 1.03792e-05 0
0.000673829 8.92351e-06 0
0.000673829 8.92351e-06 0
0.000659279 7.88233e-06 0
0.000659279 7.88233e-06 0
0.000645423 7.30681e-06 0
0.000645423 7.30681e-06 0
0.000631879 7.08968e-06 0
0.000631879 7.08968e-06 0
0.000618354 7.08671e-06 0
0.000618354 7.08671e-06 0
0.000604672 7.18574e-06 0
0.000604672 7.18574e-06 0
0.000590747 7.32286e-06 0
0.000590747 7.32286e-06 0
0.000576547 7.4695e-06 0
0.000576547 7.4695e-06 0
0.000562064 7.61559e-06 0
0.000562064 7.61559e-06 0
0.000547301 7.7589e-06 0
0.000547301 7.7589e-06 0
0.000532259 7.89887e-06 0
0.000532259 7.89887e-06 0
0.000516943 8.03434e-06 0
0.000516943 8.03434e-06 0
0.000501356 8.16416e-06 0
0.000501356 8.16416e-06 0
0.000485504 8.28748e-06 0
0.000485504 8.28748e-06 0
0.000469392 8.40251e-06 0
0.000469392 8.40251e-06 0
0.000453027 8.50653e-06 0
0.000453027 8.50653e-06 0
0.000436419 8.59742e-06 0
0.000436419 8.59742e-06 0
0.000419582 8.67335e-06 0
0.000419582 8.67335e-06 0
0.00040253 8.73204e-06 0
0.00040253 8.73204e-06 0
0.000385281 8.77031e-06 0
0.000385281 8.77031e-06 0
0.00036786 8.78455e-06 0
0.00036786 8.78455e-06 0
0.000350292 8.77219e-06 0
0.000350292 8.77219e-06 0
0.000332609 8.73036e-06 0
0.000332609 8.73036e-06 0
0.000314846 8.65492e-06 0
0.000314846 8.65492e-06 0
0.000297045 8.54193e-06 0
0.000297045 8.54193e-06 0
0.000279254 8.38797e-06 0
0.000279254 8.38797e-06 0
0.000261525 8.18989e-06 0
0.000261525 8.18989e-06 0
0.000243915 7.94517e-06 0
0.000243915 7.94517e-06 0
0.000226485 7.6519e-06 0
0.000226485 7.6519e-06 0
0.000209303 7.30876e-06 0
0.000209303 7.30876e-06 0
0.000192438 6.91581e-06 0
0.000192438 6.91581e-06 0
0.000175958 6.47496e-06 0
0.000175958 6.47496e-06 0
0.000159934 5.9897e-06 0
0.000159934 5.9897e-06 0
0.000144432 5.46536e-06 0
0.000144432 5.46536e-06 0
0.000129513 4.90923e-06 0
0.000129513 4.90923e-06 0
0.00011523 4.33054e-06 0
0.00011523 4.33054e-06 0
0.000101625 3.74055e-06 0
0.000101625 3.74055e-06 0
8.87237e-05 3.15197e-06 0
8.87237e-05 3.15197e-06 0
7.65399e-05 2.57828e-06 0
7.65399e-05 2.57828e-06 0
6.50667e-05 2.03342e-06 0
6.50667e-05 2.03342e-06 0
5.42778e-05 1.53139e-06 0
5.42778e-05 1.53139e-06 0
4.41264e-05 1.08505e-06 0
4.41264e-05 1.08505e-06 0
3.45465e-05 7.05535e-07 0
3.45465e-05 7.05535e-07 0
2.54503e-05 4.00373e-07 0
2.54503e-05 4.00373e-07 0
1.67407e-05 1.68935e-07 0
1.67407e-05 1.68935e-07 0
8.2971e-06 3.1666e-08 0
8.2971e-06 3.1666e-08 0
4.12329e-06 -7.57765e-09 0
4.12329e-06 -7.57765e-09 0
7.4035e-06 8.38679e-06 0
7.4035e-06 8.38679e-06 0
1.14673e-05 2.96546e-05 0
1.14673e-05 2.96546e-05 0
1.20764e-05 5.43951e-05 0
1.20764e-05 5.43951e-05 0
1.15397e-05 7.799e-05 0
1.15397e-05 7.799e-05 0
1.08816e-05 0.000100542 0
1.08816e-05 0.000100542 0
1.0408e-05 0.000121743 0
1.0408e-05 0.000121743 0
1.01512e-05 0.000142285 0
1.01512e-05 0.000142285 0
1.00586e-05 0.000162533 0
1.00586e-05 0.000162533 0
1.00689e-05 0.000182711 0
1.00689e-05 0.000182711 0
1.01366e-05 0.000202973 0
1.01366e-05 0.000202973 0
1.02341e-05 0.000223406 0
1.02341e-05 0.000223406 0
1.03467e-05 0.000244053 0
1.03467e-05 0.000244053 0
1.04681e-05 0.000264935 0
1.04681e-05 0.000264935 0
1.05963e-05 0.000286066 0
1.05963e-05 0.000286066 0
1.07317e-05 0.000307459 0
1.07317e-05 0.000307459 0
1.08757e-05 0.00032913 0
1.08757e-05 0.00032913 0
1.10294e-05 0.000351097 0
1.10294e-05 0.000351097 0
1.11944e-05 0.000373381 0
1.11944e-05 0.000373381 0
1.13724e-05 0.000396008 0
1.13724e-05 0.000396008 0
1.15652e-05 0.000419004 0
1.15652e-05 0.000419004 0
1.17743e-05 0.0004424 0
1.17743e-05 0.0004424 0
1.20017e-05 0.000466231 0
1.20017e-05 0.000466231 0
1.22485e-05 0.000490534 0
1.22485e-05 0.000490534 0
1.25181e-05 0.000515352 0
1.25181e-05 0.000515352 0
1.28118e-05 0.00054073 0
1.28118e-05 0.00054073 0
1.31341e-05 0.000566724 0
1.31341e-05 0.000566724 0
1.34858e-05 0.000593387 0
1.34858e-05 0.000593387 0
1.38751e-05 0.000620791 0
1.38751e-05 0.000620791 0
1.43003e-05 0.000649 0
1.43003e-05 0.000649 0
1.47766e-05 0.000678115 0
1.47766e-05 0.000678115 0
1.52937e-05 0.000708207 0
1.52937e-05 0.000708207 0
1.58895e-05 0.000739425 0
1.58895e-05 0.000739425 0
1.65236e-05 0.000771837 0
1.65236e-05 0.000771837 0
1.72911e-05 0.000805684 0
1.72911e-05 0.000805684 0
1.8072e-05 0.000841007 0
1.8072e-05 0.000841007 0
1.91053e-05 0.000878219 0
1.91053e-05 0.000878219 0
2.0064e-05 0.000917273 0
2.0064e-05 0.000917273 0
2.15446e-05 0.000958918 0
2.15446e-05 0.000958918 0
2.26976e-05 0.0010029 0
2.26976e-05 0.0010029 0
2.49899e-05 0.00105061 0
2.49899e-05 0.00105061 0
2.63146e-05 0.00110138 0
2.63146e-05 0.00110138 0
3.02067e-05 0.00115782 0
3.02067e-05 0.00115782 0
3.15927e-05 0.00121852 0
3.15927e-05 0.00121852 0
3.89564e-05 0.00128855 0
3.89564e-05 0.00128855 0
4.03261e-05 0.00136572 0
4.03261e-05 0.00136572 0
5.66784e-05 0.00145965 0
5.66784e-05 0.00145965 0
5.97826e-05 0.00157038 0
5.97826e-05 0.00157038 0
0.000104431 0.00171489 0
0.000104431 0.00171489 0
0.000127106 0.00190788 0
0.000127106 0.00190788 0
7.31262e-05 0.00118612 0
7.31262e-05 0.00118612 0
-0.000416851 0.000180966 0
-0.000416851 0.000180966 0
-0.00065421 -6.28456e-05 0
-0.00065421 -6.28456e-05 0
-0.000603684 -0.000269856 0
-0.000603684 -0.000269856 0
-0.000308393 -0.000526554 0
-0.000308393 -0.000526554 0
0.000458021 -0.000531734 0
0.000458021 -0.000531734 0
0.000998138 -0.000316259 0
0.000998138 -0.000316259 0
0.00127234 -0.000126982 0
0.00127234 -0.000126982 0
0.00115829 4.31151e-05 0
0.00115829 4.31151e-05 0
0.000856979 0.000101799 0
0.000856979 0.000101799 0
0.000602514 3.20956e-05 0
0.000602514 3.20956e-05 0
0.000239557 0.000185369 0
0.000239557 0.000185369 0
-0.000467076 0.000459102 0
-0.000467076 0.000459102 0
-0.00124389 0.000514756 0
-0.00124389 0.000514756 0
-0.00189956 0.000458046 0
-0.00189956 0.000458046 0
-0.00243457 0.00038903 0
-0.00243457 0.00038903 0
-0.00283619 0.000313259 0
-0.00283619 0.000313259 0
-0.00310495 0.000239412 0
-0.00310495 0.000239412 0
-0.00324261 0.000172714 0
-0.00324261 0.000172714 0
-0.00326048 0.000118889 0
-0.00326048 0.000118889 0
-0.00317965 8.13726e-05 0
-0.00317965 8.13726e-05 0
-0.00301633 6.8159e-05 0
-0.00301633 6.8159e-05 0
-0.0027728 9.11183e-05 0
-0.0027728 9.11183e-05 0
-0.00248731 0.000153774 0
-0.00248731 0.000153774 0
-0.00242536 0.00026592 0
-0.00242536 0.00026592 0
-0.0013656 0.000812802 0
-0.0013656 0.000812802 0
-8.39481e-06 7.59318e-06 0
-8.39481e-06 7.59318e-06 0
-8.66942e-06 1.57545e-05 0
-8.66942e-06 1.57545e-05 0
-8.86745e-06 3.23028e-05 0
-8.86745e-06 3.23028e-05 0
-8.7936e-06 4.88457e-05 0
-8.7936e-06 4.88457e-05 0
-8.83044e-06 6.52794e-05 0
-8.83044e-06 6.52794e-05 0
-8.90928e-06 8.1934e-05 0
-8.90928e-06 8.1934e-05 0
-9.00568e-06 9.88025e-05 0
-9.00568e-06 9.88025e-05 0
-9.11424e-06 0.00011592 0
-9.11424e-06 0.00011592 0
-9.23232e-06 0.000133317 0
-9.23232e-06 0.000133317 0
-9.35695e-06 0.000151017 0
-9.35695e-06 0.000151017 0
-9.48374e-06 0.000169033 0
-9.48374e-06 0.000169033 0
-9.60762e-06 0.000187369 0
-9.60762e-06 0.000187369 0
-9.72284e-06 0.00020602 0
-9.72284e-06 0.00020602 0
-9.82238e-06 0.000224965 0
-9.82238e-06 0.000224965 0
-9.89784e-06 0.000244168 0
-9.89784e-06 0.000244168 0
-9.94074e-06 0.000263576 0
-9.94074e-06 0.000263576 0
-9.93933e-06 0.000283114 0
-9.93933e-06 0.000283114 0
-9.88251e-06 0.000302685 0
-9.88251e-06 0.000302685 0
-9.75731e-06 0.000322166 0
-9.75731e-06 0.000322166 0
-9.54819e-06 0.000341407 0
-9.54819e-06 0.000341407 0
-9.24423e-06 0.000360228 0
-9.24423e-06 0.000360228 0
-8.8318e-06 0.000378421 0
-8.8318e-06 0.000378421 0
-8.29405e-06 0.000395745 0
-8.29405e-06 0.000395745 0
-7.62018e-06 0.000411923 0
-7.62018e-06 0.000411923 0
-6.80287e-06 0.000426664 0
-6.80287e-06 0.000426664 0
-5.82809e-06 0.000439651 0
-5.82809e-06 0.000439651 0
-4.6832e-06 0.000450546 0
-4.6832e-06 0.000450546 0
-3.36573e-06 0.000458995 0
-3.36573e-06 0.000458995 0
-1.87415e-06 0.000464648 0
-1.87415e-06 0.000464648 0
-1.62251e-07 0.000467195 0
-1.62251e-07 0.000467195 0
1.81966e-06 0.000466241 0
1.81966e-06 0.000466241 0
4.04632e-06 0.000461374 0
4.04632e-06 0.000461374 0
6.45913e-06 0.000452327 0
6.45913e-06 0.000452327 0
9.00743e-06 0.000438958 0
9.00743e-06 0.000438958 0
1.17033e-05 0.000420927 0
1.17033e-05 0.000420927 0
1.45054e-05 0.000398483 0
1.45054e-05 0.000398483 0
1.74276e-05 0.000370602 0
1.74276e-05 0.000370602 0
2.03518e-05 0.000339435 0
2.03518e-05 0.000339435 0
2.35046e-05 0.000300366 0
2.35046e-05 0.000300366 0
2.69916e-05 0.000261518 0
2.69916e-05 0.000261518 0
3.07874e-05 0.000209866 0
3.07874e-05 0.000209866 0
3.57654e-05 0.00016184 0
3.57654e-05 0.00016184 0
4.22728e-05 9.43955e-05 0
4.22728e-05 9.43955e-05 0
4.69041e-05 3.1946e-05 0
4.69041e-05 3.1946e-05 0
2.52257e-05 -5.30255e-05 0
2.52257e-05 -5.30255e-05 0
-2.80839e-05 -7.25629e-05 0
-2.80839e-05 -7.25629e-05 0
-0.000150984 -0.000105511 0
-0.000150984 -0.000105511 0
-0.00019346 0.000116825 0
-0.00019346 0.000116825 0
-0.000320021 0.000152193 0
-0.000320021 0.000152193 0
-0.000360025 0.000580798 0
-0.000360025 0.000580798 0
-1.57256e-05 7.41631e-06 0
-1.57256e-05 7.41631e-06 0
-3.06284e-05 7.31803e-06 0
-3.06284e-05 7.31803e-06 0
-4.59051e-05 7.39882e-06 0
-4.59051e-05 7.39882e-06 0
-6.11023e-05 7.38493e-06 0
-6.11023e-05 7.38493e-06 0
-7.61223e-05 7.3443e-06 0
-7.61223e-05 7.3443e-06 0
-9.09735e-05 7.2816e-06 0
-9.09735e-05 7.2816e-06 0
-0.000105552 7.18746e-06 0
-0.000105552 7.18746e-06 0
-0.000119834 7.05381e-06 0
-0.000119834 7.05381e-06 0
-0.000133708 6.87481e-06 0
-0.000133708 6.87481e-06 0
-0.000147123 6.64839e-06 0
-0.000147123 6.64839e-06 0
-0.000159966 6.37246e-06 0
-0.000159966 6.37246e-06 0
-0.000172152 6.042e-06 0
-0.000172152 6.042e-06 0
-0.000183568 5.65227e-06 0
-0.000183568 5.65227e-06 0
-0.000194113 5.20069e-06 0
-0.000194113 5.20069e-06 0
-0.000203676 4.68613e-06 0
-0.000203676 4.68613e-06 0
-0.000212153 4.10941e-06 0
-0.000212153 4.10941e-06 0
-0.000219439 3.47382e-06 0
-0.000219439 3.47382e-06 0
-0.000225438 2.78465e-06 0
-0.000225438 2.78465e-06 0
-0.00023006 2.04881e-06 0
-0.00023006 2.04881e-06 0
-0.00023323 1.27572e-06 0
-0.00023323 1.27572e-06 0
-0.000234875 4.80167e-07 0
-0.000234875 4.80167e-07 0
-0.000234948 -3.25163e-07 0
-0.000234948 -3.25163e-07 0
-0.000233435 -1.13021e-06 0
-0.000233435 -1.13021e-06 0
-0.000230324 -1.93177e-06 0
-0.000230324 -1.93177e-06 0
-0.000225605 -2.7309e-06 0
-0.000225605 -2.7309e-06 0
-0.000219287 -3.52187e-06 0
-0.000219287 -3.52187e-06 0
-0.000211395 -4.29765e-06 0
-0.000211395 -4.29765e-06 0
-0.000201967 -5.05087e-06 0
-0.000201967 -5.05087e-06 0
-0.000191055 -5.7744e-06 0
-0.000191055 -5.7744e-06 0
-0.000178725 -6.46179e-06 0
-0.000178725 -6.46179e-06 0
-0.000165059 -7.10729e-06 0
-0.000165059 -7.10729e-06 0
-0.000150143 -7.70607e-06 0
-0.000150143 -7.70607e-06 0
-0.000134078 -8.25457e-06 0
-0.000134078 -8.25457e-06 0
-0.000116967 -8.74971e-06 0
-0.000116967 -8.74971e-06 0
-9.89195e-05 -9.18986e-06 0
-9.89195e-05 -9.18986e-06 0
-8.00487e-05 -9.57449e-06 0
-8.00487e-05 -9.57449e-06 0
-6.04663e-05 -9.90301e-06 0
-6.04663e-05 -9.90301e-06 0
-4.02827e-05 -1.01769e-05 0
-4.02827e-05 -1.01769e-05 0
-1.95984e-05 -1.03984e-05 0
-1.95984e-05 -1.03984e-05 0
1.48882e-06 -1.05686e-05 0
1.48882e-06 -1.05686e-05 0
2.28669e-05 -1.06906e-05 0
2.28669e-05 -1.06906e-05 0
4.44298e-05 -1.07677e-05 0
4.44298e-05 -1.07677e-05 0
6.6096e-05 -1.08028e-05 0
6.6096e-05 -1.08028e-05 0
8.77931e-05 -1.07994e-05 0
8.77931e-05 -1.07994e-05 0
0.000109448 -1.0761e-05 0
0.000109448 -1.0761e-05 0
0.000130994 -1.06912e-05 0
0.000130994 -1.06912e-05 0
0.000152371 -1.05935e-05 0
0.000152371 -1.05935e-05 0
0.000173526 -1.04711e-05 0
0.000173526 -1.04711e-05 0
0.000194413 -1.03275e-05 0
0.000194413 -1.03275e-05 0
0.000214994 -1.01658e-05 0
0.000214994 -1.01658e-05 0
0.000235233 -9.98861e-06 0
0.000235233 -9.98861e-06 0
0.000255104 -9.79843e-06 0
0.000255104 -9.79843e-06 0
0.000274583 -9.5979e-06 0
0.000274583 -9.5979e-06 0
0.000293651 -9.38937e-06 0
0.000293651 -9.38937e-06 0
0.000312295 -9.17479e-06 0
0.000312295 -9.17479e-06 0
0.000330504 -8.95572e-06 0
0.000330504 -8.95572e-06 0
0.00034827 -8.73373e-06 0
0.00034827 -8.73373e-06 0
0.00036559 -8.51048e-06 0
0.00036559 -8.51048e-06 0
0.000382462 -8.28702e-06 0
0.000382462 -8.28702e-06 0
0.000398887 -8.06438e-06 0
0.000398887 -8.06438e-06 0
0.000414867 -7.84354e-06 0
0.000414867 -7.84354e-06 0
0.000430407 -7.62531e-06 0
0.000430407 -7.62531e-06 0
0.000445512 -7.4103e-06 0
0.000445512 -7.4103e-06 0
0.00046019 -7.19873e-06 0
0.00046019 -7.19873e-06 0
0.000474448 -6.99114e-06 0
0.000474448 -6.99114e-06 0
0.000488296 -6.7883e-06 0
0.000488296 -6.7883e-06 0
0.000501741 -6.59048e-06 0
0.000501741 -6.59048e-06 0
0.000514795 -6.3977e-06 0
0.000514795 -6.3977e-06 0
0.000527468 -6.21011e-06 0
0.000527468 -6.21011e-06 0
0.000539768 -6.02762e-06 0
0.000539768 -6.02762e-06 0
0.000551709 -5.85015e-06 0
0.000551709 -5.85015e-06 0
0.0005633 -5.67821e-06 0
0.0005633 -5.67821e-06 0
0.000574552 -5.51194e-06 0
0.000574552 -5.51194e-06 0
0.000585475 -5.351e-06 0
0.000585475 -5.351e-06 0
0.00059608 -5.19523e-06 0
0.00059608 -5.19523e-06 0
0.000606379 -5.04474e-06 0
0.000606379 -5.04474e-06 0
0.000616381 -4.89943e-06 0
0.000616381 -4.89943e-06 0
0.000626097 -4.75917e-06 0
0.000626097 -4.75917e-06 0
0.000635537 -4.62373e-06 0
0.000635537 -4.62373e-06 0
0.000644709 -4.49307e-06 0
0.000644709 -4.49307e-06 0
0.000653625 -4.36731e-06 0
0.000653625 -4.36731e-06 0
0.000662292 -4.24635e-06 0
0.000662292 -4.24635e-06 0
0.000670722 -4.1298e-06 0
0.000670722 -4.1298e-06 0
0.00067892 -4.0175e-06 0
0.00067892 -4.0175e-06 0
0.000686901 -3.90939e-06 0
0.000686901 -3.90939e-06 0
0.000694664 -3.80554e-06 0
0.000694664 -3.80554e-06 0
0.00070223 -3.70572e-06 0
0.00070223 -3.70572e-06 0
0.000709588 -3.60997e-06 0
0.000709588 -3.60997e-06 0
0.000716775 -3.51776e-06 0
0.000716775 -3.51776e-06 0
0.000723753 -3.42942e-06 0
0.000723753 -3.42942e-06 0
0.0007306 -3.34411e-06 0
0.0007306 -3.34411e-06 0
0.000737213 -3.26323e-06 0
0.000737213 -3.26323e-06 0
0.000743769 -3.18479e-06 0
0.000743769 -3.18479e-06 0
0.000750011 -3.11098e-06 0
0.000750011 -3.11098e-06 0
0.000756352 -3.03758e-06 0
0.000756352 -3.03758e-06 0
0.000762174 -2.97107e-06 0
0.000762174 -2.97107e-06 0
0.000768434 -2.90206e-06 0
0.000768434 -2.90206e-06 0
0.000773684 -2.84464e-06 0
0.000773684 -2.84464e-06 0
0.982168 -0.00340765 0
0.982168 -0.00340765 0
1.96356 -0.00681247 0
1.96356 -0.00681247 0
