/*--------------------------------*- C++ -*----------------------------------*\
| =========                 |                                                 |
| \\      /  F ield         | OpenFOAM: The Open Source CFD Toolbox           |
|  \\    /   O peration     | Version:  4.1                                   |
|   \\  /    A nd           | Web:      www.OpenFOAM.org                      |
|    \\/     M anipulation  |                                                 |
\*---------------------------------------------------------------------------*/
FoamFile
{
    version     2.0;
    format      ascii;
    class       surfaceScalarField;
    location    "0.45";
    object      phi;
}
// * * * * * * * * * * * * * * * * * * * * * * * * * * * * * * * * * * * * * //

dimensions      [0 3 -1 0 0 0 0];

internalField   nonuniform List<scalar> 
87025
(
0.019963
3.70226e-05
0.0199034
5.95285e-05
0.0198311
7.23115e-05
0.0197478
8.33793e-05
0.0196539
9.38197e-05
0.0195504
0.000103525
0.0194378
0.000112606
0.0193165
0.000121332
0.0191866
0.000129901
0.0190482
0.000138401
0.0189013
0.000146879
0.0187459
0.000155383
0.018582
0.000163961
0.0184093
0.00017266
0.0182278
0.000181523
0.0180372
0.00019059
0.0178373
0.000199905
0.0176278
0.000209513
0.0174083
0.000219463
0.0171785
0.000229808
0.0169379
0.000240604
0.016686
0.000251916
0.0164222
0.000263812
0.0161458
0.00027637
0.0158561
0.000289674
0.0155523
0.000303818
0.0152334
0.000318903
0.0148984
0.000335038
0.014546
0.000352341
0.0141751
0.000370932
0.0137841
0.000390932
0.0133717
0.000412456
0.0129361
0.000435603
0.0124756
0.000460444
0.0119886
0.000487002
0.0114734
0.000515233
0.0109284
0.000544997
0.0103524
0.000576021
0.00974453
0.000607865
0.00910464
0.000639884
0.00843345
0.000671196
0.00773279
0.000700662
0.0070059
0.000726888
0.00625765
0.000748252
0.00549466
0.000762983
0.00472539
0.000769276
0.00395992
0.000765464
0.00320969
0.000750228
0.00248684
0.00072285
0.00180338
0.000683461
0.00117011
0.000633269
0.000595466
0.000574649
8.44342e-05
0.000511031
-0.000363021
0.000447456
-0.000751728
0.000388707
-0.0010895
0.000337775
-0.00138575
0.000296242
-0.00164878
0.000263039
-0.00188447
0.000235681
-0.00209654
0.000212074
-0.00228778
0.000191242
-0.002461
0.000173214
-0.00261914
0.00015814
-0.00276686
0.000147728
-0.00291036
0.000143494
-0.00305115
0.00014079
-0.00317626
0.000125114
-0.00325452
7.82528e-05
-0.00324111
-1.34072e-05
-0.00313287
-0.000108241
-0.00294601
-0.000186855
-0.00270987
-0.000236146
-0.00246287
-0.000247
-0.00225042
-0.000212447
-0.00213997
-0.000110445
-0.00220484
6.48693e-05
-0.00247939
0.000274542
-0.00297818
0.000498798
-0.00367668
0.000698491
-0.00452413
0.000847458
-0.00545691
0.000932777
-0.00641066
0.000953749
-0.00732658
0.000915915
-0.00815565
0.000829076
-0.00886098
0.000705327
-0.00941455
0.00055357
-0.00979385
0.000379297
-0.00998144
0.000187591
-0.00996058
-2.08613e-05
-0.00977053
-0.000190046
-0.00939938
-0.000371151
-0.00883082
-0.000568563
-0.00804411
-0.00078671
-0.00701653
-0.00102758
-0.00573024
-0.00128629
-0.00418665
-0.00154358
-0.00245848
-0.00172817
-0.000812317
-0.00164616
0.000206987
-0.0010193
0.000206987
0.0200267
1.03586e-05
0.0200565
2.97341e-05
0.0200854
4.33591e-05
0.0201136
5.51715e-05
0.0201405
6.69025e-05
0.0201655
7.85244e-05
0.0201882
8.99174e-05
0.0202083
0.000101227
0.0202256
0.000112636
0.0202398
0.000124242
0.0202505
0.000136094
0.0202577
0.000148238
0.0202609
0.000160728
0.02026
0.000173616
0.0202545
0.000186955
0.0202443
0.000200797
0.020229
0.000215203
0.0202083
0.000230237
0.0201818
0.000245972
0.0201491
0.000262489
0.0201098
0.000279881
0.0200635
0.000298253
0.0200096
0.000317724
0.0199475
0.000338432
0.0198767
0.000360532
0.0197963
0.000384205
0.0197055
0.000409655
0.0196034
0.000437113
0.0194889
0.000466842
0.0193607
0.000499135
0.0192174
0.000534318
0.0190571
0.000572745
0.0188779
0.000614793
0.0186775
0.000660856
0.0184531
0.000711319
0.0182018
0.000766543
0.01792
0.000826817
0.0176037
0.000892314
0.0172486
0.000963021
0.0168498
0.00103867
0.0164024
0.00111862
0.0159012
0.00120181
0.0153414
0.00128665
0.0147187
0.00137095
0.0140298
0.00145194
0.0132728
0.0015263
0.0124479
0.00159035
0.0115579
0.00164022
0.0106085
0.00167223
0.00960876
0.0016832
0.00857122
0.00167081
0.00751187
0.00163399
0.00644968
0.00157322
0.00540638
0.00149076
0.00440489
0.0013902
0.003466
0.00127667
0.00260561
0.00115663
0.00183181
0.00103683
0.00114425
0.00092325
0.00053616
0.00082016
-2.14082e-06
0.000729542
-0.000480502
0.000651575
-0.00090739
0.000585028
-0.00128899
0.000529327
-0.00162832
0.000482828
-0.0019252
0.000437665
-0.00217823
0.000378149
-0.00238919
0.000289209
-0.00257733
0.000174731
-0.00274683
6.12671e-05
-0.0029124
-2.1294e-05
-0.00309332
-5.52248e-05
-0.00333537
-4.94709e-06
-0.00366394
0.000116127
-0.00410376
0.000329369
-0.00465331
0.000614424
-0.00530992
0.000931152
-0.00603929
0.00122816
-0.00679258
0.00145178
-0.00751196
0.00156684
-0.00814695
0.00156777
-0.00866535
0.00147215
-0.00905722
0.00130778
-0.00933026
0.00110212
-0.00950203
0.000877097
-0.00959452
0.000646062
-0.00962843
0.000413207
-0.00961693
0.000176086
-0.00956166
-7.61284e-05
-0.00939823
-0.000353475
-0.00910243
-0.000666948
-0.0086535
-0.0010175
-0.00803372
-0.00140649
-0.00722643
-0.00183487
-0.00621287
-0.00229985
-0.00497708
-0.00277938
-0.00352567
-0.00317958
-0.00194734
-0.0032245
-0.000582752
-0.00238389
-0.000375765
0.0200001
1.02376e-05
0.0199988
3.106e-05
0.0199932
4.89138e-05
0.0199836
6.48577e-05
0.0199702
8.0271e-05
0.0199532
9.54727e-05
0.0199328
0.000110402
0.0199089
0.000125128
0.0198817
0.00013981
0.0198514
0.000154559
0.019818
0.000169441
0.0197817
0.000184502
0.0197427
0.000199798
0.0197009
0.000215383
0.0196566
0.000231313
0.0196097
0.000247645
0.0195605
0.00026444
0.0195089
0.000281764
0.0194552
0.000299691
0.0193994
0.000318305
0.0193416
0.000337699
0.0192819
0.00035798
0.0192203
0.000379268
0.019157
0.000401702
0.0190921
0.000425441
0.0190257
0.000450669
0.0189577
0.000477596
0.0188884
0.000506464
0.0188177
0.000537551
0.0187456
0.000571176
0.0186723
0.000607702
0.0185975
0.000647545
0.0185211
0.000691168
0.0184428
0.000739091
0.0183623
0.000791884
0.0182787
0.00085016
0.0181909
0.00091456
0.0180975
0.000985728
0.0179963
0.00106427
0.0178842
0.00115071
0.0177575
0.00124537
0.0176109
0.00134834
0.0174383
0.00145931
0.0172318
0.00157746
0.0169824
0.00170133
0.0166799
0.00182875
0.0163135
0.00195676
0.0158721
0.00208169
0.0153451
0.00219921
0.0147237
0.00230456
0.0140017
0.00239279
0.0131767
0.00245902
0.0122512
0.00249877
0.0112337
0.00250821
0.0101395
0.0024844
0.00899044
0.00242576
0.00781441
0.00233266
0.00664334
0.0022079
0.00550954
0.00205705
0.00444136
0.00188834
0.00345924
0.00171167
0.00257368
0.00153714
0.00178554
0.00137317
0.00108955
0.00122532
0.000477802
0.00109457
-6.01521e-05
0.000975619
-0.00053885
0.000856847
-0.00097614
0.0007265
-0.00138614
0.00058473
-0.00177512
0.000450243
-0.00214995
0.000353538
-0.00253632
0.000331146
-0.0029588
0.000417537
-0.00345989
0.000617212
-0.00404181
0.00091129
-0.00467897
0.00125159
-0.00532549
0.00157767
-0.00592858
0.00183125
-0.00644761
0.00197082
-0.00686609
0.00198532
-0.00719246
0.00189414
-0.00745248
0.00173217
-0.00767695
0.00153226
-0.00788951
0.00131468
-0.00809806
0.00108564
-0.00829333
0.000841325
-0.00845331
0.000573196
-0.00854888
0.000271647
-0.0085512
-7.38082e-05
-0.00844448
-0.000460188
-0.00821551
-0.000895921
-0.00785629
-0.00137671
-0.00736227
-0.00190051
-0.00673292
-0.00246422
-0.0059681
-0.00306467
-0.00505753
-0.00368995
-0.00396222
-0.00427489
-0.00261896
-0.00456776
-0.00108742
-0.00391542
-0.00146319
0.0199989
1.13607e-05
0.0199958
3.41193e-05
0.0199891
5.56019e-05
0.0199782
7.58017e-05
0.0199631
9.5392e-05
0.0199438
0.000114745
0.0199203
0.000133906
0.0198925
0.000152909
0.0198605
0.00017186
0.0198241
0.000190866
0.0197836
0.000209997
0.0197388
0.000229307
0.0196897
0.000248849
0.0196364
0.000268677
0.0195789
0.000288848
0.0195171
0.000309414
0.0194511
0.000330435
0.0193809
0.000351971
0.0193065
0.000374089
0.019228
0.000396863
0.0191453
0.000420374
0.0190586
0.000444715
0.0189679
0.000469988
0.0188732
0.000496308
0.0187749
0.000523807
0.0186729
0.000552634
0.0185676
0.000582957
0.018459
0.000614967
0.0183477
0.000648882
0.0182339
0.000684948
0.0181182
0.000723441
0.0180011
0.000764674
0.0178832
0.000808997
0.0177655
0.0008568
0.0176489
0.000908515
0.0175345
0.000964616
0.0174234
0.00102562
0.017317
0.00109209
0.0172167
0.0011646
0.0171237
0.00124376
0.0170388
0.00133019
0.0169627
0.00142448
0.0168949
0.00152714
0.0168338
0.00163856
0.0167762
0.00175895
0.0167167
0.00188817
0.0166478
0.00202573
0.0165589
0.00217055
0.0164372
0.00232093
0.0162673
0.00247439
0.0160325
0.00262762
0.0157151
0.00277645
0.015298
0.0029158
0.0147665
0.00303975
0.0141093
0.00314162
0.0133208
0.00321424
0.012403
0.00325045
0.011367
0.00324393
0.0102338
0.00319023
0.00903416
0.00308797
0.00780614
0.00293969
0.0065909
0.00275237
0.00542706
0.00253701
0.00434524
0.00230713
0.00336386
0.00207596
0.00248669
0.00185279
0.00170321
0.00164033
0.00099338
0.00143633
0.000337575
0.00124053
-0.000274808
0.00106263
-0.000847394
0.000926124
-0.00138589
0.000869647
-0.00190265
0.000934297
-0.00242092
0.00113547
-0.00295403
0.00144441
-0.00349314
0.0017907
-0.00400831
0.00209283
-0.00446632
0.00228926
-0.00485158
0.00235608
-0.00517373
0.00230747
-0.00545979
0.0021802
-0.00573871
0.00201109
-0.00602771
0.00182126
-0.00632647
0.00161344
-0.00661942
0.00137859
-0.00688294
0.00110485
-0.00709309
0.000783346
-0.0072308
0.000409354
-0.00728019
-2.44211e-05
-0.00723306
-0.000507311
-0.00707783
-0.00105115
-0.00680523
-0.00164932
-0.00641128
-0.00229445
-0.00590146
-0.00297405
-0.00529351
-0.00367262
-0.00460795
-0.00437551
-0.00382613
-0.00505671
-0.00281567
-0.00557822
-0.00138541
-0.00534568
-0.00284859
0.0199986
1.27602e-05
0.0199945
3.82574e-05
0.0199869
6.31675e-05
0.0199754
8.73041e-05
0.0199599
0.000110904
0.0199404
0.000134242
0.0199169
0.000157427
0.0198893
0.000180505
0.0198576
0.000203553
0.0198218
0.000226665
0.0197819
0.000249921
0.0197378
0.000273383
0.0196895
0.000297109
0.019637
0.000321159
0.0195803
0.000345593
0.0195192
0.000370472
0.0194538
0.000395859
0.019384
0.000421819
0.0193096
0.000448424
0.0192307
0.00047575
0.0191472
0.000503881
0.019059
0.000532908
0.0189661
0.000562932
0.0188683
0.000594065
0.0187657
0.00062643
0.0186582
0.000660164
0.0185457
0.000695417
0.0184283
0.000732357
0.0183061
0.000771167
0.0181789
0.00081205
0.0180472
0.000855226
0.0179109
0.000900932
0.0177705
0.000949426
0.0176263
0.00100098
0.0174789
0.00105588
0.0173291
0.00111443
0.0171778
0.00117692
0.0170262
0.00124368
0.0168758
0.001315
0.0167284
0.00139119
0.016586
0.00147256
0.0164511
0.00155941
0.0163262
0.00165204
0.016214
0.00175079
0.0161169
0.00185604
0.0160368
0.00196821
0.0159748
0.00208778
0.0159301
0.00221526
0.0158999
0.00235115
0.0158785
0.00249578
0.0158569
0.0026492
0.0158225
0.00281088
0.0157589
0.00297941
0.0156464
0.00315217
0.0154631
0.00332499
0.0151854
0.00349187
0.0147909
0.00364497
0.01426
0.00377482
0.0135794
0.00387089
0.0127447
0.00392261
0.0117638
0.00392068
0.0106575
0.00385864
0.00946005
0.00373445
0.00821558
0.0035516
0.00697214
0.00331939
0.00577315
0.00305178
0.00464857
0.00276492
0.00361047
0.00247442
0.00265653
0.00219448
0.00177939
0.00193976
0.000975798
0.00172972
0.000250704
0.00159474
-0.000388251
0.00157325
-0.000945127
0.00169235
-0.00143695
0.00193623
-0.00188485
0.00223859
-0.00229965
0.00250764
-0.00268141
0.00267102
-0.00303201
0.00270668
-0.00336225
0.00263771
-0.00368785
0.0025058
-0.00402032
0.00234355
-0.00436037
0.00216131
-0.00469777
0.00195083
-0.00501611
0.00169694
-0.00529877
0.00138751
-0.00553216
0.00101673
-0.00570525
0.000582448
-0.00581142
8.17493e-05
-0.00583609
-0.000482647
-0.00577152
-0.00111572
-0.0056061
-0.00181474
-0.00532979
-0.00257077
-0.00493951
-0.00336433
-0.00444841
-0.00416372
-0.00389183
-0.00493209
-0.00330113
-0.0056474
-0.00259514
-0.00628422
-0.00146567
-0.00647515
-0.00431427
0.0199984
1.43393e-05
0.0199937
4.29827e-05
0.0199856
7.12965e-05
0.0199737
9.9142e-05
0.019958
0.000126589
0.0199385
0.000153805
0.019915
0.000180904
0.0198876
0.000207947
0.0198561
0.000234996
0.0198207
0.000262131
0.0197811
0.000289428
0.0197376
0.000316953
0.0196899
0.000344766
0.0196381
0.000372931
0.0195822
0.00040151
0.0195221
0.000430568
0.0194578
0.000460173
0.0193892
0.000490394
0.0193164
0.000521307
0.0192391
0.000552992
0.0191575
0.000585538
0.0190713
0.000619039
0.0189807
0.000653598
0.0188854
0.00068933
0.0187855
0.000726358
0.0186808
0.000764818
0.0185714
0.000804859
0.0184571
0.000846642
0.0183379
0.000890341
0.0182138
0.000936146
0.0180848
0.000984257
0.0179508
0.00103489
0.017812
0.00108826
0.0176684
0.0011446
0.0175201
0.00120414
0.0173674
0.00126711
0.0172106
0.00133371
0.0170502
0.00140413
0.0168866
0.00147855
0.0167208
0.00155707
0.0165535
0.00163978
0.0163862
0.00172671
0.0162204
0.00181783
0.0160581
0.00191312
0.0159016
0.00201253
0.0157538
0.00211607
0.0156177
0.00222386
0.0154968
0.00233618
0.0153943
0.00245357
0.0153133
0.00257683
0.0152554
0.00270707
0.0152207
0.00284562
0.0152063
0.00299383
0.0152056
0.00315281
0.0152076
0.00332301
0.0151958
0.00350363
0.0151487
0.00369209
0.01504
0.00388349
0.0148407
0.00407025
0.0145212
0.00424212
0.0140553
0.00438655
0.0134243
0.00448967
0.0126209
0.0045378
0.0116531
0.00451939
0.0105452
0.00442728
0.0093363
0.00426074
0.00807439
0.00402682
0.00680828
0.00374053
0.0055793
0.00342346
0.0044175
0.00310156
0.00334371
0.00280351
0.00237685
0.0025616
0.00153816
0.00241194
0.000844191
0.00238632
0.000289863
0.00249056
-0.000156264
0.00268472
-0.000538722
0.00289009
-0.000894763
0.00302706
-0.00124546
0.00305738
-0.00159888
0.00299114
-0.00195624
0.00286316
-0.00231507
0.00270238
-0.00266939
0.00251563
-0.0030106
0.00229204
-0.00332929
0.00201562
-0.00361699
0.00167521
-0.0038664
0.00126615
-0.0040708
0.000786839
-0.00422462
0.000235576
-0.00431771
-0.000389561
-0.00434189
-0.00109154
-0.00428645
-0.00187017
-0.00413894
-0.00271828
-0.00388789
-0.00361538
-0.00353075
-0.00452086
-0.00308817
-0.00537467
-0.00261079
-0.00612478
-0.00211366
-0.00678135
-0.00134681
-0.007242
-0.00566107
0.0199983
1.60135e-05
0.0199933
4.79844e-05
0.0199849
7.97417e-05
0.0199728
0.000111211
0.019957
0.000142412
0.0199374
0.000173441
0.0199139
0.000204389
0.0198865
0.00023532
0.0198552
0.000266293
0.01982
0.000297377
0.0197807
0.000328643
0.0197375
0.000360157
0.0196903
0.000391984
0.0196391
0.000424185
0.0195837
0.000456828
0.0195243
0.000489978
0.0194608
0.000523706
0.0193931
0.000558084
0.0193212
0.00059319
0.0192451
0.000629106
0.0191647
0.00066592
0.01908
0.000703727
0.018991
0.000742633
0.0188976
0.000782747
0.0187998
0.000824193
0.0186975
0.000867103
0.0185907
0.00091162
0.0184795
0.000957898
0.0183637
0.0010061
0.0182434
0.00105641
0.0181187
0.00110902
0.0179894
0.00116411
0.0178558
0.00122189
0.0177178
0.00128258
0.0175756
0.00134637
0.0174293
0.00141346
0.0172789
0.00148404
0.0171248
0.00155827
0.0169671
0.00163628
0.016806
0.00171814
0.0166419
0.00180389
0.0164751
0.0018935
0.0163061
0.00198686
0.0161354
0.00208381
0.0159638
0.00218411
0.0157923
0.00228751
0.0156225
0.00239373
0.0154561
0.00250256
0.0152957
0.00261392
0.0151446
0.00272792
0.0150067
0.002845
0.0148864
0.00296597
0.0147881
0.00309206
0.014716
0.00322495
0.0146724
0.00336666
0.0146567
0.00351927
0.0146642
0.00368458
0.0146842
0.00386353
0.014699
0.00405542
0.014684
0.00425712
0.0146082
0.00446234
0.0144367
0.00466122
0.0141341
0.00484033
0.0136699
0.0049836
0.0130233
0.00507386
0.0121887
0.00509538
0.0111786
0.0050369
0.0100244
0.0048947
0.00877286
0.00467505
0.0074795
0.00439492
0.00620189
0.00408111
0.00499501
0.00376848
0.00390947
0.00349748
0.00298718
0.00330861
0.00224884
0.0032289
0.00168035
0.00325322
0.00123404
0.0033364
0.000849823
0.00341128
0.000482
0.0034252
0.000110509
0.00336263
-0.000264342
0.00323801
-0.000633817
0.00307185
-0.000989969
0.00287178
-0.0013277
0.00262977
-0.00164375
0.00233167
-0.00193518
0.00196664
-0.00219847
0.00152944
-0.00242882
0.00101719
-0.00262168
0.000428431
-0.00277079
-0.000240452
-0.00286921
-0.000993124
-0.00290818
-0.0018312
-0.00287665
-0.00274981
-0.00276177
-0.00373027
-0.00255229
-0.00473033
-0.00224876
-0.00567819
-0.00188399
-0.00648955
-0.00152425
-0.0071411
-0.00107925
-0.007687
-0.00674032
0.0199983
1.77325e-05
0.0199931
5.31257e-05
0.0199845
8.83663e-05
0.0199723
0.000123424
0.0199564
0.000158309
0.0199368
0.000193078
0.0199134
0.000227804
0.0198861
0.000262548
0.019855
0.000297368
0.0198201
0.000332327
0.0197813
0.00036749
0.0197385
0.000402925
0.0196918
0.000438696
0.0196411
0.000474866
0.0195864
0.000511503
0.0195277
0.000548674
0.019465
0.000586451
0.0193982
0.000624908
0.0193272
0.000664122
0.0192521
0.000704176
0.0191729
0.000745159
0.0190895
0.000787164
0.0190018
0.000830294
0.0189099
0.000874657
0.0188137
0.000920372
0.0187133
0.000967563
0.0186085
0.00101637
0.0184995
0.00106693
0.0183862
0.0011194
0.0182687
0.00117395
0.0181469
0.00123074
0.0180211
0.00128995
0.0178912
0.00135177
0.0177574
0.00141637
0.0176198
0.00148395
0.0174786
0.00155467
0.017334
0.0016287
0.0171861
0.00170617
0.0170351
0.00178721
0.0168814
0.0018719
0.016725
0.00196027
0.0165662
0.00205231
0.0164051
0.00214796
0.0162418
0.00224706
0.0160765
0.00234943
0.0159092
0.00245481
0.0157401
0.00256288
0.0155693
0.00267331
0.0153975
0.00278576
0.0152255
0.0028999
0.0150549
0.00301555
0.0148883
0.00313265
0.0147289
0.00325144
0.0145813
0.00337251
0.0144511
0.0034969
0.0143441
0.00362622
0.0142661
0.0037626
0.014221
0.00390863
0.0142094
0.00406705
0.0142263
0.00424021
0.0142594
0.00442922
0.0142877
0.00463292
0.0142813
0.00484678
0.0142029
0.00506198
0.0140116
0.00526517
0.0136678
0.00543911
0.0131403
0.00556445
0.0124124
0.00562261
0.011488
0.00559945
0.010394
0.00548889
0.00917943
0.0052957
0.00791069
0.00503722
0.00666469
0.00474348
0.00551862
0.00445468
0.00453451
0.00421301
0.0037406
0.00404712
0.00312098
0.00395602
0.00262509
0.00390718
0.00219496
0.00385533
0.00179036
0.00376723
0.00139629
0.00363208
0.00101469
0.00345345
0.000651788
0.00323469
0.000310623
0.00297093
-9.23753e-06
0.00265154
-0.000308421
0.00226582
-0.000585685
0.00180671
-0.000839316
0.00127082
-0.00106563
0.000654749
-0.00126067
-4.54174e-05
-0.00141934
-0.000834452
-0.00153513
-0.00171541
-0.0015995
-0.00268544
-0.00160218
-0.00372758
-0.00153236
-0.00480015
-0.00138268
-0.00582788
-0.00116263
-0.0067096
-0.000929753
-0.00737398
-0.000734033
-0.00788272
-0.00747435
0.0199983
1.9472e-05
0.0199931
5.83326e-05
0.0199843
9.7074e-05
0.0199721
0.000135694
0.0199562
0.000174207
0.0199366
0.000212655
0.0199133
0.000251096
0.0198863
0.000289587
0.0198555
0.000328184
0.0198208
0.000366948
0.0197824
0.000405941
0.0197401
0.000445228
0.0196939
0.000484872
0.0196438
0.000524939
0.0195898
0.000565496
0.0195319
0.000606612
0.01947
0.000648357
0.0194041
0.000690807
0.0193342
0.00073404
0.0192602
0.000778138
0.0191822
0.000823189
0.0191001
0.000869285
0.0190138
0.000916526
0.0189235
0.000965017
0.018829
0.00101487
0.0187303
0.00106621
0.0186275
0.00111915
0.0185206
0.00117384
0.0184096
0.00123041
0.0182945
0.00128902
0.0181755
0.00134982
0.0180525
0.00141295
0.0179256
0.0014786
0.0177951
0.00154691
0.017661
0.00161804
0.0175235
0.00169214
0.0173829
0.00176934
0.0172393
0.00184978
0.017093
0.00193353
0.0169442
0.00202068
0.0167932
0.00211126
0.0166402
0.00220528
0.0164855
0.00230268
0.0163292
0.00240338
0.0161714
0.00250726
0.016012
0.00261413
0.0158512
0.00272378
0.0156885
0.00283595
0.0155239
0.00295035
0.0153572
0.00306665
0.0151882
0.00318453
0.0150172
0.00330365
0.0148449
0.00342372
0.0146729
0.00354455
0.0145037
0.00366612
0.0143412
0.0037887
0.0141907
0.00391304
0.0140589
0.00404044
0.013953
0.00417298
0.0138797
0.00431345
0.0138437
0.00446525
0.0138448
0.00463187
0.0138755
0.00481603
0.013919
0.00501848
0.0139477
0.00523653
0.013924
0.00546282
0.0138038
0.00568458
0.0135424
0.00588406
0.0131016
0.00604024
0.0124587
0.0061318
0.0116133
0.00614102
0.0105925
0.00605803
0.0094511
0.00588491
0.008267
0.00563878
0.00712823
0.00535178
0.00611116
0.00506418
0.00525746
0.00480972
0.00456394
0.0046007
0.00399422
0.00442505
0.00350367
0.00425778
0.00305975
0.004076
0.00264742
0.00386579
0.00226273
0.00361937
0.00190439
0.00332928
0.00156986
0.00298606
0.00125582
0.00257986
0.000959976
0.00210256
0.000682564
0.00154823
0.000425272
0.000912041
0.000190762
0.000189093
-1.79029e-05
-0.000625787
-0.000196479
-0.00153684
-0.000340294
-0.00254162
-0.000443064
-0.00362481
-0.000498079
-0.00474514
-0.000500105
-0.00582585
-0.000449339
-0.00676036
-0.000374154
-0.00744916
-0.000363026
-0.00789385
-0.00783738
0.0199983
2.12174e-05
0.019993
6.35587e-05
0.0199843
0.000105799
0.019972
0.000147956
0.0199562
0.000190052
0.0199367
0.000232123
0.0199136
0.000274219
0.0198868
0.000316394
0.0198563
0.000358703
0.019822
0.000401204
0.019784
0.000443957
0.0197422
0.000487024
0.0196966
0.00053047
0.0196472
0.000574361
0.0195939
0.000618762
0.0195368
0.000663742
0.0194758
0.000709375
0.0194109
0.000755733
0.019342
0.000802895
0.0192692
0.000850942
0.0191924
0.00089996
0.0191117
0.000950041
0.0190269
0.00100128
0.0189381
0.00105378
0.0188454
0.00110765
0.0187486
0.00116299
0.0186478
0.00121994
0.018543
0.00127861
0.0184343
0.00133913
0.0183217
0.00140164
0.0182052
0.00146628
0.018085
0.00153319
0.0179611
0.00160251
0.0178336
0.00167437
0.0177027
0.00174891
0.0175686
0.00182626
0.0174314
0.00190653
0.0172914
0.00198981
0.0171487
0.00207619
0.0170037
0.00216572
0.0168566
0.00225842
0.0167075
0.00235429
0.0165569
0.00245331
0.0164049
0.0025554
0.0162517
0.00266046
0.0160974
0.00276839
0.0159422
0.00287901
0.015786
0.00299217
0.0156286
0.00310768
0.01547
0.00322531
0.0153097
0.00334485
0.0151473
0.00346601
0.0149825
0.0035885
0.0148151
0.00371198
0.0146451
0.00383608
0.0144734
0.00396047
0.0143015
0.0040849
0.0141326
0.00420937
0.0139713
0.00433427
0.0138241
0.00446068
0.0136988
0.0045905
0.013604
0.00472668
0.0135469
0.00487312
0.0135311
0.00503428
0.0135533
0.00521434
0.0136004
0.00541576
0.0136474
0.00563758
0.0136578
0.00587366
0.0135866
0.00611144
0.0133864
0.00633197
0.0130161
0.00651136
0.0124501
0.00662404
0.0116874
0.00664753
0.010758
0.00656826
0.00972212
0.00638763
0.00866112
0.00612519
0.00765577
0.00581507
0.00676244
0.00549403
0.00600016
0.00518733
0.00535639
0.00490155
0.00480443
0.00462796
0.00431917
0.00435105
0.00388344
0.0040551
0.0034865
0.00372622
0.00312058
0.00335198
0.00277927
0.00292117
0.00245771
0.00242411
0.00215314
0.0018528
0.00186482
0.00120036
0.00159343
0.000460485
0.00134
-0.000372353
0.00110557
-0.00130241
0.000891609
-0.00232766
0.000699379
-0.00343258
0.000529622
-0.00457538
0.000382199
-0.00567843
0.000256046
-0.00663421
0.000144938
-0.00733806
1.21866e-05
-0.0077611
-0.00782519
0.0199983
2.29587e-05
0.019993
6.87734e-05
0.0199843
0.000114497
0.0199721
0.000160162
0.0199564
0.000205797
0.0199371
0.000251439
0.0199142
0.000297133
0.0198876
0.000342932
0.0198574
0.000388887
0.0198236
0.000435057
0.019786
0.0004815
0.0197448
0.000528278
0.0196998
0.000575455
0.0196511
0.000623094
0.0195986
0.000671262
0.0195423
0.00072003
0.0194822
0.000769466
0.0194183
0.000819647
0.0193505
0.000870648
0.0192789
0.00092255
0.0192034
0.000975437
0.0191241
0.0010294
0.0190408
0.00108452
0.0189537
0.00114091
0.0188627
0.00119867
0.0187678
0.0012579
0.018669
0.00131871
0.0185664
0.00138122
0.01846
0.00144556
0.0183498
0.00151183
0.0182359
0.00158017
0.0181184
0.0016507
0.0179973
0.00172354
0.0178729
0.00179882
0.0177452
0.00187665
0.0176143
0.00195714
0.0174804
0.00204038
0.0173438
0.00212645
0.0172046
0.00221541
0.017063
0.0023073
0.0169193
0.00240215
0.0167736
0.00249993
0.0166263
0.00260063
0.0164775
0.00270417
0.0163275
0.00281047
0.0161765
0.00291943
0.0160246
0.00303093
0.0158719
0.00314484
0.0157185
0.00326101
0.0155646
0.00337931
0.0154098
0.00349958
0.0152542
0.00362166
0.0150973
0.00374536
0.0149388
0.00387046
0.0147782
0.00399669
0.014615
0.00412369
0.0144489
0.00425104
0.0142799
0.0043783
0.0141092
0.00450504
0.0139388
0.00463105
0.0137728
0.00475647
0.0136173
0.00488216
0.0134805
0.00500996
0.0133718
0.00514294
0.0133007
0.00528549
0.0132735
0.00544295
0.0132904
0.00562068
0.0133416
0.00582247
0.0134047
0.00604831
0.0134446
0.00629209
0.0134161
0.00653987
0.0132706
0.00676958
0.0129652
0.00695289
0.0124739
0.00705954
0.0117975
0.00706408
0.0109689
0.0069537
0.0100497
0.0067343
0.00911361
0.00643013
0.00822549
0.00607545
0.00742524
0.0057018
0.00672503
0.00532817
0.00611759
0.00495849
0.00558734
0.00458535
0.00511798
0.00419558
0.00469543
0.00377453
0.00430829
0.00330832
0.00394774
0.00278466
0.00360749
0.00219305
0.00328351
0.00152434
0.00297347
0.000770525
0.00267551
-7.43902e-05
0.00238767
-0.00101458
0.00210697
-0.00204695
0.00182873
-0.00315434
0.00154683
-0.00429348
0.00125521
-0.00538681
0.000950566
-0.00632956
0.000632497
-0.00701999
0.000295272
-0.00742387
-0.00752992
0.0199983
2.4689e-05
0.0199931
7.3956e-05
0.0199844
0.000123137
0.0199723
0.000172275
0.0199567
0.000221405
0.0199376
0.000270566
0.0199149
0.000319802
0.0198887
0.000369163
0.0198589
0.000418702
0.0198255
0.000468475
0.0197884
0.00051854
0.0197477
0.000568958
0.0197034
0.000619792
0.0196554
0.000671105
0.0196037
0.000722965
0.0195483
0.000775439
0.0194892
0.000828598
0.0194263
0.000882515
0.0193597
0.000937266
0.0192893
0.000992929
0.0192151
0.00104959
0.0191372
0.00110733
0.0190555
0.00116623
0.01897
0.0012264
0.0188807
0.00128793
0.0187877
0.00135092
0.018691
0.00141548
0.0185905
0.0014817
0.0184863
0.00154971
0.0183785
0.00161961
0.0182672
0.00169151
0.0181524
0.00176553
0.0180341
0.00184177
0.0179126
0.00192035
0.0177879
0.00200135
0.0176602
0.00208488
0.0175295
0.002171
0.0173962
0.00225979
0.0172603
0.0023513
0.0171221
0.00244555
0.0169817
0.00254255
0.0168393
0.0026423
0.0166952
0.00274476
0.0165495
0.00284986
0.0164024
0.00295754
0.0162541
0.0030677
0.0161048
0.00318022
0.0159547
0.00329499
0.0158038
0.00341188
0.0156524
0.00353077
0.0155004
0.00365153
0.0153481
0.00377404
0.0151952
0.00389818
0.0150419
0.00402381
0.0148878
0.00415079
0.0147325
0.00427892
0.0145757
0.00440792
0.0144165
0.00453745
0.0142545
0.00466705
0.0140894
0.00479619
0.0139215
0.00492435
0.0137525
0.00505114
0.0135859
0.00517654
0.0134276
0.00530127
0.013286
0.00542713
0.0131715
0.00555736
0.0130955
0.00569676
0.0130666
0.0058513
0.0130879
0.00602703
0.0131519
0.00622806
0.0132379
0.00645387
0.013311
0.00669652
0.0133251
0.00693878
0.0132304
0.00715426
0.0129838
0.00731068
0.0125613
0.00737623
0.0119675
0.00732808
0.0112378
0.00715982
0.0104294
0.00688384
0.00960477
0.00652643
0.00881513
0.00611781
0.00809148
0.00568213
0.00744482
0.00523201
0.00687198
0.00476842
0.00636251
0.004284
0.00590376
0.00376706
0.0054837
0.00320472
0.00509218
0.00258456
0.00472114
0.00189539
0.00436411
0.00112755
0.00401588
0.000273834
0.00366969
-0.000668385
0.00331764
-0.0016949
0.00294863
-0.00278534
0.00255001
-0.00389485
0.00211093
-0.00494773
0.00162756
-0.0058462
0.00110542
-0.00649785
0.000554479
-0.00687293
-0.00697544
0.0199983
2.64034e-05
0.0199932
7.90911e-05
0.0199846
0.000131695
0.0199726
0.000184267
0.0199572
0.000236846
0.0199383
0.000289473
0.0199159
0.000342193
0.01989
0.000395057
0.0198606
0.000448116
0.0198276
0.000501426
0.0197911
0.000555045
0.019751
0.000609033
0.0197074
0.000663452
0.0196601
0.000718365
0.0196092
0.000773839
0.0195547
0.00082994
0.0194966
0.000886739
0.0194348
0.000944308
0.0193693
0.00100272
0.0193002
0.00106205
0.0192274
0.00112239
0.0191509
0.0011838
0.0190708
0.00124639
0.018987
0.00131023
0.0188995
0.00137543
0.0188083
0.00144206
0.0187136
0.00151024
0.0186152
0.00158006
0.0185133
0.00165162
0.0184079
0.00172502
0.018299
0.00180037
0.0181868
0.00187776
0.0180713
0.00195728
0.0179526
0.00203904
0.0178308
0.00212312
0.0177061
0.0022096
0.0175786
0.00229853
0.0174484
0.00238998
0.0173157
0.00248399
0.0171807
0.00258058
0.0170435
0.00267975
0.0169043
0.00278149
0.0167633
0.00288577
0.0166206
0.00299253
0.0164764
0.00310169
0.016331
0.00321318
0.0161843
0.00332688
0.0160366
0.00344269
0.015888
0.00356048
0.0157386
0.00368013
0.0155886
0.00380152
0.0154382
0.00392452
0.0152873
0.00404903
0.0151362
0.00417492
0.0149849
0.00430208
0.0148334
0.00443041
0.0146816
0.00455974
0.0145291
0.00468991
0.0143755
0.00482064
0.0142201
0.00495159
0.0140622
0.00508228
0.0139012
0.00521212
0.0137373
0.00534049
0.0135717
0.00546687
0.0134077
0.00559109
0.0132514
0.00571372
0.0131116
0.00583652
0.0130001
0.00596279
0.0129297
0.00609748
0.012911
0.00624669
0.0129487
0.00641625
0.0130359
0.00660929
0.0131515
0.00682319
0.013259
0.0070467
0.013311
0.00725867
0.0132577
0.00742961
0.0130589
0.00752686
0.0126963
0.00752241
0.0121795
0.00740061
0.0115437
0.00716224
0.0108388
0.00682274
0.0101154
0.00640555
0.00941356
0.00593381
0.00875782
0.00542416
0.00815773
0.00488409
0.00761204
0.00431275
0.00711339
0.00370338
0.0066518
0.00304615
0.00621683
0.00233036
0.00579824
0.00154615
0.00538584
0.000686235
0.00496793
-0.00025048
0.00453109
-0.00125806
0.00405808
-0.00231233
0.00353099
-0.00336776
0.00293643
-0.00435317
0.00227207
-0.00518184
0.00154945
-0.00577522
0.000786153
-0.00610964
-0.00618929
0.0199983
2.80981e-05
0.0199932
8.41677e-05
0.0199848
0.000140154
0.0199729
0.000196114
0.0199577
0.000252092
0.019939
0.000308133
0.0199169
0.000364281
0.0198914
0.000420586
0.0198624
0.000477102
0.01983
0.000533884
0.019794
0.000590989
0.0197546
0.000648476
0.0197116
0.000706407
0.0196651
0.000764846
0.0196151
0.000823857
0.0195615
0.000883507
0.0195044
0.000943864
0.0194437
0.001005
0.0193795
0.00106699
0.0193116
0.0011299
0.0192402
0.00119382
0.0191652
0.00125882
0.0190866
0.00132498
0.0190044
0.00139239
0.0189187
0.00146114
0.0188294
0.00153132
0.0187367
0.00160301
0.0186404
0.00167631
0.0185407
0.00175131
0.0184376
0.00182811
0.0183312
0.00190678
0.0182215
0.00198744
0.0181087
0.00207014
0.0179927
0.00215499
0.0178738
0.00224206
0.017752
0.0023314
0.0176274
0.00242309
0.0175003
0.00251715
0.0173706
0.00261363