# vtk DataFile Version 2.0
sampleSurface
ASCII
DATASET POLYDATA
POINTS 652 double
0 0 0
0.02 0 0
0.02 0 0.1
0 0 0.1
0.04 0 0
0.04 0 0.1
0.06 0 0
0.06 0 0.1
0.08 0 0
0.08 0 0.1
0.1 0 0
0.1 0 0.1
0.12 0 0
0.12 0 0.1
0.14 0 0
0.14 0 0.1
0.16 0 0
0.16 0 0.1
0.18 0 0
0.18 0 0.1
0.2 0 0
0.2 0 0.1
0.22 0 0
0.22 0 0.1
0.24 0 0
0.24 0 0.1
0.26 0 0
0.26 0 0.1
0.28 0 0
0.28 0 0.1
0.3 0 0
0.3 0 0.1
0.32 0 0
0.32 0 0.1
0.34 0 0
0.34 0 0.1
0.36 0 0
0.36 0 0.1
0.38 0 0
0.38 0 0.1
0.4 0 0
0.4 0 0.1
0.42 0 0
0.42 0 0.1
0.44 0 0
0.44 0 0.1
0.46 0 0
0.46 0 0.1
0.48 0 0
0.48 0 0.1
0.5 0 0
0.5 0 0.1
0.52 0 0
0.52 0 0.1
0.54 0 0
0.54 0 0.1
0.56 0 0
0.56 0 0.1
0.58 0 0
0.58 0 0.1
0.6 0 0
0.6 0 0.1
0.62 0 0
0.62 0 0.1
0.64 0 0
0.64 0 0.1
0.66 0 0
0.66 0 0.1
0.68 0 0
0.68 0 0.1
0.7 0 0
0.7 0 0.1
0.72 0 0
0.72 0 0.1
0.74 0 0
0.74 0 0.1
0.76 0 0
0.76 0 0.1
0.78 0 0
0.78 0 0.1
0.8 0 0
0.8 0 0.1
0.82 0 0
0.82 0 0.1
0.84 0 0
0.84 0 0.1
0.86 0 0
0.86 0 0.1
0.88 0 0
0.88 0 0.1
0.9 0 0
0.9 0 0.1
0.92 0 0
0.92 0 0.1
0.94 0 0
0.94 0 0.1
0.96 0 0
0.96 0 0.1
0.98 0 0
0.98 0 0.1
1 0 0
1 0 0.1
1.02 0 0
1.02 0 0.1
1.04 0 0
1.04 0 0.1
1.06 0 0
1.06 0 0.1
1.08 0 0
1.08 0 0.1
1.1 0 0
1.1 0 0.1
1.12 0 0
1.12 0 0.1
1.14 0 0
1.14 0 0.1
1.16 0 0
1.16 0 0.1
1.18 0 0
1.18 0 0.1
1.2 0 0
1.2 0 0.1
1.22 0 0
1.22 0 0.1
1.24 0 0
1.24 0 0.1
1.26 0 0
1.26 0 0.1
1.28 0 0
1.28 0 0.1
1.3 0 0
1.3 0 0.1
1.32 0 0
1.32 0 0.1
1.34 0 0
1.34 0 0.1
1.36 0 0
1.36 0 0.1
1.38 0 0
1.38 0 0.1
1.4 0 0
1.4 0 0.1
1.42 0 0
1.42 0 0.1
1.44 0 0
1.44 0 0.1
1.46 0 0
1.46 0 0.1
1.48 0 0
1.48 0 0.1
1.5 0 0
1.5 0 0.1
1.52 0 0
1.52 0 0.1
1.54 0 0
1.54 0 0.1
1.56 0 0
1.56 0 0.1
1.58 0 0
1.58 0 0.1
1.6 0 0
1.6 0 0.1
1.62 0 0
1.62 0 0.1
1.64 0 0
1.64 0 0.1
1.66 0 0
1.66 0 0.1
1.68 0 0
1.68 0 0.1
1.7 0 0
1.7 0 0.1
1.72 0 0
1.72 0 0.1
1.74 0 0
1.74 0 0.1
1.76 0 0
1.76 0 0.1
1.78 0 0
1.78 0 0.1
1.8 0 0
1.8 0 0.1
1.82 0 0
1.82 0 0.1
1.84 0 0
1.84 0 0.1
1.86 0 0
1.86 0 0.1
1.88 0 0
1.88 0 0.1
1.9 0 0
1.9 0 0.1
1.92 0 0
1.92 0 0.1
1.94 0 0
1.94 0 0.1
1.96 0 0
1.96 0 0.1
1.98 0 0
1.98 0 0.1
2 0 0
2 0 0.1
2 0.02 0
2 0.02 0.1
2 0.04 0
2 0.04 0.1
2 0.06 0
2 0.06 0.1
2 0.08 0
2 0.08 0.1
2 0.1 0
2 0.1 0.1
2 0.12 0
2 0.12 0.1
2 0.14 0
2 0.14 0.1
2 0.16 0
2 0.16 0.1
2 0.18 0
2 0.18 0.1
2 0.2 0
2 0.2 0.1
2 0.22 0
2 0.22 0.1
2 0.24 0
2 0.24 0.1
2 0.26 0
2 0.26 0.1
2 0.28 0
2 0.28 0.1
2 0.3 0
2 0.3 0.1
2 0.32 0
2 0.32 0.1
2 0.34 0
2 0.34 0.1
2 0.36 0
2 0.36 0.1
2 0.38 0
2 0.38 0.1
2 0.4 0
2 0.4 0.1
2 0.42 0
2 0.42 0.1
2 0.44 0
2 0.44 0.1
2 0.46 0
2 0.46 0.1
2 0.48 0
2 0.48 0.1
2 0.5 0
2 0.5 0.1
2 0.52 0
2 0.52 0.1
2 0.54 0
2 0.54 0.1
2 0.56 0
2 0.56 0.1
2 0.58 0
2 0.58 0.1
2 0.6 0
2 0.6 0.1
2 0.62 0
2 0.62 0.1
2 0.64 0
2 0.64 0.1
2 0.66 0
2 0.66 0.1
2 0.68 0
2 0.68 0.1
2 0.7 0
2 0.7 0.1
2 0.72 0
2 0.72 0.1
2 0.74 0
2 0.74 0.1
2 0.76 0
2 0.76 0.1
2 0.78 0
2 0.78 0.1
2 0.8 0
2 0.8 0.1
2 0.82 0
2 0.82 0.1
2 0.84 0
2 0.84 0.1
2 0.86 0
2 0.86 0.1
2 0.88 0
2 0.88 0.1
2 0.9 0
2 0.9 0.1
2 0.92 0
2 0.92 0.1
2 0.94 0
2 0.94 0.1
2 0.96 0
2 0.96 0.1
2 0.98 0
2 0.98 0.1
2 1 0
2 1 0.1
2.02 1 0
2.02 1 0.1
2.04 1 0
2.04 1 0.1
2.06 1 0
2.06 1 0.1
2.08 1 0
2.08 1 0.1
2.1 1 0
2.1 1 0.1
2.12 1 0
2.12 1 0.1
2.14 1 0
2.14 1 0.1
2.16 1 0
2.16 1 0.1
2.18 1 0
2.18 1 0.1
2.2 1 0
2.2 1 0.1
2.22 1 0
2.22 1 0.1
2.24 1 0
2.24 1 0.1
2.26 1 0
2.26 1 0.1
2.28 1 0
2.28 1 0.1
2.3 1 0
2.3 1 0.1
2.32 1 0
2.32 1 0.1
2.34 1 0
2.34 1 0.1
2.36 1 0
2.36 1 0.1
2.38 1 0
2.38 1 0.1
2.4 1 0
2.4 1 0.1
2.42 1 0
2.42 1 0.1
2.44 1 0
2.44 1 0.1
2.46 1 0
2.46 1 0.1
2.48 1 0
2.48 1 0.1
2.5 1 0
2.5 1 0.1
2.5 0 0
2.5 0 0.1
2.5 0.02 0.1
2.5 0.02 0
2.5 0.04 0.1
2.5 0.04 0
2.5 0.06 0.1
2.5 0.06 0
2.5 0.08 0.1
2.5 0.08 0
2.5 0.1 0.1
2.5 0.1 0
2.5 0.12 0.1
2.5 0.12 0
2.5 0.14 0.1
2.5 0.14 0
2.5 0.16 0.1
2.5 0.16 0
2.5 0.18 0.1
2.5 0.18 0
2.5 0.2 0.1
2.5 0.2 0
2.5 0.22 0.1
2.5 0.22 0
2.5 0.24 0.1
2.5 0.24 0
2.5 0.26 0.1
2.5 0.26 0
2.5 0.28 0.1
2.5 0.28 0
2.5 0.3 0.1
2.5 0.3 0
2.5 0.32 0.1
2.5 0.32 0
2.5 0.34 0.1
2.5 0.34 0
2.5 0.36 0.1
2.5 0.36 0
2.5 0.38 0.1
2.5 0.38 0
2.5 0.4 0.1
2.5 0.4 0
2.5 0.42 0.1
2.5 0.42 0
2.5 0.44 0.1
2.5 0.44 0
2.5 0.46 0.1
2.5 0.46 0
2.5 0.48 0.1
2.5 0.48 0
2.5 0.5 0.1
2.5 0.5 0
2.5 0.52 0.1
2.5 0.52 0
2.5 0.54 0.1
2.5 0.54 0
2.5 0.56 0.1
2.5 0.56 0
2.5 0.58 0.1
2.5 0.58 0
2.5 0.6 0.1
2.5 0.6 0
2.5 0.62 0.1
2.5 0.62 0
2.5 0.64 0.1
2.5 0.64 0
2.5 0.66 0.1
2.5 0.66 0
2.5 0.68 0.1
2.5 0.68 0
2.5 0.7 0.1
2.5 0.7 0
2.5 0.72 0.1
2.5 0.72 0
2.5 0.74 0.1
2.5 0.74 0
2.5 0.76 0.1
2.5 0.76 0
2.5 0.78 0.1
2.5 0.78 0
2.5 0.8 0.1
2.5 0.8 0
2.5 0.82 0.1
2.5 0.82 0
2.5 0.84 0.1
2.5 0.84 0
2.5 0.86 0.1
2.5 0.86 0
2.5 0.88 0.1
2.5 0.88 0
2.5 0.9 0.1
2.5 0.9 0
2.5 0.92 0.1
2.5 0.92 0
2.5 0.94 0.1
2.5 0.94 0
2.5 0.96 0.1
2.5 0.96 0
2.5 0.98 0.1
2.5 0.98 0
2.52 0 0
2.52 0 0.1
2.54 0 0
2.54 0 0.1
2.56 0 0
2.56 0 0.1
2.58 0 0
2.58 0 0.1
2.6 0 0
2.6 0 0.1
2.62 0 0
2.62 0 0.1
2.64 0 0
2.64 0 0.1
2.66 0 0
2.66 0 0.1
2.68 0 0
2.68 0 0.1
2.7 0 0
2.7 0 0.1
2.72 0 0
2.72 0 0.1
2.74 0 0
2.74 0 0.1
2.76 0 0
2.76 0 0.1
2.78 0 0
2.78 0 0.1
2.8 0 0
2.8 0 0.1
2.82 0 0
2.82 0 0.1
2.84 0 0
2.84 0 0.1
2.86 0 0
2.86 0 0.1
2.88 0 0
2.88 0 0.1
2.9 0 0
2.9 0 0.1
2.92 0 0
2.92 0 0.1
2.94 0 0
2.94 0 0.1
2.96 0 0
2.96 0 0.1
2.98 0 0
2.98 0 0.1
3 0 0
3 0 0.1
3.02 0 0
3.02 0 0.1
3.04 0 0
3.04 0 0.1
3.06 0 0
3.06 0 0.1
3.08 0 0
3.08 0 0.1
3.1 0 0
3.1 0 0.1
3.12 0 0
3.12 0 0.1
3.14 0 0
3.14 0 0.1
3.16 0 0
3.16 0 0.1
3.18 0 0
3.18 0 0.1
3.2 0 0
3.2 0 0.1
3.22 0 0
3.22 0 0.1
3.24 0 0
3.24 0 0.1
3.26 0 0
3.26 0 0.1
3.28 0 0
3.28 0 0.1
3.3 0 0
3.3 0 0.1
3.32 0 0
3.32 0 0.1
3.34 0 0
3.34 0 0.1
3.36 0 0
3.36 0 0.1
3.38 0 0
3.38 0 0.1
3.4 0 0
3.4 0 0.1
3.42 0 0
3.42 0 0.1
3.44 0 0
3.44 0 0.1
3.46 0 0
3.46 0 0.1
3.48 0 0
3.48 0 0.1
3.5 0 0
3.5 0 0.1
3.52 0 0
3.52 0 0.1
3.54 0 0
3.54 0 0.1
3.56 0 0
3.56 0 0.1
3.58 0 0
3.58 0 0.1
3.6 0 0
3.6 0 0.1
3.62 0 0
3.62 0 0.1
3.64 0 0
3.64 0 0.1
3.66 0 0
3.66 0 0.1
3.68 0 0
3.68 0 0.1
3.7 0 0
3.7 0 0.1
3.72 0 0
3.72 0 0.1
3.74 0 0
3.74 0 0.1
3.76 0 0
3.76 0 0.1
3.78 0 0
3.78 0 0.1
3.8 0 0
3.8 0 0.1
3.82 0 0
3.82 0 0.1
3.84 0 0
3.84 0 0.1
3.86 0 0
3.86 0 0.1
3.88 0 0
3.88 0 0.1
3.9 0 0
3.9 0 0.1
3.92 0 0
3.92 0 0.1
3.94 0 0
3.94 0 0.1
3.96 0 0
3.96 0 0.1
3.98 0 0
3.98 0 0.1
4 0 0
4 0 0.1
4.02 0 0
4.02 0 0.1
4.04 0 0
4.04 0 0.1
4.06 0 0
4.06 0 0.1
4.08 0 0
4.08 0 0.1
4.1 0 0
4.1 0 0.1
4.12 0 0
4.12 0 0.1
4.14 0 0
4.14 0 0.1
4.16 0 0
4.16 0 0.1
4.18 0 0
4.18 0 0.1
4.2 0 0
4.2 0 0.1
4.22 0 0
4.22 0 0.1
4.24 0 0
4.24 0 0.1
4.26 0 0
4.26 0 0.1
4.28 0 0
4.28 0 0.1
4.3 0 0
4.3 0 0.1
4.32 0 0
4.32 0 0.1
4.34 0 0
4.34 0 0.1
4.36 0 0
4.36 0 0.1
4.38 0 0
4.38 0 0.1
4.4 0 0
4.4 0 0.1
4.42 0 0
4.42 0 0.1
4.44 0 0
4.44 0 0.1
4.46 0 0
4.46 0 0.1
4.48 0 0
4.48 0 0.1
4.5 0 0
4.5 0 0.1

POLYGONS 325 1625
4 0 1 2 3
4 1 4 5 2
4 4 6 7 5
4 6 8 9 7
4 8 10 11 9
4 10 12 13 11
4 12 14 15 13
4 14 16 17 15
4 16 18 19 17
4 18 20 21 19
4 20 22 23 21
4 22 24 25 23
4 24 26 27 25
4 26 28 29 27
4 28 30 31 29
4 30 32 33 31
4 32 34 35 33
4 34 36 37 35
4 36 38 39 37
4 38 40 41 39
4 40 42 43 41
4 42 44 45 43
4 44 46 47 45
4 46 48 49 47
4 48 50 51 49
4 50 52 53 51
4 52 54 55 53
4 54 56 57 55
4 56 58 59 57
4 58 60 61 59
4 60 62 63 61
4 62 64 65 63
4 64 66 67 65
4 66 68 69 67
4 68 70 71 69
4 70 72 73 71
4 72 74 75 73
4 74 76 77 75
4 76 78 79 77
4 78 80 81 79
4 80 82 83 81
4 82 84 85 83
4 84 86 87 85
4 86 88 89 87
4 88 90 91 89
4 90 92 93 91
4 92 94 95 93
4 94 96 97 95
4 96 98 99 97
4 98 100 101 99
4 100 102 103 101
4 102 104 105 103
4 104 106 107 105
4 106 108 109 107
4 108 110 111 109
4 110 112 113 111
4 112 114 115 113
4 114 116 117 115
4 116 118 119 117
4 118 120 121 119
4 120 122 123 121
4 122 124 125 123
4 124 126 127 125
4 126 128 129 127
4 128 130 131 129
4 130 132 133 131
4 132 134 135 133
4 134 136 137 135
4 136 138 139 137
4 138 140 141 139
4 140 142 143 141
4 142 144 145 143
4 144 146 147 145
4 146 148 149 147
4 148 150 151 149
4 150 152 153 151
4 152 154 155 153
4 154 156 157 155
4 156 158 159 157
4 158 160 161 159
4 160 162 163 161
4 162 164 165 163
4 164 166 167 165
4 166 168 169 167
4 168 170 171 169
4 170 172 173 171
4 172 174 175 173
4 174 176 177 175
4 176 178 179 177
4 178 180 181 179
4 180 182 183 181
4 182 184 185 183
4 184 186 187 185
4 186 188 189 187
4 188 190 191 189
4 190 192 193 191
4 192 194 195 193
4 194 196 197 195
4 196 198 199 197
4 198 200 201 199
4 200 202 203 201
4 202 204 205 203
4 204 206 207 205
4 206 208 209 207
4 208 210 211 209
4 210 212 213 211
4 212 214 215 213
4 214 216 217 215
4 216 218 219 217
4 218 220 221 219
4 220 222 223 221
4 222 224 225 223
4 224 226 227 225
4 226 228 229 227
4 228 230 231 229
4 230 232 233 231
4 232 234 235 233
4 234 236 237 235
4 236 238 239 237
4 238 240 241 239
4 240 242 243 241
4 242 244 245 243
4 244 246 247 245
4 246 248 249 247
4 248 250 251 249
4 250 252 253 251
4 252 254 255 253
4 254 256 257 255
4 256 258 259 257
4 258 260 261 259
4 260 262 263 261
4 262 264 265 263
4 264 266 267 265
4 266 268 269 267
4 268 270 271 269
4 270 272 273 271
4 272 274 275 273
4 274 276 277 275
4 276 278 279 277
4 278 280 281 279
4 280 282 283 281
4 282 284 285 283
4 284 286 287 285
4 286 288 289 287
4 288 290 291 289
4 290 292 293 291
4 292 294 295 293
4 294 296 297 295
4 296 298 299 297
4 298 300 301 299
4 300 302 303 301
4 302 304 305 303
4 304 306 307 305
4 306 308 309 307
4 308 310 311 309
4 310 312 313 311
4 312 314 315 313
4 314 316 317 315
4 316 318 319 317
4 318 320 321 319
4 320 322 323 321
4 322 324 325 323
4 324 326 327 325
4 326 328 329 327
4 328 330 331 329
4 330 332 333 331
4 332 334 335 333
4 334 336 337 335
4 336 338 339 337
4 338 340 341 339
4 340 342 343 341
4 342 344 345 343
4 344 346 347 345
4 346 348 349 347
4 348 350 351 349
4 352 353 354 355
4 355 354 356 357
4 357 356 358 359
4 359 358 360 361
4 361 360 362 363
4 363 362 364 365
4 365 364 366 367
4 367 366 368 369
4 369 368 370 371
4 371 370 372 373
4 373 372 374 375
4 375 374 376 377
4 377 376 378 379
4 379 378 380 381
4 381 380 382 383
4 383 382 384 385
4 385 384 386 387
4 387 386 388 389
4 389 388 390 391
4 391 390 392 393
4 393 392 394 395
4 395 394 396 397
4 397 396 398 399
4 399 398 400 401
4 401 400 402 403
4 403 402 404 405
4 405 404 406 407
4 407 406 408 409
4 409 408 410 411
4 411 410 412 413
4 413 412 414 415
4 415 414 416 417
4 417 416 418 419
4 419 418 420 421
4 421 420 422 423
4 423 422 424 425
4 425 424 426 427
4 427 426 428 429
4 429 428 430 431
4 431 430 432 433
4 433 432 434 435
4 435 434 436 437
4 437 436 438 439
4 439 438 440 441
4 441 440 442 443
4 443 442 444 445
4 445 444 446 447
4 447 446 448 449
4 449 448 450 451
4 451 450 351 350
4 352 452 453 353
4 452 454 455 453
4 454 456 457 455
4 456 458 459 457
4 458 460 461 459
4 460 462 463 461
4 462 464 465 463
4 464 466 467 465
4 466 468 469 467
4 468 470 471 469
4 470 472 473 471
4 472 474 475 473
4 474 476 477 475
4 476 478 479 477
4 478 480 481 479
4 480 482 483 481
4 482 484 485 483
4 484 486 487 485
4 486 488 489 487
4 488 490 491 489
4 490 492 493 491
4 492 494 495 493
4 494 496 497 495
4 496 498 499 497
4 498 500 501 499
4 500 502 503 501
4 502 504 505 503
4 504 506 507 505
4 506 508 509 507
4 508 510 511 509
4 510 512 513 511
4 512 514 515 513
4 514 516 517 515
4 516 518 519 517
4 518 520 521 519
4 520 522 523 521
4 522 524 525 523
4 524 526 527 525
4 526 528 529 527
4 528 530 531 529
4 530 532 533 531
4 532 534 535 533
4 534 536 537 535
4 536 538 539 537
4 538 540 541 539
4 540 542 543 541
4 542 544 545 543
4 544 546 547 545
4 546 548 549 547
4 548 550 551 549
4 550 552 553 551
4 552 554 555 553
4 554 556 557 555
4 556 558 559 557
4 558 560 561 559
4 560 562 563 561
4 562 564 565 563
4 564 566 567 565
4 566 568 569 567
4 568 570 571 569
4 570 572 573 571
4 572 574 575 573
4 574 576 577 575
4 576 578 579 577
4 578 580 581 579
4 580 582 583 581
4 582 584 585 583
4 584 586 587 585
4 586 588 589 587
4 588 590 591 589
4 590 592 593 591
4 592 594 595 593
4 594 596 597 595
4 596 598 599 597
4 598 600 601 599
4 600 602 603 601
4 602 604 605 603
4 604 606 607 605
4 606 608 609 607
4 608 610 611 609
4 610 612 613 611
4 612 614 615 613
4 614 616 617 615
4 616 618 619 617
4 618 620 621 619
4 620 622 623 621
4 622 624 625 623
4 624 626 627 625
4 626 628 629 627
4 628 630 631 629
4 630 632 633 631
4 632 634 635 633
4 634 636 637 635
4 636 638 639 637
4 638 640 641 639
4 640 642 643 641
4 642 644 645 643
4 644 646 647 645
4 646 648 649 647
4 648 650 651 649
POINT_DATA 652
FIELD attributes 1
U 3 652 float
2.50586 0.0602871 -0.00621536
1.25343 0.030145 -0.00310768
1.25343 0.030145 -0.00310768
2.50586 0.0602871 -0.00621536
0.00100223 3.76568e-06 0
0.00100223 3.76568e-06 0
0.000998498 5.25037e-06 0
0.000998498 5.25037e-06 0
0.000993073 4.94815e-06 0
0.000993073 4.94815e-06 0
0.000989248 2.41031e-06 0
0.000989248 2.41031e-06 0
0.000988026 4.29625e-08 0
0.000988026 4.29625e-08 0
0.000988432 -4.63763e-07 0
0.000988432 -4.63763e-07 0
0.0009894 4.29479e-07 0
0.0009894 4.29479e-07 0
0.00099021 1.3398e-06 0
0.00099021 1.3398e-06 0
0.000990329 1.46791e-06 0
0.000990329 1.46791e-06 0
0.000989306 9.17823e-07 0
0.000989306 9.17823e-07 0
0.000986921 2.43233e-07 0
0.000986921 2.43233e-07 0
0.00098352 -6.92199e-08 0
0.00098352 -6.92199e-08 0
0.000980032 1.21084e-07 0
0.000980032 1.21084e-07 0
0.000977352 6.84929e-07 0
0.000977352 6.84929e-07 0
0.0009756 1.45231e-06 0
0.0009756 1.45231e-06 0
0.000973954 2.24149e-06 0
0.000973954 2.24149e-06 0
0.000971301 2.76739e-06 0
0.000971301 2.76739e-06 0
0.00096723 2.71822e-06 0
0.00096723 2.71822e-06 0
0.000962365 2.02651e-06 0
0.000962365 2.02651e-06 0
0.000957687 1.05164e-06 0
0.000957687 1.05164e-06 0
0.000953609 3.90699e-07 0
0.000953609 3.90699e-07 0
0.000949752 3.72001e-07 0
0.000949752 3.72001e-07 0
0.000945543 7.48487e-07 0
0.000945543 7.48487e-07 0
0.00094089 1.01031e-06 0
0.00094089 1.01031e-06 0
0.000936217 1.01594e-06 0
0.000936217 1.01594e-06 0
0.000931881 1.22e-06 0
0.000931881 1.22e-06 0
0.000927709 2.16841e-06 0
0.000927709 2.16841e-06 0
0.000923142 3.77342e-06 0
0.000923142 3.77342e-06 0
0.000917831 5.20296e-06 0
0.000917831 5.20296e-06 0
0.000911995 5.59263e-06 0
0.000911995 5.59263e-06 0
0.000906155 4.90381e-06 0
0.000906155 4.90381e-06 0
0.000900528 4.04867e-06 0
0.000900528 4.04867e-06 0
0.000894742 4.09682e-06 0
0.000894742 4.09682e-06 0
0.000888158 5.30536e-06 0
0.000888158 5.30536e-06 0
0.000880509 6.88352e-06 0
0.000880509 6.88352e-06 0
0.000872205 7.68627e-06 0
0.000872205 7.68627e-06 0
0.000864027 7.20439e-06 0
0.000864027 7.20439e-06 0
0.00085646 5.98327e-06 0
0.00085646 5.98327e-06 0
0.000849255 5.15668e-06 0
0.000849255 5.15668e-06 0
0.000841506 5.56652e-06 0
0.000841506 5.56652e-06 0
0.000832175 7.1866e-06 0
0.000832175 7.1866e-06 0
0.000820699 9.21978e-06 0
0.000820699 9.21978e-06 0
0.000807283 1.06997e-05 0
0.000807283 1.06997e-05 0
0.000792743 1.10836e-05 0
0.000792743 1.10836e-05 0
0.000778047 1.0442e-05 0
0.000778047 1.0442e-05 0
0.000763897 9.24682e-06 0
0.000763897 9.24682e-06 0
0.000750575 8.01369e-06 0
0.000750575 8.01369e-06 0
0.000738004 7.06461e-06 0
0.000738004 7.06461e-06 0
0.000725924 6.49176e-06 0
0.000725924 6.49176e-06 0
0.000714055 6.23676e-06 0
0.000714055 6.23676e-06 0
0.000702183 6.18753e-06 0
0.000702183 6.18753e-06 0
0.000690179 6.24564e-06 0
0.000690179 6.24564e-06 0
0.000677977 6.35117e-06 0
0.000677977 6.35117e-06 0
0.00066555 6.47353e-06 0
0.00066555 6.47353e-06 0
0.000652893 6.60052e-06 0
0.000652893 6.60052e-06 0
0.000640005 6.72871e-06 0
0.000640005 6.72871e-06 0
0.000626882 6.85738e-06 0
0.000626882 6.85738e-06 0
0.000613527 6.98694e-06 0
0.000613527 6.98694e-06 0
0.000599937 7.11613e-06 0
0.000599937 7.11613e-06 0
0.000586111 7.24419e-06 0
0.000586111 7.24419e-06 0
0.000572047 7.37116e-06 0
0.000572047 7.37116e-06 0
0.000557747 7.49566e-06 0
0.000557747 7.49566e-06 0
0.00054321 7.61647e-06 0
0.00054321 7.61647e-06 0
0.000528437 7.73375e-06 0
0.000528437 7.73375e-06 0
0.000513431 7.84636e-06 0
0.000513431 7.84636e-06 0
0.000498196 7.95157e-06 0
0.000498196 7.95157e-06 0
0.000482733 8.04763e-06 0
0.000482733 8.04763e-06 0
0.000467052 8.13468e-06 0
0.000467052 8.13468e-06 0
0.000451161 8.21176e-06 0
0.000451161 8.21176e-06 0
0.000435069 8.27643e-06 0
0.000435069 8.27643e-06 0
0.000418787 8.3268e-06 0
0.000418787 8.3268e-06 0
0.000402331 8.36047e-06 0
0.000402331 8.36047e-06 0
0.00038572 8.37612e-06 0
0.00038572 8.37612e-06 0
0.000368971 8.37211e-06 0
0.000368971 8.37211e-06 0
0.000352107 8.34528e-06 0
0.000352107 8.34528e-06 0
0.000335157 8.29344e-06 0
0.000335157 8.29344e-06 0
0.00031815 8.21453e-06 0
0.00031815 8.21453e-06 0
0.000301118 8.10634e-06 0
0.000301118 8.10634e-06 0
0.000284099 7.96707e-06 0
0.000284099 7.96707e-06 0
0.000267131 7.79537e-06 0
0.000267131 7.79537e-06 0
0.000250257 7.59003e-06 0
0.000250257 7.59003e-06 0
0.000233521 7.35051e-06 0
0.000233521 7.35051e-06 0
0.000216969 7.07713e-06 0
0.000216969 7.07713e-06 0
0.000200647 6.77125e-06 0
0.000200647 6.77125e-06 0
0.000184602 6.43536e-06 0
0.000184602 6.43536e-06 0
0.000168876 6.07304e-06 0
0.000168876 6.07304e-06 0
0.000153508 5.68899e-06 0
0.000153508 5.68899e-06 0
0.000138535 5.28943e-06 0
0.000138535 5.28943e-06 0
0.000123982 4.88152e-06 0
0.000123982 4.88152e-06 0
0.000109869 4.47343e-06 0
0.000109869 4.47343e-06 0
9.62044e-05 4.07428e-06 0
9.62044e-05 4.07428e-06 0
8.29843e-05 3.69357e-06 0
8.29843e-05 3.69357e-06 0
7.01927e-05 3.34091e-06 0
7.01927e-05 3.34091e-06 0
5.78005e-05 3.02534e-06 0
5.78005e-05 3.02534e-06 0
4.57665e-05 2.75522e-06 0
4.57665e-05 2.75522e-06 0
3.40357e-05 2.53665e-06 0
3.40357e-05 2.53665e-06 0
2.25476e-05 2.37e-06 0
2.25476e-05 2.37e-06 0
1.12251e-05 2.27206e-06 0
1.12251e-05 2.27206e-06 0
5.59315e-06 2.24488e-06 0
5.59315e-06 2.24488e-06 0
8.19327e-06 1.13276e-05 0
8.19327e-06 1.13276e-05 0
1.11478e-05 3.27597e-05 0
1.11478e-05 3.27597e-05 0
1.1238e-05 5.60356e-05 0
1.1238e-05 5.60356e-05 0
1.06907e-05 7.77923e-05 0
1.06907e-05 7.77923e-05 0
1.02346e-05 9.88215e-05 0
1.02346e-05 9.88215e-05 0
9.98799e-06 0.00011899 0
9.98799e-06 0.00011899 0
9.90274e-06 0.000138879 0
9.90274e-06 0.000138879 0
9.91246e-06 0.000158737 0
9.91246e-06 0.000158737 0
9.9706e-06 0.000178674 0
9.9706e-06 0.000178674 0
1.00521e-05 0.000198753 0
1.00521e-05 0.000198753 0
1.01455e-05 0.000219009 0
1.01455e-05 0.000219009 0
1.02468e-05 0.000239459 0
1.02468e-05 0.000239459 0
1.03556e-05 0.00026012 0
1.03556e-05 0.00026012 0
1.04725e-05 0.000281005 0
1.04725e-05 0.000281005 0
1.05987e-05 0.000302133 0
1.05987e-05 0.000302133 0
1.07353e-05 0.000323522 0
1.07353e-05 0.000323522 0
1.08835e-05 0.000345195 0
1.08835e-05 0.000345195 0
1.10447e-05 0.000367177 0
1.10447e-05 0.000367177 0
1.122e-05 0.000389495 0
1.122e-05 0.000389495 0
1.14108e-05 0.000412177 0
1.14108e-05 0.000412177 0
1.16182e-05 0.000435256 0
1.16182e-05 0.000435256 0
1.18446e-05 0.000458768 0
1.18446e-05 0.000458768 0
1.20914e-05 0.00048275 0
1.20914e-05 0.00048275 0
1.2361e-05 0.000507247 0
1.2361e-05 0.000507247 0
1.26546e-05 0.000532306 0
1.26546e-05 0.000532306 0
1.29789e-05 0.000557983 0
1.29789e-05 0.000557983 0
1.3332e-05 0.000584331 0
1.3332e-05 0.000584331 0
1.37237e-05 0.000611424 0
1.37237e-05 0.000611424 0
1.41513e-05 0.000639327 0
1.41513e-05 0.000639327 0
1.46316e-05 0.000668141 0
1.46316e-05 0.000668141 0
1.51523e-05 0.000697945 0
1.51523e-05 0.000697945 0
1.57535e-05 0.000728878 0
1.57535e-05 0.000728878 0
1.63982e-05 0.00076103 0
1.63982e-05 0.00076103 0
1.71672e-05 0.000794616 0
1.71672e-05 0.000794616 0
1.79704e-05 0.000829718 0
1.79704e-05 0.000829718 0
1.89983e-05 0.00086671 0
1.89983e-05 0.00086671 0
2.00033e-05 0.000905601 0
2.00033e-05 0.000905601 0
2.14646e-05 0.000947097 0
2.14646e-05 0.000947097 0
2.26968e-05 0.000990998 0
2.26968e-05 0.000990998 0
2.4967e-05 0.0010387 0
2.4967e-05 0.0010387 0
2.64075e-05 0.0010895 0
2.64075e-05 0.0010895 0
3.03334e-05 0.00114621 0
3.03334e-05 0.00114621 0
3.1815e-05 0.00120713 0
3.1815e-05 0.00120713 0
3.95061e-05 0.001278 0
3.95061e-05 0.001278 0
4.08453e-05 0.00135577 0
4.08453e-05 0.00135577 0
5.85323e-05 0.00145194 0
5.85323e-05 0.00145194 0
6.14742e-05 0.00156479 0
6.14742e-05 0.00156479 0
0.000111877 0.0017153 0
0.000111877 0.0017153 0
0.000134652 0.00191725 0
0.000134652 0.00191725 0
0.000150434 0.00123898 0
0.000150434 0.00123898 0
-0.000292719 0.000235335 0
-0.000292719 0.000235335 0
-0.000487379 2.36151e-05 0
-0.000487379 2.36151e-05 0
-0.000340669 -7.85957e-05 0
-0.000340669 -7.85957e-05 0
4.60377e-05 -0.00037787 0
4.60377e-05 -0.00037787 0
0.000816313 -0.000413538 0
0.000816313 -0.000413538 0
0.00107346 -0.000102668 0
0.00107346 -0.000102668 0
0.000904747 0.000120108 0
0.000904747 0.000120108 0
0.000541463 0.000127683 0
0.000541463 0.000127683 0
0.000123695 0.000189037 0
0.000123695 0.000189037 0
-0.00058808 0.000383908 0
-0.00058808 0.000383908 0
-0.00140397 0.000430489 0
-0.00140397 0.000430489 0
-0.00208921 0.000363486 0
-0.00208921 0.000363486 0
-0.00264801 0.000284357 0
-0.00264801 0.000284357 0
-0.00306782 0.000201647 0
-0.00306782 0.000201647 0
-0.00334746 0.000122091 0
-0.00334746 0.000122091 0
-0.0034877 4.75245e-05 0
-0.0034877 4.75245e-05 0
-0.00349714 -1.82861e-05 0
-0.00349714 -1.82861e-05 0
-0.00339489 -7.36335e-05 0
-0.00339489 -7.36335e-05 0
-0.00319822 -0.000117886 0
-0.00319822 -0.000117886 0
-0.0029241 -0.000149835 0
-0.0029241 -0.000149835 0
-0.00259296 -0.000167577 0
-0.00259296 -0.000167577 0
-0.0022163 -0.000168606 0
-0.0022163 -0.000168606 0
-0.00181593 -0.000149479 0
-0.00181593 -0.000149479 0
-0.00146482 -9.08173e-05 0
-0.00146482 -9.08173e-05 0
-0.000696594 0.000240883 0
-0.000696594 0.000240883 0
-7.37302e-06 6.65219e-06 0
-7.37302e-06 6.65219e-06 0
-7.5009e-06 1.34968e-05 0
-7.5009e-06 1.34968e-05 0
-7.61146e-06 2.73127e-05 0
-7.61146e-06 2.73127e-05 0
-7.63526e-06 4.12502e-05 0
-7.63526e-06 4.12502e-05 0
-7.73965e-06 5.53173e-05 0
-7.73965e-06 5.53173e-05 0
-7.88168e-06 6.96818e-05 0
-7.88168e-06 6.96818e-05 0
-8.05459e-06 8.44053e-05 0
-8.05459e-06 8.44053e-05 0
-8.25713e-06 9.95558e-05 0
-8.25713e-06 9.95558e-05 0
-8.48834e-06 0.000115201 0
-8.48834e-06 0.000115201 0
-8.74684e-06 0.000131405 0
-8.74684e-06 0.000131405 0
-9.0302e-06 0.000148229 0
-9.0302e-06 0.000148229 0
-9.33588e-06 0.000165728 0
-9.33588e-06 0.000165728 0
-9.66016e-06 0.000183951 0
-9.66016e-06 0.000183951 0
-9.99801e-06 0.000202936 0
-9.99801e-06 0.000202936 0
-1.03434e-05 0.000222713 0
-1.03434e-05 0.000222713 0
-1.06883e-05 0.000243291 0
-1.06883e-05 0.000243291 0
-1.10225e-05 0.000264666 0
-1.10225e-05 0.000264666 0
-1.13348e-05 0.000286803 0
-1.13348e-05 0.000286803 0
-1.16089e-05 0.00030965 0
-1.16089e-05 0.00030965 0
-1.18306e-05 0.000333113 0
-1.18306e-05 0.000333113 0
-1.19758e-05 0.00035707 0
-1.19758e-05 0.00035707 0
-1.2022e-05 0.000381348 0
-1.2022e-05 0.000381348 0
-1.19494e-05 0.000405723 0
-1.19494e-05 0.000405723 0
-1.17208e-05 0.00042993 0
-1.17208e-05 0.00042993 0
-1.13092e-05 0.000453619 0
-1.13092e-05 0.000453619 0
-1.06991e-05 0.000476382 0
-1.06991e-05 0.000476382 0
-9.85715e-06 0.000497784 0
-9.85715e-06 0.000497784 0
-8.73815e-06 0.000517288 0
-8.73815e-06 0.000517288 0
-7.3237e-06 0.000534313 0
-7.3237e-06 0.000534313 0
-5.62116e-06 0.000548231 0
-5.62116e-06 0.000548231 0
-3.61181e-06 0.000558455 0
-3.61181e-06 0.000558455 0
-1.22382e-06 0.000564323 0
-1.22382e-06 0.000564323 0
1.61665e-06 0.000565179 0
1.61665e-06 0.000565179 0
4.8828e-06 0.000560209 0
4.8828e-06 0.000560209 0
8.47857e-06 0.000548987 0
8.47857e-06 0.000548987 0
1.23411e-05 0.000531003 0
1.23411e-05 0.000531003 0
1.64893e-05 0.000505996 0
1.64893e-05 0.000505996 0
2.08991e-05 0.00047345 0
2.08991e-05 0.00047345 0
2.56338e-05 0.000433191 0
2.56338e-05 0.000433191 0
3.06428e-05 0.000385041 0
3.06428e-05 0.000385041 0
3.66079e-05 0.000327822 0
3.66079e-05 0.000327822 0
4.35934e-05 0.000262801 0
4.35934e-05 0.000262801 0
5.1724e-05 0.000182306 0
5.1724e-05 0.000182306 0
6.17734e-05 9.74348e-05 0
6.17734e-05 9.74348e-05 0
6.57968e-05 -7.51357e-06 0
6.57968e-05 -7.51357e-06 0
3.28948e-05 -9.85807e-05 0
3.28948e-05 -9.85807e-05 0
-6.21615e-05 -0.000155736 0
-6.21615e-05 -0.000155736 0
-0.000157285 -5.74938e-05 0
-0.000157285 -5.74938e-05 0
-0.000233027 6.03025e-05 0
-0.000233027 6.03025e-05 0
-0.000177265 0.000288069 0
-0.000177265 0.000288069 0
-1.34879e-05 6.38538e-06 0
-1.34879e-05 6.38538e-06 0
-2.58183e-05 6.18653e-06 0
-2.58183e-05 6.18653e-06 0
-3.84646e-05 6.23022e-06 0
-3.84646e-05 6.23022e-06 0
-5.10089e-05 6.14074e-06 0
-5.10089e-05 6.14074e-06 0
-6.32205e-05 5.99072e-06 0
-6.32205e-05 5.99072e-06 0
-7.50914e-05 5.80073e-06 0
-7.50914e-05 5.80073e-06 0
-8.64778e-05 5.5696e-06 0
-8.64778e-05 5.5696e-06 0
-9.73578e-05 5.29457e-06 0
-9.73578e-05 5.29457e-06 0
-0.000107597 4.97554e-06 0
-0.000107597 4.97554e-06 0
-0.000117144 4.61301e-06 0
-0.000117144 4.61301e-06 0
-0.000125886 4.20508e-06 0
-0.000125886 4.20508e-06 0
-0.000133749 3.75083e-06 0
-0.000133749 3.75083e-06 0
-0.000140639 3.2499e-06 0
-0.000140639 3.2499e-06 0
-0.000146478 2.7037e-06 0
-0.000146478 2.7037e-06 0
-0.000151188 2.115e-06 0
-0.000151188 2.115e-06 0
-0.000154698 1.48857e-06 0
-0.000154698 1.48857e-06 0
-0.000156946 8.31937e-07 0
-0.000156946 8.31937e-07 0
-0.000157878 1.56337e-07 0
-0.000157878 1.56337e-07 0
-0.000157463 -5.25546e-07 0
-0.000157463 -5.25546e-07 0
-0.000155689 -1.20862e-06 0
-0.000155689 -1.20862e-06 0
-0.000152547 -1.89179e-06 0
-0.000152547 -1.89179e-06 0
-0.000148035 -2.57175e-06 0
-0.000148035 -2.57175e-06 0
-0.000142164 -3.24343e-06 0
-0.000142164 -3.24343e-06 0
-0.000134959 -3.90055e-06 0
-0.000134959 -3.90055e-06 0
-0.000126454 -4.53792e-06 0
-0.000126454 -4.53792e-06 0
-0.000116693 -5.15004e-06 0
-0.000116693 -5.15004e-06 0
-0.000105735 -5.73195e-06 0
-0.000105735 -5.73195e-06 0
-9.36429e-05 -6.27947e-06 0
-9.36429e-05 -6.27947e-06 0
-8.0491e-05 -6.78891e-06 0
-8.0491e-05 -6.78891e-06 0
-6.6359e-05 -7.2576e-06 0
-6.6359e-05 -7.2576e-06 0
-5.1334e-05 -7.6832e-06 0
-5.1334e-05 -7.6832e-06 0
-3.55045e-05 -8.064e-06 0
-3.55045e-05 -8.064e-06 0
-1.89574e-05 -8.39998e-06 0
-1.89574e-05 -8.39998e-06 0
-1.76624e-06 -8.6909e-06 0
-1.76624e-06 -8.6909e-06 0
1.59814e-05 -8.93736e-06 0
1.59814e-05 -8.93736e-06 0
3.41709e-05 -9.14091e-06 0
3.41709e-05 -9.14091e-06 0
5.27104e-05 -9.30275e-06 0
5.27104e-05 -9.30275e-06 0
7.1527e-05 -9.42492e-06 0
7.1527e-05 -9.42492e-06 0
9.05445e-05 -9.50959e-06 0
9.05445e-05 -9.50959e-06 0
0.000109693 -9.55906e-06 0
0.000109693 -9.55906e-06 0
0.000128907 -9.57599e-06 0
0.000128907 -9.57599e-06 0
0.000148127 -9.56321e-06 0
0.000148127 -9.56321e-06 0
0.000167293 -9.52338e-06 0
0.000167293 -9.52338e-06 0
0.000186354 -9.45907e-06 0
0.000186354 -9.45907e-06 0
0.000205264 -9.37305e-06 0
0.000205264 -9.37305e-06 0
0.000223981 -9.26789e-06 0
0.000223981 -9.26789e-06 0
0.000242469 -9.14586e-06 0
0.000242469 -9.14586e-06 0
0.000260697 -9.00936e-06 0
0.000260697 -9.00936e-06 0
0.00027864 -8.86051e-06 0
0.00027864 -8.86051e-06 0
0.000296273 -8.70124e-06 0
0.000296273 -8.70124e-06 0
0.000313576 -8.53339e-06 0
0.000313576 -8.53339e-06 0
0.000330537 -8.35869e-06 0
0.000330537 -8.35869e-06 0
0.000347141 -8.17869e-06 0
0.000347141 -8.17869e-06 0
0.00036338 -7.99464e-06 0
0.00036338 -7.99464e-06 0
0.000379247 -7.80777e-06 0
0.000379247 -7.80777e-06 0
0.000394737 -7.61921e-06 0
0.000394737 -7.61921e-06 0
0.000409849 -7.42998e-06 0
0.000409849 -7.42998e-06 0
0.000424581 -7.24082e-06 0
0.000424581 -7.24082e-06 0
0.000438934 -7.05248e-06 0
0.000438934 -7.05248e-06 0
0.000452912 -6.86579e-06 0
0.000452912 -6.86579e-06 0
0.000466517 -6.68103e-06 0
0.000466517 -6.68103e-06 0
0.000479753 -6.49886e-06 0
0.000479753 -6.49886e-06 0
0.000492627 -6.31909e-06 0
0.000492627 -6.31909e-06 0
0.000505145 -6.14257e-06 0
0.000505145 -6.14257e-06 0
0.000517313 -5.97028e-06 0
0.000517313 -5.97028e-06 0
0.000529138 -5.80127e-06 0
0.000529138 -5.80127e-06 0
0.000540629 -5.63579e-06 0
0.000540629 -5.63579e-06 0
0.000551792 -5.47468e-06 0
0.000551792 -5.47468e-06 0
0.000562634 -5.31772e-06 0
0.000562634 -5.31772e-06 0
0.000573166 -5.16455e-06 0
0.000573166 -5.16455e-06 0
0.000583396 -5.01572e-06 0
0.000583396 -5.01572e-06 0
0.000593332 -4.87125e-06 0
0.000593332 -4.87125e-06 0
0.00060298 -4.7308e-06 0
0.00060298 -4.7308e-06 0
0.000612351 -4.59415e-06 0
0.000612351 -4.59415e-06 0
0.000621453 -4.46142e-06 0
0.000621453 -4.46142e-06 0
0.000630294 -4.33315e-06 0
0.000630294 -4.33315e-06 0
0.000638882 -4.20892e-06 0
0.000638882 -4.20892e-06 0
0.000647223 -4.08819e-06 0
0.000647223 -4.08819e-06 0
0.000655328 -3.97149e-06 0
0.000655328 -3.97149e-06 0
0.000663201 -3.85906e-06 0
0.000663201 -3.85906e-06 0
0.000670851 -3.74979e-06 0
0.000670851 -3.74979e-06 0
0.000678285 -3.64387e-06 0
0.000678285 -3.64387e-06 0
0.000685513 -3.54144e-06 0
0.000685513 -3.54144e-06 0
0.000692536 -3.44289e-06 0
0.000692536 -3.44289e-06 0
0.000699367 -3.34744e-06 0
0.000699367 -3.34744e-06 0
0.000706005 -3.2549e-06 0
0.000706005 -3.2549e-06 0
0.000712467 -3.16565e-06 0
0.000712467 -3.16565e-06 0
0.000718743 -3.0795e-06 0
0.000718743 -3.0795e-06 0
0.000724865 -2.99606e-06 0
0.000724865 -2.99606e-06 0
0.000730799 -2.91582e-06 0
0.000730799 -2.91582e-06 0
0.000736607 -2.83791e-06 0
0.000736607 -2.83791e-06 0
0.000742208 -2.76262e-06 0
0.000742208 -2.76262e-06 0
0.000747744 -2.689e-06 0
0.000747744 -2.689e-06 0
0.000753008 -2.61997e-06 0
0.000753008 -2.61997e-06 0
0.000758332 -2.55061e-06 0
0.000758332 -2.55061e-06 0
0.000763215 -2.48739e-06 0
0.000763215 -2.48739e-06 0
0.000768436 -2.42062e-06 0
0.000768436 -2.42062e-06 0
0.000772809 -2.3646e-06 0
0.000772809 -2.3646e-06 0
0.978579 -0.00280871 0
0.978579 -0.00280871 0
1.95638 -0.00561507 0
1.95638 -0.00561507 0
