/*--------------------------------*- C++ -*----------------------------------*\
| =========                 |                                                 |
| \\      /  F ield         | OpenFOAM: The Open Source CFD Toolbox           |
|  \\    /   O peration     | Version:  4.1                                   |
|   \\  /    A nd           | Web:      www.OpenFOAM.org                      |
|    \\/     M anipulation  |                                                 |
\*---------------------------------------------------------------------------*/
FoamFile
{
    version     2.0;
    format      ascii;
    class       volScalarField;
    location    "0.101";
    object      k_0;
}
// * * * * * * * * * * * * * * * * * * * * * * * * * * * * * * * * * * * * * //

dimensions      [0 2 -2 0 0 0 0];

internalField   nonuniform List<scalar> 
43750
(
8.36429e-05
8.12996e-05
7.6244e-05
8.27548e-05
9.17247e-05
9.03699e-05
8.61599e-05
8.90093e-05
0.000120859
0.000307217
0.000633348
0.000732581
0.000700906
0.000483209
0.000249855
0.00018003
0.000181532
0.000259673
0.000648372
0.00135585
0.0017826
0.00192526
0.0019302
0.00187315
0.00163041
0.00113505
0.000685577
0.000367788
0.000204816
0.000145775
0.000139628
0.000159325
0.000172165
0.000157987
0.000126134
0.000123497
0.000149559
0.000340958
0.00117258
0.00197505
0.00216167
0.00211804
0.00189728
0.00176527
0.00176855
0.00194122
0.00280365
0.00460364
0.00593422
0.0067318
0.00712515
0.00726945
0.00729505
0.0072842
0.00722455
0.00713904
0.00706933
0.00700792
0.00694982
0.00689401
0.00683878
0.00678279
0.00672643
0.00666831
0.00660773
0.00654449
0.00647726
0.0064055
0.00632855
0.00624517
0.0061546
0.0060562
0.00594879
0.0058315
0.00570358
0.00556401
0.00541194
0.00524691
0.0050684
0.00487564
0.00466838
0.00444695
0.00421209
0.00396443
0.00370454
0.0034331
0.00315124
0.00286058
0.00256331
0.0022623
0.00196109
0.00166385
0.00137523
0.00110052
0.000844468
0.000613214
0.000408496
0.000240546
0.000105714
1.36166e-05
2.02335e-05
2.04455e-05
2.04831e-05
2.04342e-05
2.02757e-05
2.01899e-05
2.01759e-05
2.01993e-05
2.0436e-05
2.19523e-05
2.70772e-05
2.97912e-05
2.95837e-05
2.6731e-05
2.35002e-05
2.29275e-05
2.35759e-05
2.80355e-05
4.36804e-05
5.57057e-05
5.95896e-05
6.2794e-05
6.56105e-05
6.59464e-05
6.37011e-05
5.39598e-05
4.19952e-05
3.4643e-05
3.06792e-05
2.89635e-05
2.85532e-05
2.86305e-05
2.89851e-05
2.90867e-05
2.90979e-05
2.93257e-05
3.07118e-05
3.70539e-05
5.95097e-05
0.000128259
0.00023222
0.000306903
0.000345133
0.000364816
0.000390091
0.000447311
0.000604075
0.00081016
0.000971692
0.00107914
0.00114283
0.00117859
0.00119837
0.00120783
0.00121472
0.00122393
0.00123718
0.00125357
0.00127196
0.00129208
0.0013134
0.00133607
0.00135959
0.00138473
0.00141008
0.00143694
0.00146399
0.0014914
0.00151933
0.00154609
0.00157373
0.00159814
0.00162369
0.00164421
0.00166456
0.00167967
0.00169137
0.00169788
0.00169649
0.0016908
0.00167816
0.00165535
0.00162337
0.0015812
0.00152857
0.0014651
0.00139029
0.00130402
0.00120681
0.00109964
0.000983844
0.000861859
0.000736452
0.000611947
0.000491783
0.00038279
0.000282777
0.000205496
7.80217e-05
1.16544e-05
2.00538e-05
2.00138e-05
1.98202e-05
1.9548e-05
1.91709e-05
1.81922e-05
1.62897e-05
1.5479e-05
1.55474e-05
1.56012e-05
1.5072e-05
1.39702e-05
1.38624e-05
1.4226e-05
1.53446e-05
1.62007e-05
1.67568e-05
1.71435e-05
1.73342e-05
1.73224e-05
1.69126e-05
1.54898e-05
1.44788e-05
1.41448e-05
1.40893e-05
1.40876e-05
1.41115e-05
1.41758e-05
1.42612e-05
1.43227e-05
1.43338e-05
1.42855e-05
1.39554e-05
1.32373e-05
1.28801e-05
1.28127e-05
1.2857e-05
1.31441e-05
1.42933e-05
1.79612e-05
2.21379e-05
2.5493e-05
2.92607e-05
3.48474e-05
4.43116e-05
5.93679e-05
7.85357e-05
9.70317e-05
0.000111515
0.000121634
0.000128577
0.000132985
0.000135838
0.000138034
0.00014078
0.00014434
0.00014875
0.000153709
0.000159122
0.000165024
0.000171326
0.000178217
0.000185469
0.0001935
0.000201807
0.000210965
0.000220537
0.000230727
0.000241634
0.000252825
0.000264985
0.000277082
0.000290231
0.000303135
0.000316731
0.000330164
0.000343649
0.000356725
0.0003695
0.000381184
0.000391872
0.000401558
0.000408512
0.000414851
0.000417596
0.000417229
0.000415249
0.000410515
0.000401196
0.00038794
0.000370648
0.000348461
0.000320792
0.000285637
0.000243541
0.000192369
0.000140045
8.73891e-05
3.28903e-05
5.2227e-06
2.07637e-05
2.11145e-05
2.12362e-05
2.11667e-05
2.11018e-05
2.11375e-05
2.12952e-05
2.13875e-05
2.13969e-05
2.13607e-05
2.12816e-05
2.12611e-05
2.12876e-05
2.14974e-05
2.20161e-05
2.22086e-05
2.21602e-05
2.19023e-05
2.13278e-05
2.08846e-05
2.05996e-05
2.04655e-05
2.04408e-05
2.04605e-05
2.05856e-05
2.10767e-05
2.21774e-05
2.30355e-05
2.34101e-05
2.34301e-05
2.32151e-05
2.23188e-05
2.14747e-05
2.12e-05
2.11915e-05
2.12377e-05
2.13683e-05
2.15933e-05
2.18323e-05
2.20058e-05
2.21126e-05
2.23241e-05
2.31e-05
2.60379e-05
3.50415e-05
4.60924e-05
5.45444e-05
5.95017e-05
6.11612e-05
6.08376e-05
5.68812e-05
4.87328e-05
4.34481e-05
4.09067e-05
4.02699e-05
4.03183e-05
4.06872e-05
4.18316e-05
4.38823e-05
4.60745e-05
4.83783e-05
5.08935e-05
5.35232e-05
5.64513e-05
5.94863e-05
6.28473e-05
6.6388e-05
7.01773e-05
7.42685e-05
7.85301e-05
8.31547e-05
8.79119e-05
9.3027e-05
9.82484e-05
0.000103759
0.000109332
0.000115092
0.000120757
0.000126469
0.000131973
0.000137023
0.000141922
0.000145773
0.000149106
0.00015175
0.000152293
0.00015196
0.000150781
0.000148007
0.000142851
0.000136129
0.000127598
0.000117581
0.000105292
9.18148e-05
7.44627e-05
5.60046e-05
3.40894e-05
1.33213e-05
2.11864e-06
2.03551e-05
2.07813e-05
2.08584e-05
2.09212e-05
2.11808e-05
2.16756e-05
2.18559e-05
2.18499e-05
2.16717e-05
2.1449e-05
2.14209e-05
2.15058e-05
2.18273e-05
2.20787e-05
2.21994e-05
2.22483e-05
2.23146e-05
2.25233e-05
2.28062e-05
2.29141e-05
2.28798e-05
2.25456e-05
2.19941e-05
2.18122e-05
2.18478e-05
2.22555e-05
2.3706e-05
2.50293e-05
2.55902e-05
2.56401e-05
2.53119e-05
2.38781e-05
2.26358e-05
2.22369e-05
2.2203e-05
2.22098e-05
2.21979e-05
2.21297e-05
2.20672e-05
2.20638e-05
2.21024e-05
2.23379e-05
2.33864e-05
2.75316e-05
3.48399e-05
3.97231e-05
4.19329e-05
4.22928e-05
4.15449e-05
3.69319e-05
2.62393e-05
1.79854e-05
1.26632e-05
9.56237e-06
7.95997e-06
7.30346e-06
7.17364e-06
7.21185e-06
7.40052e-06
7.88908e-06
8.45937e-06
9.07225e-06
9.71542e-06
1.04447e-05
1.12153e-05
1.20844e-05
1.30238e-05
1.40486e-05
1.51826e-05
1.63974e-05
1.77385e-05
1.91711e-05
2.07366e-05
2.23963e-05
2.41944e-05
2.60741e-05
2.80867e-05
3.01522e-05
3.23e-05
3.45032e-05
3.66325e-05
3.88145e-05
4.07764e-05
4.25844e-05
4.42847e-05
4.54347e-05
4.63081e-05
4.65811e-05
4.64414e-05
4.58555e-05
4.44799e-05
4.22738e-05
3.96425e-05
3.62687e-05
3.27176e-05
2.76367e-05
2.16525e-05
1.36823e-05
5.40595e-06
8.60161e-07
2.04888e-05
2.091e-05
2.10521e-05
2.11361e-05
2.11689e-05
2.12244e-05
2.13931e-05
2.15368e-05
2.15829e-05
2.16044e-05
2.16603e-05
2.17757e-05
2.17914e-05
2.16302e-05
2.13469e-05
2.1282e-05
2.1319e-05
2.16162e-05
2.21672e-05
2.24063e-05
2.2534e-05
2.26203e-05
2.26146e-05
2.25793e-05
2.27414e-05
2.33598e-05
2.37456e-05
2.382e-05
2.37606e-05
2.34163e-05
2.27192e-05
2.22212e-05
2.20571e-05
2.20849e-05
2.23612e-05
2.27439e-05
2.28313e-05
2.28125e-05
2.27561e-05
2.27482e-05
2.2779e-05
2.30023e-05
2.40944e-05
2.85166e-05
3.54295e-05
3.94915e-05
4.08591e-05
4.08454e-05
3.94225e-05
3.25208e-05
2.08491e-05
1.25516e-05
7.30185e-06
4.24095e-06
2.59123e-06
1.77678e-06
1.42544e-06
1.31888e-06
1.31478e-06
1.34417e-06
1.44252e-06
1.58944e-06
1.73795e-06
1.90709e-06
2.08855e-06
2.2966e-06
2.52748e-06
2.78395e-06
3.07484e-06
3.39483e-06
3.75483e-06
4.15221e-06
4.59559e-06
5.07984e-06
5.61944e-06
6.20058e-06
6.84108e-06
7.52417e-06
8.25355e-06
9.03564e-06
9.82491e-06
1.06612e-05
1.14755e-05
1.2259e-05
1.304e-05
1.36973e-05
1.42713e-05
1.46632e-05
1.49062e-05
1.49098e-05
1.47817e-05
1.43756e-05
1.3705e-05
1.2831e-05
1.19412e-05
1.0552e-05
8.60713e-06
5.58679e-06
2.21605e-06
3.51668e-07
2.04535e-05
2.08798e-05
2.11304e-05
2.12435e-05
2.12566e-05
2.12449e-05
2.12019e-05
2.11491e-05
2.1121e-05
2.1116e-05
2.11224e-05
2.11661e-05
2.12204e-05
2.12226e-05
2.12215e-05
2.12233e-05
2.12443e-05
2.13668e-05
2.18688e-05
2.23783e-05
2.25028e-05
2.24125e-05
2.2027e-05
2.18437e-05
2.18452e-05
2.19276e-05
2.19552e-05
2.18918e-05
2.17469e-05
2.17071e-05
2.17242e-05
2.18165e-05
2.21649e-05
2.30117e-05
2.36199e-05
2.39192e-05
2.41372e-05
2.44236e-05
2.47116e-05
2.48891e-05
2.50305e-05
2.53484e-05
2.65126e-05
3.10536e-05
3.74402e-05
4.09252e-05
4.1961e-05
4.1848e-05
4.01269e-05
3.23591e-05
2.02738e-05
1.18061e-05
6.4829e-06
3.39276e-06
1.72449e-06
8.84454e-07
4.9134e-07
3.23778e-07
2.64963e-07
2.55165e-07
2.59369e-07
2.77687e-07
3.12498e-07
3.51248e-07
3.9263e-07
4.40492e-07
4.95009e-07
5.56564e-07
6.28107e-07
7.08835e-07
8.01396e-07
9.06668e-07
1.02687e-06
1.16157e-06
1.31595e-06
1.48716e-06
1.68076e-06
1.89464e-06
2.12918e-06
2.38984e-06
2.6633e-06
2.96134e-06
3.26829e-06
3.57607e-06
3.89365e-06
4.19079e-06
4.46722e-06
4.69517e-06
4.87524e-06
4.98336e-06
5.01344e-06
4.97718e-06
4.85835e-06
4.6614e-06
4.46443e-06
4.12307e-06
3.51736e-06
2.32726e-06
9.21053e-07
1.4545e-07
2.08825e-05
2.10941e-05
2.11401e-05
2.13669e-05
2.18367e-05
2.19568e-05
2.18972e-05
2.16196e-05
2.13191e-05
2.11644e-05
2.11046e-05
2.11013e-05
2.11395e-05
2.13118e-05
2.14649e-05
2.15214e-05
2.15615e-05
2.16634e-05
2.20499e-05
2.26001e-05
2.27482e-05
2.26644e-05
2.22015e-05
2.16344e-05
2.13669e-05
2.12612e-05
2.12334e-05
2.1236e-05
2.12853e-05
2.14807e-05
2.17077e-05
2.2141e-05
2.28374e-05
2.34636e-05
2.38353e-05
2.40063e-05
2.41551e-05
2.44117e-05
2.47473e-05
2.50607e-05
2.53996e-05
2.60432e-05
2.77296e-05
3.28506e-05
3.85181e-05
4.15891e-05
4.24582e-05
4.23087e-05
4.04988e-05
3.2501e-05
2.03007e-05
1.17722e-05
6.40656e-06
3.28595e-06
1.59827e-06
7.44948e-07
3.40322e-07
1.60548e-07
8.65715e-08
5.97476e-08
5.3246e-08
5.35604e-08
5.67796e-08
6.52523e-08
7.49632e-08
8.58877e-08
9.85691e-08
1.13084e-07
1.30344e-07
1.50318e-07
1.73632e-07
2.00887e-07
2.3276e-07
2.69323e-07
3.12359e-07
3.61494e-07
4.18349e-07
4.83218e-07
5.56232e-07
6.39971e-07
7.30852e-07
8.32656e-07
9.41872e-07
1.05607e-06
1.17667e-06
1.29769e-06
1.41524e-06
1.52163e-06
1.61521e-06
1.68544e-06
1.73178e-06
1.74966e-06
1.7414e-06
1.71875e-06
1.6902e-06
1.62398e-06
1.45027e-06
9.99115e-07
3.89159e-07
6.09501e-08
2.0897e-05
2.11218e-05
2.12164e-05
2.13307e-05
2.13442e-05
2.12892e-05
2.12074e-05
2.1206e-05
2.12583e-05
2.12982e-05
2.12776e-05
2.11942e-05
2.11587e-05
2.11598e-05
2.11886e-05
2.12943e-05
2.13729e-05
2.14236e-05
2.15242e-05
2.18017e-05
2.267e-05
2.33795e-05
2.34762e-05
2.33e-05
2.2541e-05
2.17905e-05
2.14875e-05
2.14512e-05
2.1548e-05
2.2059e-05
2.26551e-05
2.289e-05
2.29289e-05
2.29096e-05
2.28527e-05
2.28554e-05
2.29289e-05
2.32691e-05
2.38409e-05
2.42114e-05
2.45462e-05
2.51933e-05
2.69426e-05
3.2221e-05
3.78931e-05
4.09581e-05
4.18373e-05
4.16975e-05
3.99283e-05
3.2079e-05
2.00391e-05
1.15953e-05
6.28846e-06
3.21148e-06
1.54957e-06
7.09174e-07
3.09693e-07
1.30757e-07
5.52677e-08
2.54816e-08
1.48281e-08
1.18962e-08
1.17429e-08
1.23801e-08
1.43438e-08
1.69678e-08
1.99388e-08
2.33409e-08
2.74693e-08
3.23734e-08
3.819e-08
4.51645e-08
5.35367e-08
6.3349e-08
7.518e-08
8.90854e-08
1.05522e-07
1.24859e-07
1.47167e-07
1.7353e-07
2.02985e-07
2.3699e-07
2.7455e-07
3.15606e-07
3.59692e-07
4.06495e-07
4.53509e-07
4.98733e-07
5.41575e-07
5.76609e-07
6.05497e-07
6.24616e-07
6.3203e-07
6.41722e-07
6.53839e-07
6.46203e-07
6.01098e-07
4.35213e-07
1.66757e-07
2.58598e-08
2.16546e-05
2.06779e-05
2.07797e-05
2.08609e-05
2.09278e-05
2.11111e-05
2.14167e-05
2.15576e-05
2.15653e-05
2.14533e-05
2.12399e-05
2.11645e-05
2.11568e-05
2.11667e-05
2.12069e-05
2.13166e-05
2.13955e-05
2.13861e-05
2.13445e-05
2.13877e-05
2.17309e-05
2.22114e-05
2.23341e-05
2.23052e-05
2.20765e-05
2.16095e-05
2.14083e-05
2.13974e-05
2.14971e-05
2.18956e-05
2.22128e-05
2.2292e-05
2.22602e-05
2.20501e-05
2.18902e-05
2.18892e-05
2.20284e-05
2.23647e-05
2.25299e-05
2.26176e-05
2.27823e-05
2.32446e-05
2.48871e-05
3.03941e-05
3.67513e-05
4.02533e-05
4.13282e-05
4.12357e-05
3.95821e-05
3.20092e-05
2.00224e-05
1.15966e-05
6.29513e-06
3.21639e-06
1.55195e-06
7.09392e-07
3.07897e-07
1.27316e-07
5.05036e-08
1.96697e-08
8.03787e-09
4.00133e-09
2.84445e-09
2.71948e-09
2.85578e-09
3.33344e-09
4.07236e-09
4.87978e-09
5.86523e-09
7.06612e-09
8.51091e-09
1.02873e-08
1.24769e-08
1.50961e-08
1.83277e-08
2.2243e-08
2.69624e-08
3.26844e-08
3.94401e-08
4.76777e-08
5.71029e-08
6.83643e-08
8.10537e-08
9.56037e-08
1.11405e-07
1.29051e-07
1.47292e-07
1.65633e-07
1.8412e-07
1.99905e-07
2.14581e-07
2.26191e-07
2.32564e-07
2.42415e-07
2.57589e-07
2.61238e-07
2.5036e-07
1.90533e-07
7.22024e-08
1.10923e-08
2.09967e-05
2.09013e-05
2.10299e-05
2.10469e-05
2.10301e-05
2.10819e-05
2.13669e-05
2.17082e-05
2.17875e-05
2.17156e-05
2.15814e-05
2.15474e-05
2.15526e-05
2.15942e-05
2.16661e-05
2.1845e-05
2.227e-05
2.24552e-05
2.24166e-05
2.21942e-05
2.21013e-05
2.21175e-05
2.22297e-05
2.22988e-05
2.2269e-05
2.20314e-05
2.15954e-05
2.14395e-05
2.14287e-05
2.14504e-05
2.15519e-05
2.17122e-05
2.17812e-05
2.17834e-05
2.17992e-05
2.19514e-05
2.23239e-05
2.24556e-05
2.24391e-05
2.23899e-05
2.24184e-05
2.26863e-05
2.40248e-05
2.93309e-05
3.66513e-05
4.06402e-05
4.18747e-05
4.18037e-05
4.01753e-05
3.26075e-05
2.04115e-05
1.18244e-05
6.42135e-06
3.28219e-06
1.58396e-06
7.23586e-07
3.13692e-07
1.29394e-07
5.10156e-08
1.92942e-08
7.07132e-09
2.63803e-09
1.15178e-09
7.24639e-10
6.63479e-10
6.95981e-10
8.22533e-10
1.02771e-09
1.26553e-09
1.55943e-09
1.9174e-09
2.36801e-09
2.93882e-09
3.63587e-09
4.51404e-09
5.61295e-09
6.96128e-09
8.64764e-09
1.0679e-08
1.32436e-08
1.623e-08
1.99444e-08
2.41784e-08
2.9291e-08
3.48842e-08
4.14366e-08
4.83917e-08
5.5621e-08
6.33493e-08
7.01087e-08
7.69347e-08
8.29407e-08
8.66285e-08
9.24906e-08
1.02626e-07
1.07444e-07
1.05076e-07
8.33986e-08
3.17629e-08
4.80591e-09
2.09589e-05
2.1514e-05
2.15754e-05
2.13199e-05
2.1193e-05
2.12717e-05
2.14678e-05
2.15872e-05
2.16578e-05
2.17513e-05
2.20353e-05
2.22423e-05
2.22329e-05
2.20742e-05
2.19705e-05
2.19915e-05
2.20493e-05
2.20307e-05
2.19173e-05
2.18677e-05
2.19131e-05
2.22483e-05
2.27962e-05
2.29537e-05
2.28961e-05
2.24777e-05
2.18823e-05
2.15872e-05
2.14842e-05
2.14699e-05
2.14769e-05
2.15076e-05
2.15329e-05
2.15664e-05
2.1648e-05
2.19082e-05
2.21856e-05
2.22577e-05
2.22447e-05
2.22384e-05
2.2276e-05
2.25463e-05
2.38282e-05
2.90194e-05
3.72608e-05
4.21184e-05
4.37785e-05
4.37926e-05
4.23302e-05
3.50367e-05
2.20627e-05
1.27951e-05
6.95143e-06
3.55451e-06
1.71581e-06
7.83732e-07
3.39446e-07
1.39652e-07
5.46139e-08
2.03805e-08
7.332e-09
2.5647e-09
8.93495e-10
3.50646e-10
1.96221e-10
1.71337e-10
1.79732e-10
2.14105e-10
2.74742e-10
3.47521e-10
4.36165e-10
5.50061e-10
6.98481e-10
8.83605e-10
1.1211e-09
1.42896e-09
1.8124e-09
2.3085e-09
2.91523e-09
3.71281e-09
4.65082e-09
5.87451e-09
7.27341e-09
9.06072e-09
1.1024e-08
1.34321e-08
1.60584e-08
1.88543e-08
2.20256e-08
2.48367e-08
2.78643e-08
3.07482e-08
3.26286e-08
3.55977e-08
4.12639e-08
4.47763e-08
4.44684e-08
3.65361e-08
1.41453e-08
2.10223e-09
2.05504e-05
2.09134e-05
2.09996e-05
2.10604e-05
2.10948e-05
2.11019e-05
2.11313e-05
2.12461e-05
2.14649e-05
2.15326e-05
2.15509e-05
2.15953e-05
2.17318e-05
2.19193e-05
2.20166e-05
2.20371e-05
2.20369e-05
2.2028e-05
2.197e-05
2.1858e-05
2.18308e-05
2.1874e-05
2.21437e-05
2.24605e-05
2.24979e-05
2.23604e-05
2.19841e-05
2.17682e-05
2.16848e-05
2.15691e-05
2.13995e-05
2.12824e-05
2.12425e-05
2.12409e-05
2.12714e-05
2.14402e-05
2.16216e-05
2.16575e-05
2.16766e-05
2.17247e-05
2.18492e-05
2.22504e-05
2.37495e-05
2.9383e-05
3.78294e-05
4.28633e-05
4.46813e-05
4.47578e-05
4.34794e-05
3.67623e-05
2.34394e-05
1.369e-05
7.48157e-06
3.84704e-06
1.86722e-06
8.57626e-07
3.73529e-07
1.54521e-07
6.08042e-08
2.27742e-08
8.11401e-09
2.7639e-09
9.18189e-10
3.01899e-10
1.09218e-10
5.59771e-11
4.69125e-11
4.91407e-11
5.89921e-11
7.82283e-11
1.00384e-10
1.2909e-10
1.67526e-10
2.16619e-10
2.80507e-10
3.66694e-10
4.75176e-10
6.21144e-10
8.0101e-10
1.04933e-09
1.34137e-09
1.74481e-09
2.20294e-09
2.82593e-09
3.51089e-09
4.38931e-09
5.37583e-09
6.44229e-09
7.72907e-09
8.87769e-09
1.01817e-08
1.15101e-08
1.2415e-08
1.38102e-08
1.67194e-08
1.88587e-08
1.89842e-08
1.60448e-08
6.35103e-09
9.27574e-10
2.06486e-05
2.06769e-05
2.10432e-05
2.14381e-05
2.1611e-05
2.15548e-05
2.1448e-05
2.1458e-05
2.1635e-05
2.24861e-05
2.32113e-05
2.32408e-05
2.29491e-05
2.2435e-05
2.22512e-05
2.21868e-05
2.21549e-05
2.21186e-05
2.20064e-05
2.17791e-05
2.16601e-05
2.16501e-05
2.17247e-05
2.1911e-05
2.19552e-05
2.19131e-05
2.18575e-05
2.18952e-05
2.19298e-05
2.18742e-05
2.16149e-05
2.13513e-05
2.12682e-05
2.12766e-05
2.14008e-05
2.17027e-05
2.17996e-05
2.17754e-05
2.16767e-05
2.16534e-05
2.17012e-05
2.20255e-05
2.35052e-05
2.92384e-05
3.77696e-05
4.28561e-05
4.47185e-05
4.48178e-05
4.36156e-05
3.71994e-05
2.39031e-05
1.40423e-05
7.71691e-06
3.99004e-06
1.94734e-06
8.9942e-07
3.93944e-07
1.63911e-07
6.48805e-08
2.44563e-08
8.78796e-09
3.01538e-09
9.86396e-10
3.12495e-10
9.82368e-11
3.38552e-11
1.65648e-11
1.36419e-11
1.43285e-11
1.76701e-11
2.36641e-11
3.09149e-11
4.08031e-11
5.3781e-11
7.08358e-11
9.49748e-11
1.25457e-10
1.68511e-10
2.21338e-10
2.9891e-10
3.88904e-10
5.22254e-10
6.70945e-10
8.8776e-10
1.12565e-09
1.44407e-09
1.81391e-09
2.21618e-09
2.73453e-09
3.19886e-09
3.74957e-09
4.34592e-09
4.76784e-09
5.40374e-09
6.8145e-09
8.00628e-09
8.18619e-09
7.06805e-09
2.8667e-09
4.12493e-10
2.05907e-05
2.12641e-05
2.15423e-05
2.14829e-05
2.12171e-05
2.09945e-05
2.0945e-05
2.0957e-05
2.1059e-05
2.13169e-05
2.14205e-05
2.1446e-05
2.14602e-05
2.14628e-05
2.14879e-05
2.162e-05
2.18855e-05
2.1993e-05
2.19946e-05
2.19431e-05
2.18855e-05
2.18941e-05
2.20201e-05
2.2184e-05
2.21958e-05
2.21572e-05
2.21665e-05
2.23449e-05
2.25435e-05
2.25399e-05
2.23856e-05
2.1914e-05
2.16526e-05
2.16306e-05
2.17334e-05
2.21194e-05
2.23003e-05
2.22845e-05
2.21046e-05
2.19547e-05
2.19592e-05
2.21826e-05
2.34e-05
2.84761e-05
3.70067e-05
4.2218e-05
4.4195e-05
4.43394e-05
4.32246e-05
3.71103e-05
2.39549e-05
1.41067e-05
7.77521e-06
4.03393e-06
1.97635e-06
9.16694e-07
4.03448e-07
1.68713e-07
6.71334e-08
2.545e-08
9.20254e-09
3.17704e-09
1.04787e-09
3.30708e-10
1.01195e-10
3.08947e-11
1.04866e-11
5.22894e-12
4.41031e-12
4.70586e-12
5.90767e-12
7.87083e-12
1.04491e-11
1.38417e-11
1.83026e-11
2.50523e-11
3.35274e-11
4.62958e-11
6.16104e-11
8.6002e-11
1.13364e-10
1.5764e-10
2.05405e-10
2.80819e-10
3.63154e-10
4.77868e-10
6.16552e-10
7.66776e-10
9.74587e-10
1.16109e-09
1.39037e-09
1.6537e-09
1.84657e-09
2.13145e-09
2.79243e-09
3.42306e-09
3.56015e-09
3.12714e-09
1.2998e-09
1.84768e-10
2.1052e-05
2.10802e-05
2.10627e-05
2.12585e-05
2.19154e-05
2.21849e-05
2.21566e-05
2.19483e-05
2.15036e-05
2.12439e-05
2.11939e-05
2.12626e-05
2.15274e-05
2.16615e-05
2.1699e-05
2.17614e-05
2.19926e-05
2.24927e-05
2.26662e-05
2.26397e-05
2.23697e-05
2.19356e-05
2.17972e-05
2.18008e-05
2.19092e-05
2.24039e-05
2.32433e-05
2.36978e-05
2.37748e-05
2.36606e-05
2.31011e-05
2.25717e-05
2.24061e-05
2.23899e-05
2.24363e-05
2.25528e-05
2.25721e-05
2.2508e-05
2.22628e-05
2.21482e-05
2.21596e-05
2.237e-05
2.34959e-05
2.80115e-05
3.52272e-05
3.986e-05
4.17791e-05
4.19994e-05
4.11494e-05
3.60153e-05
2.35967e-05
1.3928e-05
7.7029e-06
4.00903e-06
1.96983e-06
9.16102e-07
4.04198e-07
1.69533e-07
6.76919e-08
2.57631e-08
9.35818e-09
3.24659e-09
1.0773e-09
3.42941e-10
1.05211e-10
3.14273e-11
9.55383e-12
3.50343e-12
2.0322e-12
1.86143e-12
1.99636e-12
2.43381e-12
3.15031e-12
4.07904e-12
5.21612e-12
7.03753e-12
9.31564e-12
1.31197e-11
1.74783e-11
2.52211e-11
3.33884e-11
4.81991e-11
6.33384e-11
8.95749e-11
1.17984e-10
1.59033e-10
2.11125e-10
2.66654e-10
3.49674e-10
4.2429e-10
5.18728e-10
6.33704e-10
7.20738e-10
8.47123e-10
1.14992e-09
1.47286e-09
1.56002e-09
1.39028e-09
5.91908e-10
8.33307e-11
2.0529e-05
2.15502e-05
2.19727e-05
2.20027e-05
2.20409e-05
2.19566e-05
2.15224e-05
2.11688e-05
2.10828e-05
2.10967e-05
2.12251e-05
2.16296e-05
2.19598e-05
2.2079e-05
2.20787e-05
2.2059e-05
2.21182e-05
2.23901e-05
2.25375e-05
2.25227e-05
2.22962e-05
2.1767e-05
2.15178e-05
2.14865e-05
2.15704e-05
2.20456e-05
2.27217e-05
2.29748e-05
2.29734e-05
2.27879e-05
2.23987e-05
2.22729e-05
2.23073e-05
2.26541e-05
2.31465e-05
2.32927e-05
2.3275e-05
2.30483e-05
2.25814e-05
2.24229e-05
2.2425e-05
2.26077e-05
2.37057e-05
2.81747e-05
3.44303e-05
3.80623e-05
3.93622e-05
3.94e-05
3.83354e-05
3.28998e-05
2.14946e-05
1.28417e-05
7.17997e-06
3.77779e-06
1.87631e-06
8.81137e-07
3.92049e-07
1.6559e-07
6.65123e-08
2.54481e-08
9.28646e-09
3.23498e-09
1.07777e-09
3.44614e-10
1.0626e-10
3.18161e-11
9.56816e-12
3.26526e-12
1.56537e-12
1.20178e-12
1.20304e-12
1.28522e-12
1.47393e-12
1.74364e-12
2.03289e-12
2.51704e-12
3.04997e-12
4.14106e-12
5.31528e-12
7.77441e-12
1.01781e-11
1.51426e-11
1.9864e-11
2.90171e-11
3.87847e-11
5.33402e-11
7.29545e-11
9.32242e-11
1.26279e-10
1.56046e-10
1.94592e-10
2.44398e-10
2.83336e-10
3.39099e-10
4.75694e-10
6.37453e-10
6.88318e-10
6.21252e-10
2.70736e-10
3.78321e-11
2.08873e-05
2.1249e-05
2.12643e-05
2.12405e-05
2.12297e-05
2.12021e-05
2.12009e-05
2.12486e-05
2.1313e-05
2.13534e-05
2.1436e-05
2.16491e-05
2.2265e-05
2.30392e-05
2.3337e-05
2.33149e-05
2.30598e-05
2.28326e-05
2.27409e-05
2.2567e-05
2.21378e-05
2.17411e-05
2.15946e-05
2.1602e-05
2.18082e-05
2.24209e-05
2.27145e-05
2.27196e-05
2.25446e-05
2.21072e-05
2.19151e-05
2.19104e-05
2.20699e-05
2.26986e-05
2.32116e-05
2.3399e-05
2.34217e-05
2.33703e-05
2.3206e-05
2.31491e-05
2.31543e-05
2.32983e-05
2.42736e-05
2.84298e-05
3.43635e-05
3.76329e-05
3.86577e-05
3.85985e-05
3.722e-05
3.07512e-05
1.9676e-05
1.16566e-05
6.48496e-06
3.40156e-06
1.68693e-06
7.93491e-07
3.54656e-07
1.50805e-07
6.10717e-08
2.35815e-08
8.68885e-09
3.05838e-09
1.03054e-09
3.33029e-10
1.03647e-10
3.13074e-11
9.50818e-12
3.24329e-12
1.5171e-12
1.12499e-12
1.10346e-12
1.13989e-12
1.21897e-12
1.29192e-12
1.38758e-12
1.52318e-12
1.63281e-12
1.83959e-12
2.12563e-12
2.78882e-12
3.50581e-12
5.1017e-12
6.61415e-12
9.72952e-12
1.31049e-11
1.81905e-11
2.56047e-11
3.28388e-11
4.59519e-11
5.77807e-11
7.337e-11
9.48134e-11
1.1213e-10
1.36662e-10
1.97611e-10
2.77402e-10
3.05667e-10
2.79056e-10
1.24403e-10
1.72881e-11
2.07285e-05
2.11832e-05
2.12767e-05
2.13505e-05
2.1404e-05
2.13668e-05
2.11775e-05
2.10966e-05
2.11168e-05
2.12371e-05
2.14175e-05
2.15864e-05
2.17556e-05
2.20249e-05
2.23123e-05
2.24649e-05
2.24845e-05
2.24501e-05
2.2268e-05
2.18162e-05
2.14841e-05
2.13459e-05
2.13251e-05
2.13665e-05
2.16604e-05
2.25153e-05
2.29966e-05
2.30679e-05
2.2977e-05
2.25835e-05
2.23049e-05
2.22707e-05
2.23702e-05
2.27595e-05
2.30727e-05
2.32065e-05
2.32371e-05
2.3218e-05
2.31373e-05
2.31182e-05
2.3141e-05
2.33438e-05
2.43888e-05
2.85685e-05
3.44249e-05
3.76546e-05
3.86487e-05
3.85743e-05
3.71221e-05
3.03921e-05
1.93083e-05
1.13803e-05
6.30339e-06
3.29364e-06
1.62812e-06
7.63194e-07
3.39933e-07
1.44117e-07
5.8237e-08
2.24552e-08
8.27045e-09
2.91406e-09
9.84012e-10
3.19709e-10
1.00355e-10
3.06298e-11
9.45517e-12
3.27753e-12
1.57386e-12
1.17675e-12
1.13319e-12
1.15967e-12
1.23403e-12
1.28495e-12
1.34232e-12
1.40881e-12
1.43965e-12
1.4516e-12
1.45896e-12
1.53472e-12
1.69324e-12
2.09618e-12
2.57781e-12
3.61353e-12
4.77201e-12
6.50377e-12
9.28681e-12
1.18052e-11
1.69128e-11
2.15709e-11
2.78115e-11
3.69865e-11
4.4653e-11
5.54331e-11
8.24092e-11
1.21344e-10
1.36575e-10
1.26011e-10
5.74386e-11
7.95184e-12
2.0619e-05
2.11321e-05
2.15436e-05
2.14807e-05
2.12967e-05
2.11929e-05
2.10942e-05
2.10619e-05
2.10957e-05
2.13062e-05
2.16064e-05
2.17595e-05
2.17977e-05
2.17985e-05
2.18071e-05
2.18955e-05
2.2187e-05
2.23207e-05
2.23062e-05
2.2129e-05
2.17074e-05
2.14794e-05
2.14091e-05
2.14133e-05
2.1516e-05
2.2035e-05
2.2747e-05
2.30382e-05
2.30838e-05
2.30672e-05
2.29895e-05
2.27866e-05
2.26257e-05
2.24887e-05
2.23786e-05
2.23581e-05
2.23862e-05
2.25289e-05
2.26845e-05
2.27694e-05
2.28937e-05
2.32195e-05
2.43992e-05
2.87504e-05
3.46164e-05
3.78824e-05
3.88908e-05
3.88153e-05
3.73571e-05
3.06075e-05
1.94344e-05
1.14429e-05
6.33205e-06
3.30611e-06
1.63337e-06
7.65361e-07
3.40807e-07
1.44464e-07
5.83762e-08
2.25123e-08
8.29553e-09
2.92454e-09
9.88061e-10
3.21284e-10
1.01023e-10
3.09314e-11
9.63819e-12
3.4438e-12
1.71328e-12
1.29223e-12
1.24634e-12
1.27625e-12
1.36669e-12
1.40411e-12
1.42766e-12
1.4753e-12
1.49069e-12
1.47799e-12
1.43446e-12
1.3745e-12
1.29769e-12
1.33013e-12
1.42975e-12
1.69568e-12
2.08211e-12
2.65014e-12
3.6366e-12
4.50795e-12
6.3753e-12
8.17171e-12
1.06098e-11
1.45102e-11
1.7889e-11
2.26237e-11
3.44881e-11
5.33433e-11
6.13871e-11
5.72071e-11
2.66547e-11
3.68181e-12
2.07177e-05
2.10893e-05
2.11471e-05
2.1191e-05
2.13398e-05
2.14633e-05
2.15384e-05
2.16093e-05
2.17096e-05
2.18739e-05
2.20126e-05
2.20438e-05
2.20143e-05
2.19072e-05
2.18435e-05
2.17969e-05
2.17169e-05
2.16288e-05
2.15382e-05
2.14203e-05
2.13202e-05
2.12972e-05
2.1319e-05
2.13674e-05
2.14157e-05
2.15209e-05
2.18194e-05
2.23396e-05
2.26941e-05
2.28623e-05
2.2906e-05
2.29105e-05
2.2891e-05
2.27724e-05
2.24681e-05
2.21783e-05
2.20434e-05
2.2038e-05
2.20679e-05
2.21514e-05
2.23367e-05
2.27887e-05
2.41658e-05
2.87887e-05
3.46211e-05
3.79198e-05
3.89839e-05
3.89402e-05
3.76213e-05
3.12549e-05
1.99413e-05
1.17526e-05
6.50317e-06
3.39421e-06
1.67608e-06
7.85006e-07
3.49413e-07
1.48062e-07
5.98246e-08
2.30755e-08
8.50829e-09
3.00306e-09
1.01621e-09
3.30772e-10
1.03978e-10
3.19688e-11
1.01135e-11
3.73086e-12
1.9267e-12
1.46652e-12
1.41948e-12
1.53674e-12
1.64534e-12
1.70901e-12
1.73329e-12
1.77134e-12
1.76352e-12
1.70453e-12
1.58948e-12
1.46058e-12
1.31589e-12
1.22042e-12
1.16118e-12
1.18199e-12
1.25444e-12
1.40384e-12
1.70337e-12
1.97683e-12
2.56179e-12
3.21443e-12
4.10105e-12
5.73101e-12
7.20399e-12
9.28508e-12
1.44815e-11
2.35632e-11
2.77532e-11
2.61128e-11
1.24353e-11
1.71637e-12
2.06158e-05
2.1437e-05
2.17868e-05
2.18201e-05
2.1724e-05
2.14668e-05
2.1393e-05
2.14354e-05
2.17254e-05
2.1953e-05
2.19392e-05
2.17209e-05
2.15404e-05
2.15409e-05
2.16901e-05
2.1938e-05
2.19699e-05
2.19035e-05
2.16846e-05
2.15137e-05
2.1451e-05
2.14568e-05
2.1541e-05
2.16332e-05
2.16649e-05
2.17056e-05
2.1762e-05
2.17993e-05
2.18494e-05
2.19488e-05
2.21885e-05
2.26843e-05
2.30475e-05
2.31461e-05
2.30907e-05
2.27886e-05
2.22302e-05
2.19098e-05
2.18114e-05
2.18096e-05
2.18724e-05
2.21981e-05
2.35375e-05
2.83038e-05
3.43127e-05
3.7714e-05
3.88421e-05
3.88197e-05
3.75743e-05
3.15151e-05
2.02617e-05
1.20066e-05
6.67701e-06
3.50184e-06
1.73749e-06
8.17628e-07
3.65658e-07
1.55673e-07
6.3173e-08
2.44666e-08
9.05729e-09
3.21084e-09
1.09191e-09
3.56873e-10
1.1254e-10
3.48697e-11
1.1142e-11
4.1553e-12
2.16861e-12
1.66744e-12
1.60284e-12
1.71464e-12
2.01341e-12
2.06965e-12
2.17715e-12
2.24266e-12
2.26928e-12
2.23209e-12
2.11085e-12
1.85669e-12
1.54905e-12
1.31724e-12
1.16606e-12
1.08984e-12
1.04387e-12
1.04055e-12
1.07936e-12
1.11044e-12
1.21015e-12
1.38573e-12
1.66714e-12
2.26817e-12
2.91182e-12
3.83065e-12
6.09996e-12
1.04581e-11
1.26202e-11
1.19858e-11
5.83392e-12
8.05862e-13
2.0827e-05
2.11967e-05
2.13633e-05
2.13403e-05
2.1133e-05
2.10123e-05
2.10378e-05
2.12252e-05
2.13619e-05
2.13633e-05
2.13348e-05
2.13383e-05
2.13926e-05
2.16123e-05
2.18391e-05
2.19647e-05
2.21975e-05
2.24978e-05
2.26767e-05
2.27084e-05
2.26893e-05
2.26404e-05
2.26207e-05
2.25966e-05
2.25453e-05
2.23915e-05
2.20638e-05
2.18607e-05
2.1793e-05
2.18012e-05
2.19281e-05
2.24547e-05
2.29483e-05
2.30637e-05
2.30227e-05
2.27515e-05
2.21403e-05
2.17549e-05
2.16014e-05
2.15794e-05
2.16234e-05
2.19242e-05
2.32727e-05
2.80241e-05
3.36891e-05
3.69785e-05
3.81384e-05
3.81539e-05
3.70721e-05
3.14292e-05
2.02828e-05
1.20492e-05
6.72041e-06
3.53704e-06
1.76203e-06
8.32959e-07
3.74358e-07
1.60213e-07
6.53921e-08
2.54835e-08
9.49556e-09
3.38948e-09
1.16142e-09
3.82712e-10
1.21844e-10
3.80888e-11
1.22278e-11
4.55947e-12
2.39379e-12
1.86832e-12
1.8577e-12
1.95826e-12
2.24662e-12
2.50101e-12
2.59378e-12
2.82741e-12
2.84608e-12
2.8208e-12
2.75358e-12
2.60602e-12
2.29739e-12
1.71945e-12
1.32871e-12
1.12472e-12
1.02961e-12
9.63256e-13
9.13289e-13
8.34804e-13
7.58631e-13
7.12952e-13
7.60092e-13
9.21918e-13
1.18789e-12
1.58975e-12
2.57484e-12
4.66034e-12
5.772e-12
5.53277e-12
2.75319e-12
3.81289e-13
2.0884e-05
2.09001e-05
2.09387e-05
2.10037e-05
2.09802e-05
2.09125e-05
2.09233e-05
2.10585e-05
2.1315e-05
2.13756e-05
2.13593e-05
2.13124e-05
2.13065e-05
2.13258e-05
2.13938e-05
2.14723e-05
2.16298e-05
2.19847e-05
2.23159e-05
2.25206e-05
2.26176e-05
2.26455e-05
2.26455e-05
2.26266e-05
2.25599e-05
2.23689e-05
2.21485e-05
2.20205e-05
2.1984e-05
2.19964e-05
2.21256e-05
2.25471e-05
2.28091e-05
2.28424e-05
2.28019e-05
2.25887e-05
2.20844e-05
2.17345e-05
2.15828e-05
2.15596e-05
2.16044e-05
2.19162e-05
2.3318e-05
2.81825e-05
3.36406e-05
3.65967e-05
3.75466e-05
3.75101e-05
3.63404e-05
3.07136e-05
1.9925e-05
1.18996e-05
6.66559e-06
3.52045e-06
1.75905e-06
8.33712e-07
3.75801e-07
1.61471e-07
6.61669e-08
2.5896e-08
9.69635e-09
3.47936e-09
1.19936e-09
3.98306e-10
1.28216e-10
4.06273e-11
1.31383e-11
4.86421e-12
2.59788e-12
2.11437e-12
2.12194e-12
2.31312e-12
2.5044e-12
2.94324e-12
3.14506e-12
3.31431e-12
3.65985e-12
3.61682e-12
3.51586e-12
3.29754e-12
3.12579e-12
2.71522e-12
1.84819e-12
1.32196e-12
1.0816e-12
9.70627e-13
8.91674e-13
7.76981e-13
6.31369e-13
4.86839e-13
4.03421e-13
4.24986e-13
5.00208e-13
6.65603e-13
1.08796e-12
2.0789e-12
2.65516e-12
2.56898e-12
1.30751e-12
1.8198e-13
2.04314e-05
2.0957e-05
2.10671e-05
2.10289e-05
2.09861e-05
2.09897e-05
2.10983e-05
2.13758e-05
2.1512e-05
2.15539e-05
2.15554e-05
2.15239e-05
2.14212e-05
2.13949e-05
2.14164e-05
2.15338e-05
2.16071e-05
2.15913e-05
2.15703e-05
2.15941e-05
2.17334e-05
2.19983e-05
2.21082e-05
2.21171e-05
2.21147e-05
2.2154e-05
2.2401e-05
2.26073e-05
2.26174e-05
2.25239e-05
2.24379e-05
2.24505e-05
2.24849e-05
2.24859e-05
2.2478e-05
2.24351e-05
2.22618e-05
2.19157e-05
2.17362e-05
2.17037e-05
2.17484e-05
2.20788e-05
2.36097e-05
2.86426e-05
3.38084e-05
3.6604e-05
3.74517e-05
3.73799e-05
3.60904e-05
3.00744e-05
1.94163e-05
1.15992e-05
6.5134e-06
3.45328e-06
1.73366e-06
8.2602e-07
3.74191e-07
1.61479e-07
6.64666e-08
2.6135e-08