/*--------------------------------*- C++ -*----------------------------------*\
| =========                 |                                                 |
| \\      /  F ield         | OpenFOAM: The Open Source CFD Toolbox           |
|  \\    /   O peration     | Version:  4.1                                   |
|   \\  /    A nd           | Web:      www.OpenFOAM.org                      |
|    \\/     M anipulation  |                                                 |
\*---------------------------------------------------------------------------*/
FoamFile
{
    version     2.0;
    format      ascii;
    class       volScalarField;
    location    "0.101";
    object      p;
}
// * * * * * * * * * * * * * * * * * * * * * * * * * * * * * * * * * * * * * //

dimensions      [0 2 -2 0 0 0 0];

internalField   nonuniform List<scalar> 
43750
(
-10287.7
-10253.7
-10157
-10044.4
-9930.08
-9817.92
-9709.55
-9605.45
-9505.65
-9409.97
-9318.17
-9229.99
-9145.16
-9063.41
-8984.51
-8908.25
-8834.44
-8762.92
-8693.53
-8626.11
-8560.55
-8496.73
-8434.56
-8373.96
-8314.84
-8257.12
-8200.75
-8145.66
-8091.81
-8039.14
-7987.62
-7937.18
-7887.79
-7839.43
-7792.06
-7745.65
-7700.17
-7655.58
-7611.86
-7568.98
-7526.94
-7485.72
-7445.3
-7405.67
-7366.8
-7328.67
-7291.26
-7254.56
-7218.56
-7183.26
-7148.64
-7114.71
-7081.44
-7048.84
-7016.9
-6985.61
-6954.96
-6924.96
-6895.59
-6866.86
-6838.76
-6811.29
-6784.45
-6758.24
-6732.66
-6707.71
-6683.39
-6659.71
-6636.66
-6614.25
-6592.49
-6571.37
-6550.9
-6531.09
-6511.94
-6493.45
-6475.63
-6458.5
-6442.04
-6426.28
-6411.21
-6396.84
-6383.18
-6370.23
-6358.01
-6346.51
-6335.75
-6325.72
-6316.44
-6307.91
-6300.14
-6293.13
-6286.88
-6281.4
-6276.7
-6272.77
-6269.63
-6267.27
-6265.7
-6264.91
-10513.1
-10317.6
-10175
-10047.8
-9928.02
-9814.08
-9705.23
-9601.14
-9501.54
-9406.13
-9314.6
-9226.67
-9142.06
-9060.54
-8981.87
-8905.82
-8832.2
-8760.83
-8691.56
-8624.25
-8558.8
-8495.08
-8433.01
-8372.48
-8313.43
-8255.78
-8199.47
-8144.44
-8090.64
-8038.02
-7986.53
-7936.14
-7886.79
-7838.47
-7791.13
-7744.74
-7699.28
-7654.72
-7611.03
-7568.2
-7526.19
-7485
-7444.59
-7404.96
-7366.09
-7327.97
-7290.57
-7253.88
-7217.89
-7182.6
-7147.99
-7114.06
-7080.81
-7048.22
-7016.28
-6984.99
-6954.35
-6924.35
-6894.99
-6866.26
-6838.17
-6810.7
-6783.86
-6757.65
-6732.07
-6707.12
-6682.8
-6659.12
-6636.07
-6613.66
-6591.89
-6570.77
-6550.29
-6530.48
-6511.32
-6492.83
-6475.01
-6457.86
-6441.4
-6425.63
-6410.55
-6396.17
-6382.51
-6369.55
-6357.32
-6345.81
-6335.04
-6325.01
-6315.72
-6307.18
-6299.4
-6292.38
-6286.12
-6280.64
-6275.93
-6272
-6268.86
-6266.49
-6264.92
-6264.13
-10532.4
-10326.9
-10174.3
-10042
-9919.86
-9805.21
-9696.26
-9592.42
-9493.24
-9398.33
-9307.35
-9219.97
-9135.9
-9054.85
-8976.6
-8900.93
-8827.65
-8756.59
-8687.61
-8620.56
-8555.32
-8491.8
-8429.9
-8369.53
-8310.62
-8253.1
-8196.91
-8141.98
-8088.28
-8035.75
-7984.35
-7934.03
-7884.76
-7836.5
-7789.23
-7742.9
-7697.5
-7652.99
-7609.35
-7566.55
-7524.59
-7483.43
-7443.07
-7403.48
-7364.64
-7326.54
-7289.17
-7252.5
-7216.54
-7181.27
-7146.69
-7112.78
-7079.54
-7046.96
-7015.04
-6983.77
-6953.14
-6923.15
-6893.8
-6865.08
-6836.98
-6809.52
-6782.69
-6756.48
-6730.9
-6705.95
-6681.63
-6657.94
-6634.89
-6612.48
-6590.7
-6569.58
-6549.1
-6529.27
-6510.11
-6491.61
-6473.78
-6456.62
-6440.15
-6424.37
-6409.28
-6394.89
-6381.21
-6368.24
-6356
-6344.48
-6333.69
-6323.65
-6314.35
-6305.8
-6298.01
-6290.98
-6284.71
-6279.22
-6274.51
-6270.57
-6267.42
-6265.05
-6263.47
-6262.68
-10376
-10283.2
-10154.6
-10026.5
-9905.41
-9790.61
-9682.08
-9578.99
-9480.68
-9386.68
-9296.58
-9210.02
-9126.71
-9046.37
-8968.76
-8893.67
-8820.9
-8750.3
-8681.72
-8615.03
-8550.13
-8486.9
-8425.26
-8365.13
-8306.43
-8249.1
-8193.08
-8138.32
-8084.77
-8032.37
-7981.09
-7930.89
-7881.73
-7833.57
-7786.39
-7740.15
-7694.82
-7650.39
-7606.82
-7564.1
-7522.21
-7481.11
-7440.8
-7401.26
-7362.46
-7324.41
-7287.07
-7250.44
-7214.51
-7179.28
-7144.72
-7110.85
-7077.63
-7045.08
-7013.18
-6981.92
-6951.31
-6921.33
-6891.99
-6863.28
-6835.2
-6807.74
-6780.91
-6754.71
-6729.13
-6704.18
-6679.86
-6656.17
-6633.11
-6610.69
-6588.9
-6567.77
-6547.28
-6527.44
-6508.27
-6489.75
-6471.91
-6454.74
-6438.25
-6422.45
-6407.35
-6392.94
-6379.25
-6366.26
-6354
-6342.47
-6331.67
-6321.6
-6312.29
-6303.73
-6295.92
-6288.88
-6282.61
-6277.1
-6272.38
-6268.44
-6265.28
-6262.91
-6261.33
-6260.53
-10458.3
-10285.5
-10134.8
-10003.8
-9883.06
-9769.78
-9662.59
-9560.78
-9463.77
-9371.05
-9282.18
-9196.79
-9114.54
-9035.15
-8958.4
-8884.07
-8811.98
-8741.99
-8673.95
-8607.74
-8543.26
-8480.41
-8419.11
-8359.29
-8300.87
-8243.79
-8188.01
-8133.46
-8080.09
-8027.87
-7976.76
-7926.71
-7877.69
-7829.66
-7782.6
-7736.48
-7691.26
-7646.93
-7603.46
-7560.83
-7519.01
-7478
-7437.76
-7398.28
-7359.55
-7321.55
-7284.27
-7247.69
-7211.81
-7176.62
-7142.11
-7108.27
-7075.09
-7042.57
-7010.69
-6979.46
-6948.87
-6918.92
-6889.59
-6860.89
-6832.82
-6805.37
-6778.54
-6752.34
-6726.77
-6701.81
-6677.49
-6653.79
-6630.73
-6608.3
-6586.51
-6565.36
-6544.85
-6525
-6505.81
-6487.28
-6469.42
-6452.23
-6435.72
-6419.9
-6404.77
-6390.35
-6376.63
-6363.63
-6351.35
-6339.79
-6328.97
-6318.89
-6309.56
-6300.98
-6293.16
-6286.1
-6279.82
-6274.3
-6269.57
-6265.62
-6262.45
-6260.08
-6258.49
-6257.7
-10312.7
-10209.7
-10091.4
-9971.08
-9853.94
-9742.86
-9637.65
-9537.78
-9442.63
-9351.65
-9264.38
-9180.44
-9099.51
-9021.32
-8945.62
-8872.23
-8800.98
-8731.73
-8664.34
-8598.72
-8534.76
-8472.37
-8411.49
-8352.04
-8293.97
-8237.2
-8181.7
-8127.41
-8074.28
-8022.28
-7971.37
-7921.51
-7872.66
-7824.8
-7777.89
-7731.91
-7686.83
-7642.63
-7599.27
-7556.75
-7515.04
-7474.12
-7433.97
-7394.58
-7355.92
-7318
-7280.78
-7244.27
-7208.45
-7173.31
-7138.85
-7105.06
-7071.92
-7039.43
-7007.59
-6976.39
-6945.83
-6915.9
-6886.59
-6857.91
-6829.85
-6802.41
-6775.59
-6749.39
-6723.82
-6698.86
-6674.53
-6650.83
-6627.75
-6605.31
-6583.51
-6562.34
-6541.82
-6521.95
-6502.74
-6484.19
-6466.3
-6449.09
-6432.56
-6416.71
-6401.56
-6387.11
-6373.36
-6360.33
-6348.02
-6336.44
-6325.6
-6315.5
-6306.14
-6297.54
-6289.7
-6282.63
-6276.32
-6270.8
-6266.05
-6262.09
-6258.92
-6256.54
-6254.95
-6254.15
-10424.3
-10218.2
-10063.9
-9934.91
-9818.55
-9709.9
-9607.35
-9510.01
-9417.23
-9328.45
-9243.19
-9161.06
-9081.74
-9004.97
-8930.53
-8858.26
-8787.99
-8719.6
-8652.98
-8588.04
-8524.68
-8462.84
-8402.45
-8343.44
-8285.76
-8229.35
-8174.18
-8120.19
-8067.35
-8015.6
-7964.93
-7915.29
-7866.65
-7818.98
-7772.26
-7726.45
-7681.53
-7637.47
-7594.26
-7551.87
-7510.29
-7469.48
-7429.44
-7390.14
-7351.58
-7313.74
-7276.6
-7240.17
-7204.42
-7169.35
-7134.95
-7101.21
-7068.12
-7035.68
-7003.88
-6972.72
-6942.19
-6912.28
-6882.99
-6854.33
-6826.29
-6798.86
-6772.05
-6745.86
-6720.28
-6695.32
-6670.99
-6647.28
-6624.19
-6601.74
-6579.91
-6558.73
-6538.19
-6518.3
-6499.06
-6480.48
-6462.56
-6445.32
-6428.76
-6412.88
-6397.7
-6383.22
-6369.44
-6356.38
-6344.04
-6332.43
-6321.55
-6311.42
-6302.04
-6293.41
-6285.55
-6278.45
-6272.13
-6266.59
-6261.83
-6257.86
-6254.67
-6252.28
-6250.69
-6249.89
-10220.2
-10110
-9995.4
-9885.5
-9775.86
-9671.1
-9571.91
-9477.75
-9387.92
-9301.81
-9218.92
-9138.9
-9061.43
-8986.3
-8913.29
-8842.27
-8773.11
-8705.7
-8639.94
-8575.76
-8513.09
-8451.86
-8392.01
-8333.5
-8276.27
-8220.28
-8165.48
-8111.84
-8059.31
-8007.86
-7957.46
-7908.08
-7859.67
-7812.23
-7765.71
-7720.1
-7675.37
-7631.49
-7588.44
-7546.2
-7504.76
-7464.08
-7424.16
-7384.98
-7346.53
-7308.79
-7271.75
-7235.4
-7199.73
-7164.74
-7130.41
-7096.73
-7063.7
-7031.32
-6999.56
-6968.44
-6937.95
-6908.07
-6878.81
-6850.17
-6822.14
-6794.73
-6767.93
-6741.74
-6716.16
-6691.2
-6666.86
-6643.14
-6620.04
-6597.57
-6575.73
-6554.52
-6533.96
-6514.04
-6494.77
-6476.16
-6458.21
-6440.93
-6424.34
-6408.42
-6393.2
-6378.68
-6364.86
-6351.77
-6339.39
-6327.74
-6316.83
-6306.67
-6297.25
-6288.59
-6280.7
-6273.58
-6267.24
-6261.67
-6256.89
-6252.91
-6249.71
-6247.31
-6245.71
-6244.91
-10119.5
-10069.3
-9962.51
-9838.23
-9727.96
-9626.55
-9531.39
-9441.12
-9354.82
-9271.85
-9191.75
-9114.14
-9038.79
-8965.48
-8894.07
-8824.44
-8756.49
-8690.15
-8625.33
-8561.99
-8500.06
-8439.5
-8380.25
-8322.28
-8265.55
-8210.01
-8155.63
-8102.37
-8050.2
-7999.08
-7948.99
-7899.89
-7851.75
-7804.56
-7758.28
-7712.89
-7668.36
-7624.67
-7581.81
-7539.75
-7498.46
-7457.94
-7418.16
-7379.11
-7340.78
-7303.16
-7266.22
-7229.98
-7194.4
-7159.49
-7125.24
-7091.64
-7058.67
-7026.34
-6994.65
-6963.57
-6933.11
-6903.27
-6874.04
-6845.43
-6817.42
-6790.02
-6763.23
-6737.04
-6711.47
-6686.51
-6662.16
-6638.42
-6615.31
-6592.82
-6570.95
-6549.72
-6529.13
-6509.17
-6489.87
-6471.22
-6453.24
-6435.92
-6419.28
-6403.33
-6388.06
-6373.5
-6359.64
-6346.5
-6334.08
-6322.39
-6311.44
-6301.23
-6291.78
-6283.09
-6275.16
-6268.01
-6261.64
-6256.05
-6251.25
-6247.24
-6244.03
-6241.62
-6240.02
-6239.21
-10251.1
-10027.4
-9885.83
-9773.53
-9671.07
-9575.7
-9485.96
-9400.53
-9318.45
-9239.12
-9162.12
-9087.18
-9014.11
-8942.77
-8873.07
-8804.92
-8738.27
-8673.06
-8609.25
-8546.79
-8485.66
-8425.81
-8367.21
-8309.83
-8253.63
-8198.59
-8144.66
-8091.81
-8040.03
-7989.28
-7939.52
-7890.73
-7842.9
-7795.98
-7749.96
-7704.81
-7660.52
-7617.05
-7574.39
-7532.51
-7491.41
-7451.06
-7411.44
-7372.54
-7334.35
-7296.85
-7260.03
-7223.9
-7188.42
-7153.61
-7119.45
-7085.92
-7053.03
-7020.77
-6989.13
-6958.11
-6927.69
-6897.89
-6868.7
-6840.11
-6812.12
-6784.74
-6757.95
-6731.78
-6706.2
-6681.23
-6656.87
-6633.13
-6609.99
-6587.48
-6565.59
-6544.33
-6523.7
-6503.71
-6484.37
-6465.68
-6447.66
-6430.29
-6413.61
-6397.6
-6382.29
-6367.67
-6353.77
-6340.57
-6328.1
-6316.36
-6305.37
-6295.11
-6285.62
-6276.89
-6268.92
-6261.73
-6255.33
-6249.71
-6244.89
-6240.86
-6237.63
-6235.21
-6233.59
-6232.79
-10151.4
-9951.36
-9813.53
-9703.48
-9607.19
-9519.33
-9436.3
-9356.57
-9279.28
-9203.97
-9130.38
-9058.31
-8987.68
-8918.42
-8850.51
-8783.91
-8718.61
-8654.58
-8591.82
-8530.29
-8469.99
-8410.89
-8352.97
-8296.21
-8240.57
-8186.04
-8132.6
-8080.2
-8028.84
-7978.47
-7929.08
-7880.64
-7833.13
-7786.51
-7740.78
-7695.9
-7651.85
-7608.62
-7566.18
-7524.52
-7483.61
-7443.45
-7404
-7365.27
-7327.23
-7289.87
-7253.19
-7217.17
-7181.82
-7147.11
-7113.04
-7079.6
-7046.79
-7014.6
-6983.02
-6952.06
-6921.7
-6891.94
-6862.78
-6834.22
-6806.25
-6778.89
-6752.11
-6725.94
-6700.37
-6675.39
-6651.02
-6627.26
-6604.1
-6581.57
-6559.65
-6538.35
-6517.69
-6497.66
-6478.27
-6459.54
-6441.46
-6424.05
-6407.31
-6391.25
-6375.88
-6361.21
-6347.24
-6333.99
-6321.47
-6309.67
-6298.62
-6288.32
-6278.77
-6269.99
-6261.98
-6254.75
-6248.31
-6242.66
-6237.81
-6233.75
-6230.51
-6228.07
-6226.44
-6225.63
-9888.72
-9798.42
-9700.93
-9615.13
-9534.82
-9457.91
-9383.28
-9310.17
-9238.2
-9167.21
-9097.15
-9028.03
-8959.88
-8892.74
-8826.64
-8761.6
-8697.66
-8634.84
-8573.13
-8512.56
-8453.11
-8394.78
-8337.56
-8281.44
-8226.41
-8172.43
-8119.49
-8067.57
-8016.65
-7966.7
-7917.7
-7869.63
-7822.46
-7776.17
-7730.74
-7686.15
-7642.38
-7599.4
-7557.21
-7515.77
-7475.08
-7435.12
-7395.87
-7357.31
-7319.44
-7282.24
-7245.7
-7209.82
-7174.58
-7139.99
-7106.02
-7072.68
-7039.96
-7007.84
-6976.34
-6945.43
-6915.13
-6885.41
-6856.29
-6827.76
-6799.82
-6772.47
-6745.71
-6719.54
-6693.97
-6668.99
-6644.6
-6620.82
-6597.64
-6575.08
-6553.12
-6531.79
-6511.08
-6491.01
-6471.57
-6452.79
-6434.65
-6417.18
-6400.38
-6384.26
-6368.83
-6354.1
-6340.07
-6326.75
-6314.16
-6302.31
-6291.2
-6280.83
-6271.23
-6262.4
-6254.34
-6247.06
-6240.58
-6234.89
-6230
-6225.92
-6222.66
-6220.2
-6218.56
-6217.74
-9767.82
-9660.2
-9589.09
-9523.34
-9459.12
-9394.39
-9328.8
-9262.6
-9196.06
-9129.43
-9062.93
-8996.76
-8931.08
-8866.02
-8801.7
-8738.21
-8675.62
-8613.98
-8553.34
-8493.71
-8435.12
-8377.57
-8321.07
-8265.61
-8211.18
-8157.77
-8105.36
-8053.94
-8003.49
-7953.98
-7905.4
-7857.71
-7810.91
-7764.97
-7719.88
-7675.6
-7632.12
-7589.42
-7547.48
-7506.29
-7465.83
-7426.09
-7387.04
-7348.68
-7310.99
-7273.96
-7237.57
-7201.84
-7166.73
-7132.26
-7098.41
-7065.17
-7032.54
-7000.51
-6969.08
-6938.24
-6907.99
-6878.33
-6849.25
-6820.75
-6792.84
-6765.51
-6738.76
-6712.59
-6687.01
-6662.02
-6637.62
-6613.82
-6590.62
-6568.02
-6546.03
-6524.65
-6503.9
-6483.77
-6464.28
-6445.44
-6427.24
-6409.71
-6392.84
-6376.65
-6361.15
-6346.34
-6332.24
-6318.86
-6306.2
-6294.27
-6283.09
-6272.67
-6263
-6254.11
-6245.99
-6238.67
-6232.13
-6226.4
-6221.48
-6217.37
-6214.07
-6211.6
-6209.95
-6209.12
-9439.68
-9482.35
-9464.09
-9429.58
-9383.92
-9331.52
-9274.86
-9215.39
-9154.07
-9091.58
-9028.43
-8965.02
-8901.66
-8838.56
-8775.93
-8713.91
-8652.61
-8592.12
-8532.5
-8473.81
-8416.07
-8359.31
-8303.53
-8248.74
-8194.94
-8142.12
-8090.26
-8039.36
-7989.39
-7940.34
-7892.19
-7844.92
-7798.51
-7752.94
-7708.19
-7664.24
-7621.08
-7578.67
-7537.02
-7496.09
-7455.88
-7416.37
-7377.54
-7339.38
-7301.88
-7265.03
-7228.82
-7193.23
-7158.28
-7123.93
-7090.2
-7057.08
-7024.54
-6992.61
-6961.25
-6930.49
-6900.3
-6870.69
-6841.65
-6813.19
-6785.3
-6757.99
-6731.25
-6705.09
-6679.51
-6654.51
-6630.09
-6606.26
-6583.03
-6560.39
-6538.36
-6516.94
-6496.13
-6475.95
-6456.4
-6437.49
-6419.23
-6401.62
-6384.68
-6368.41
-6352.83
-6337.95
-6323.77
-6310.31
-6297.57
-6285.57
-6274.31
-6263.81
-6254.07
-6245.11
-6236.94
-6229.55
-6222.97
-6217.19
-6212.22
-6208.08
-6204.75
-6202.26
-6200.59
-6199.76
-9233.72
-9324.52
-9358.01
-9346.46
-9315.24
-9273.02
-9223.82
-9170.03
-9113.19
-9054.33
-8994.16
-8933.23
-8871.95
-8810.65
-8749.57
-8688.9
-8628.81
-8569.4
-8510.77
-8452.97
-8396.06
-8340.07
-8285.01
-8230.89
-8177.72
-8125.49
-8074.2
-8023.83
-7974.37
-7925.8
-7878.11
-7831.27
-7785.28
-7740.1
-7695.72
-7652.12
-7609.28
-7567.19
-7525.83
-7485.18
-7445.24
-7405.97
-7367.37
-7329.43
-7292.13
-7255.47
-7219.44
-7184.03
-7149.22
-7115.02
-7081.42
-7048.41
-7015.98
-6984.14
-6952.87
-6922.18
-6892.06
-6862.5
-6833.51
-6805.08
-6777.22
-6749.93
-6723.2
-6697.04
-6671.46
-6646.44
-6622.01
-6598.15
-6574.88
-6552.21
-6530.13
-6508.65
-6487.79
-6467.55
-6447.93
-6428.95
-6410.61
-6392.92
-6375.9
-6359.55
-6343.89
-6328.92
-6314.65
-6301.1
-6288.28
-6276.19
-6264.85
-6254.27
-6244.45
-6235.42
-6227.17
-6219.72
-6213.08
-6207.24
-6202.23
-6198.05
-6194.69
-6192.17
-6190.49
-6189.65
-9335.86
-9312.67
-9296.49
-9283.32
-9257.79
-9221.37
-9177.24
-9127.71
-9074.39
-9018.43
-8960.68
-8901.8
-8842.28
-8782.5
-8722.77
-8663.31
-8604.31
-8545.9
-8488.18
-8431.24
-8375.13
-8319.89
-8265.54
-8212.1
-8159.56
-8107.94
-8057.23
-8007.41
-7958.47
-7910.4
-7863.18
-7816.79
-7771.23
-7726.45
-7682.46
-7639.23
-7596.75
-7554.99
-7513.94
-7473.59
-7433.92
-7394.91
-7356.56
-7318.85
-7281.77
-7245.31
-7209.46
-7174.22
-7139.58
-7105.53
-7072.07
-7039.18
-7006.87
-6975.12
-6943.95
-6913.33
-6883.27
-6853.78
-6824.83
-6796.45
-6768.62
-6741.34
-6714.62
-6688.47
-6662.87
-6637.84
-6613.38
-6589.5
-6566.19
-6543.47
-6521.34
-6499.81
-6478.88
-6458.57
-6438.88
-6419.82
-6401.4
-6383.63
-6366.51
-6350.07
-6334.32
-6319.25
-6304.89
-6291.24
-6278.32
-6266.14
-6254.7
-6244.03
-6234.13
-6225.01
-6216.69
-6209.17
-6202.46
-6196.57
-6191.5
-6187.27
-6183.88
-6181.33
-6179.63
-6178.78
-9051.15
-9178.44
-9231.93
-9232.66
-9211.14
-9177.61
-9136.21
-9089.22
-9038.19
-8984.26
-8928.31
-8870.99
-8812.86
-8754.32
-8695.71
-8637.29
-8579.24
-8521.72
-8464.84
-8408.7
-8353.34
-8298.83
-8245.17
-8192.39
-8140.5
-8089.49
-8039.36
-7990.1
-7941.7
-7894.15
-7847.42
-7801.51
-7756.39
-7712.04
-7668.45
-7625.61
-7583.49
-7542.08
-7501.36
-7461.32
-7421.94
-7383.22
-7345.12
-7307.65
-7270.79
-7234.54
-7198.9
-7163.84
-7129.37
-7095.48
-7062.15
-7029.4
-6997.21
-6965.57
-6934.48
-6903.95
-6873.97
-6844.53
-6815.63
-6787.29
-6759.48
-6732.23
-6705.52
-6679.36
-6653.76
-6628.71
-6604.23
-6580.31
-6556.96
-6534.19
-6512
-6490.41
-6469.41
-6449.02
-6429.25
-6410.1
-6391.59
-6373.73
-6356.52
-6339.98
-6324.11
-6308.94
-6294.47
-6280.72
-6267.69
-6255.41
-6243.87
-6233.1
-6223.11
-6213.9
-6205.49
-6197.89
-6191.11
-6185.15
-6180.03
-6175.75
-6172.32
-6169.74
-6168.02
-6167.16
-9274.83
-9263.77
-9233.77
-9206.38
-9176.63
-9141.54
-9100.61
-9054.73
-9004.93
-8952.17
-8897.31
-8841.02
-8783.85
-8726.21
-8668.47
-8610.87
-8553.62
-8496.88
-8440.76
-8385.35
-8330.72
-8276.9
-8223.92
-8171.8
-8120.54
-8070.15
-8020.62
-7971.94
-7924.09
-7877.07
-7830.85
-7785.42
-7740.77
-7696.87
-7653.71
-7611.27
-7569.53
-7528.48
-7488.11
-7448.4
-7409.33
-7370.89
-7333.07
-7295.85
-7259.23
-7223.2
-7187.76
-7152.9
-7118.6
-7084.87
-7051.7
-7019.08
-6987.01
-6955.49
-6924.5
-6894.05
-6864.14
-6834.76
-6805.92
-6777.61
-6749.84
-6722.6
-6695.9
-6669.74
-6644.13
-6619.06
-6594.54
-6570.59
-6547.19
-6524.37
-6502.12
-6480.46
-6459.38
-6438.91
-6419.05
-6399.81
-6381.2
-6363.23
-6345.91
-6329.26
-6313.29
-6298
-6283.42
-6269.55
-6256.41
-6244.01
-6232.36
-6221.48
-6211.38
-6202.07
-6193.57
-6185.88
-6179.01
-6172.99
-6167.8
-6163.47
-6160
-6157.38
-6155.64
-6154.77
-9271.67
-9216.87
-9197.87
-9176.12
-9147.22
-9111.5
-9070.17
-9024.21
-8974.58
-8922.16
-8867.73
-8811.93
-8755.29
-8698.23
-8641.09
-8584.11
-8527.51
-8471.43
-8415.98
-8361.25
-8307.29
-8254.14
-8201.82
-8150.35
-8099.73
-8049.96
-8001.03
-7952.94
-7905.66
-7859.19
-7813.5
-7768.58
-7724.41
-7680.97
-7638.25
-7596.23
-7554.89
-7514.22
-7474.21
-7434.84
-7396.09
-7357.95
-7320.41
-7283.46
-7247.09
-7211.29
-7176.06
-7141.4
-7107.29
-7073.73
-7040.72
-7008.24
-6976.3
-6944.89
-6914
-6883.64
-6853.81
-6824.49
-6795.7
-6767.43
-6739.69
-6712.47
-6685.77
-6659.61
-6633.98
-6608.89
-6584.35
-6560.35
-6536.9
-6514.02
-6491.7
-6469.96
-6448.81
-6428.24
-6408.29
-6388.94
-6370.23
-6352.14
-6334.71
-6317.94
-6301.84
-6286.43
-6271.72
-6257.72
-6244.45
-6231.93
-6220.16
-6209.16
-6198.94
-6189.52
-6180.92
-6173.13
-6166.18
-6160.07
-6154.82
-6150.42
-6146.9
-6144.26
-6142.49
-6141.6
-9373.82
-9250.07
-9194.72
-9158.99
-9124.79
-9086.81
-9044.17
-8997.32
-8947.05
-8894.2
-8839.54
-8783.68
-8727.14
-8670.32
-8613.51
-8556.97
-8500.86
-8445.33
-8390.48
-8336.36
-8283.04
-8230.54
-8178.87
-8128.05
-8078.08
-8028.94
-7980.63
-7933.13
-7886.43
-7840.52
-7795.38
-7750.98
-7707.31
-7664.36
-7622.1
-7580.51
-7539.59
-7499.32
-7459.68
-7420.66
-7382.25
-7344.42
-7307.18
-7270.5
-7234.39
-7198.84
-7163.83
-7129.38
-7095.46
-7062.08
-7029.22
-6996.89
-6965.08
-6933.79
-6903.01
-6872.74
-6842.98
-6813.73
-6784.99
-6756.76
-6729.04
-6701.84
-6675.15
-6648.99
-6623.34
-6598.22
-6573.64
-6549.59
-6526.09
-6503.14
-6480.75
-6458.93
-6437.68
-6417.03
-6396.96
-6377.51
-6358.67
-6340.47
-6322.91
-6306.01
-6289.77
-6274.23
-6259.38
-6245.24
-6231.83
-6219.17
-6207.27
-6196.14
-6185.8
-6176.26
-6167.53
-6159.64
-6152.59
-6146.4
-6141.07
-6136.61
-6133.03
-6130.34
-6128.55
-6127.65
-9111.99
-9166.3
-9160.31
-9137.78
-9106.14
-9067.18
-9022.64
-8973.89
-8922.06
-8868.03
-8812.52
-8756.13
-8699.3
-8642.4
-8585.7
-8529.41
-8473.66
-8418.58
-8364.25
-8310.7
-8257.98
-8206.1
-8155.08
-8104.91
-8055.58
-8007.08
-7959.4
-7912.52
-7866.43
-7821.1
-7776.51
-7732.66
-7689.51
-7647.05
-7605.26
-7564.13
-7523.64
-7483.78
-7444.54
-7405.89
-7367.82
-7330.32
-7293.38
-7256.99
-7221.15
-7185.85
-7151.08
-7116.83
-7083.11
-7049.91
-7017.23
-6985.05
-6953.37
-6922.2
-6891.53
-6861.35
-6831.67
-6802.49
-6773.8
-6745.61
-6717.92
-6690.73
-6664.05
-6637.87
-6612.21
-6587.06
-6562.44
-6538.34
-6514.77
-6491.75
-6469.28
-6447.37
-6426.03
-6405.26
-6385.09
-6365.51
-6346.55
-6328.21
-6310.52
-6293.47
-6277.09
-6261.4
-6246.4
-6232.11
-6218.55
-6205.74
-6193.69
-6182.41
-6171.93
-6162.26
-6153.41
-6145.4
-6138.25
-6131.96
-6126.54
-6122.01
-6118.37
-6115.64
-6113.82
-6112.9
-9152.04
-9151.5
-9150.03
-9129.15
-9094.92
-9052.81
-9005.13
-8953.54
-8899.3
-8843.35
-8786.41
-8729
-8671.52
-8614.28
-8557.48
-8501.28
-8445.79
-8391.08
-8337.21
-8284.2
-8232.07
-8180.82
-8130.44
-8080.92
-8032.25
-7984.41
-7937.38
-7891.14
-7845.66
-7800.93
-7756.93
-7713.63
-7671.02
-7629.08
-7587.79
-7547.12
-7507.08
-7467.64
-7428.8
-7390.53
-7352.82
-7315.66
-7279.04
-7242.95
-7207.38
-7172.34
-7137.81
-7103.79
-7070.27
-7037.26
-7004.75
-6972.72
-6941.19
-6910.14
-6879.57
-6849.49
-6819.89
-6790.78
-6762.14
-6733.99
-6706.33
-6679.16
-6652.47
-6626.29
-6600.6
-6575.42
-6550.74
-6526.59
-6502.96
-6479.86
-6457.3
-6435.29
-6413.85
-6392.97
-6372.67
-6352.96
-6333.86
-6315.38
-6297.53
-6280.33
-6263.8
-6247.94
-6232.78
-6218.33
-6204.61
-6191.63
-6179.42
-6167.99
-6157.35
-6147.54
-6138.55
-6130.41
-6123.14
-6116.74
-6111.23
-6106.62
-6102.92
-6100.14
-6098.28
-6097.35
-9100.07
-9160.02
-9153.92
-9129.24
-9091.29
-9044.2
-8991.65
-8935.86
-8878.23
-8819.65
-8760.74
-8701.94
-8643.52
-8585.72
-8528.66
-8472.45
-8417.14
-8362.76
-8309.32
-8256.84
-8205.29
-8154.66
-8104.93
-8056.09
-8008.09
-7960.93
-7914.57
-7868.98
-7824.15
-7780.04
-7736.64
-7693.93
-7651.87
-7610.47
-7569.68
-7529.51
-7489.93
-7450.93
-7412.5
-7374.62
-7337.28
-7300.47
-7264.18
-7228.39
-7193.11
-7158.33
-7124.05
-7090.26
-7056.95
-7024.14
-6991.8
-6959.93
-6928.54
-6897.62
-6867.16
-6837.18
-6807.66
-6778.61
-6750.03
-6721.92
-6694.28
-6667.12
-6640.43
-6614.23
-6588.52
-6563.3
-6538.58
-6514.36
-6490.66
-6467.47
-6444.82
-6422.71
-6401.14
-6380.14
-6359.71
-6339.86
-6320.62
-6301.98
-6283.97
-6266.61
-6249.9
-6233.87
-6218.53
-6203.9
-6189.99
-6176.84
-6164.45
-6152.85
-6142.05
-6132.07
-6122.94
-6114.66
-6107.25
-6100.74
-6095.12
-6090.42
-6086.65
-6083.81
-6081.92
-6080.97
-9093.09
-9164.89
-9177.61
-9145.96
-9096.98
-9040.86
-8981.26
-8919.99
-8858.1
-8796.29
-8734.99
-8674.47
-8614.91
-8556.4
-8499
-8442.71
-8387.55
-8333.48
-8280.49
-8228.54
-8177.59
-8127.61
-8078.56
-8030.41
-7983.12
-7936.65
-7890.98
-7846.08
-7801.91
-7758.45
-7715.67
-7673.56
-7632.08
-7591.23
-7550.97
-7511.3
-7472.2
-7433.65
-7395.64
-7358.17
-7321.21
-7284.76
-7248.81
-7213.34
-7178.36
-7143.85
-7109.82
-7076.26
-7043.17
-7010.55
-6978.39
-6946.69
-6915.45
-6884.65
-6854.31
-6824.43
-6794.99
-6766.01
-6737.48
-6709.4
-6681.79
-6654.64
-6627.95
-6601.73
-6575.99
-6550.72
-6525.94
-6501.66
-6477.88
-6454.6
-6431.85
-6409.62
-6387.94
-6366.8
-6346.23
-6326.23
-6306.82
-6288.02
-6269.84
-6252.29
-6235.4
-6219.17
-6203.64
-6188.82
-6174.72
-6161.37
-6148.79
-6137
-6126.02
-6115.87
-6106.57
-6098.13
-6090.58
-6083.94
-6078.21
-6073.41
-6069.56
-6066.66
-6064.73
-6063.76
-9468.95
-9338.22
-9247.38
-9176.36
-9108.93
-9041.02
-8972.65
-8904.75
-8837.9
-8772.41
-8708.45
-8646.06
-8585.26
-8526
-8468.23
-8411.87
-8356.87
-8303.14
-8250.62
-8199.23
-8148.92
-8099.62
-8051.29
-8003.87
-7957.31
-7911.58
-7866.64
-7822.44
-7778.96
-7736.17
-7694.04
-7652.55
-7611.67
-7571.39
-7531.68
-7492.53
-7453.92
-7415.84
-7378.28
-7341.22
-7304.65
-7268.57
-7232.96
-7197.81
-7163.13
-7128.9
-7095.13
-7061.82
-7028.95
-6996.53
-6964.56
-6933.02
-6901.92
-6871.26
-6841.04
-6811.25
-6781.89
-6752.98
-6724.5
-6696.46
-6668.87
-6641.72
-6615.03
-6588.79
-6563.01
-6537.7
-6512.86
-6488.5
-6464.63
-6441.26
-6418.4
-6396.05
-6374.23
-6352.95
-6332.22
-6312.06
-6292.48
-6273.5
-6255.13
-6237.39
-6220.3
-6203.87
-6188.13
-6173.09
-6158.79
-6145.23
-6132.44
-6120.45
-6109.26
-6098.92
-6089.44
-6080.83
-6073.12
-6066.33
-6060.48
-6055.58
-6051.64
-6048.67
-6046.69
-6045.7
-9457.31
-9382.97
-9296.1
-9208.62
-9123.61
-9041.69
-8963.49
-8888.45
-8816.34
-8747.02
-8680.32
-8616.06
-8554.04
-8494.08
-8436.01
-8379.67
-8324.9
-8271.58
-8219.6
-8168.85
-8119.24
-8070.68
-8023.12
-7976.48
-7930.7
-7885.74
-7841.55
-7798.1
-7755.34
-7713.24
-7671.79
-7630.94
-7590.68
-7550.99
-7511.84
-7473.22
-7435.12
-7397.52
-7360.41
-7323.78
-7287.61
-7251.91
-7216.65
-7181.83
-7147.45
-7113.51
-7080.01
-7046.94
-7014.3
-6982.09
-6950.3
-6918.93
-6887.99
-6857.46
-6827.35
-6797.66
-6768.39
-6739.54
-6711.11
-6683.11
-6655.53
-6628.39
-6601.69
-6575.42
-6549.6
-6524.24
-6499.34
-6474.9
-6450.94
-6427.46
-6404.48
-6382
-6360.04
-6338.6
-6317.71
-6297.38
-6277.62
-6258.44
-6239.87
-6221.92
-6204.61
-6187.96
-6171.99
-6156.73
-6142.19
-6128.4
-6115.39
-6103.17
-6091.77
-6081.22
-6071.53
-6062.74
-6054.86
-6047.91
-6041.92
-6036.89
-6032.86
-6029.82
-6027.79
-6026.77
-9700.17
-9485.8
-9345.62
-9231.61
-9130.83
-9038.32
-8951.19
-8869.22
-8791.99
-8719.01
-8649.77
-8583.83
-8520.79
-8460.31
-8402.1
-8345.9
-8291.5
-8238.71
-8187.36
-8137.33
-8088.5
-8040.75
-7994.01
-7948.21
-7903.26
-7859.12
-7815.73
-7773.06
-7731.05
-7689.68
-7648.92
-7608.74
-7569.12
-7530.04
-7491.47
-7453.4
-7415.82
-7378.71
-7342.07
-7305.88
-7270.13
-7234.8
-7199.91
-7165.43
-7131.36
-7097.72
-7064.48
-7031.66
-6999.25
-6967.25
-6935.65
-6904.45
-6873.66
-6843.26
-6813.27
-6783.67
-6754.49
-6725.7
-6697.32
-6669.35
-6641.79
-6614.65
-6587.94
-6561.64
-6535.78
-6510.36
-6485.38
-6460.86
-6436.8
-6413.21
-6390.1
-6367.48
-6345.37
-6323.77
-6302.71
-6282.18
-6262.22
-6242.84
-6224.05
-6205.87
-6188.33
-6171.45
-6155.24
-6139.73
-6124.94
-6110.9
-6097.64
-6085.18
-6073.54
-6062.76
-6052.85
-6043.85
-6035.78
-6028.66
-6022.51
-6017.35
-6013.21
-6010.09
-6008
-6006.95
-9516.68
-9463.19
-9363.6
-9248.81
-9136.02
-9030.38
-8933.78
-8845.23
-8763.4
-8687.24
-8615.91
-8548.67
-8484.95
-8424.25
-8366.16
-8310.33
-8256.48
-8204.37
-8153.81
-8104.62
-8056.67
-8009.82
-7963.99
-7919.08
-7875.02
-7831.75
-7789.2
-7747.34
-7706.13
-7665.52
-7625.48
-7585.99
-7547.03
-7508.57
-7470.6
-7433.1
-7396.05
-7359.45
-7323.28
-7287.54
-7252.21
-7217.28
-7182.75
-7148.62
-7114.88
-7081.52
-7048.56
-7015.99
-6983.81
-6952.02
-6920.61
-6889.59
-6858.95
-6828.69
-6798.81
-6769.32
-6740.21
-6711.48
-6683.15
-6655.21
-6627.67
-6600.53
-6573.79
-6547.47
-6521.56
-6496.08
-6471.02
-6446.41
-6422.24
-6398.53
-6375.28
-6352.52
-6330.24
-6308.47
-6287.21
-6266.49
-6246.32
-6226.71
-6207.69
-6189.28
-6171.48
-6154.34
-6137.87
-6122.09
-6107.04
-6092.73
-6079.2
-6066.47
-6054.57
-6043.53
-6033.38
-6024.15
-6015.87
-6008.56
-6002.24
-5996.94
-5992.67
-5989.46
-5987.31
-5986.23
-9743.45
-9582.85
-9409.88
-9259
-9127.43
-9011.82
-8908.25
-8814.52
-8729.13
-8650.66
-8577.95
-8510.02
-8446.12
-8385.6
-8327.96
-8272.79
-8219.73
-8168.5
-8118.89
-8070.68
-8023.72
-7977.88
-7933.04
-7889.11
-7846
-7803.65
-7762
-7720.99
-7680.6
-7640.78
-7601.49
-7562.72
-7524.44
-7486.63
-7449.27
-7412.35
-7375.85
-7339.76
-7304.08
-7268.79
-7233.89
-7199.36
-7165.21
-7131.42
-7098.01
-7064.96
-7032.28
-6999.96
-6968.01
-6936.43
-6905.22
-6874.37
-6843.88
-6813.75
-6783.99
-6754.6
-6725.57
-6696.91
-6668.62
-6640.71
-6613.18
-6586.03
-6559.28
-6532.91
-6506.95
-6481.4
-6456.26
-6431.55
-6407.26
-6383.42
-6360.03
-6337.11
-6314.66
-6292.7
-6271.25
-6250.31
-6229.92
-6210.07
-6190.8
-6172.13
-6154.07
-6136.65
-6119.89
-6103.83
-6088.48
-6073.88
-6060.05
-6047.03
-6034.85
-6023.54
-6013.12
-6003.64
-5995.12
-5987.59
-5981.09
-5975.62
-5971.22
-5967.9
-5965.69
-5964.57
-9890.06
-9633.43
-9427.82
-9256.08
-9109.61
-8983.12
-8872.98
-8775.51
-8687.95
-8608.34
-8535.2
-8467.35
-8403.88
-8344.06
-8287.3
-8233.11
-8181.13
-8131.03
-8082.55
-8035.49
-7989.66
-7944.94
-7901.18
-7858.3
-7816.22
-7774.85
-7734.14
-7694.04
-7654.5
-7615.5
-7576.99
-7538.96
-7501.39
-7464.24
-7427.51
-7391.18
-7355.24
-7319.68
-7284.49
-7249.67
-7215.2
-7181.08
-7147.3
-7113.87
-7080.78
-7048.03
-7015.63
-6983.58
-6951.87
-6920.5
-6889.48
-6858.8
-6828.47
-6798.48
-6768.83
-6739.53
-6710.58
-6681.98
-6653.74
-6625.86
-6598.33
-6571.18
-6544.4
-6517.99
-6491.97
-6466.34
-6441.12
-6416.3
-6391.89
-6367.91
-6344.37
-6321.28
-6298.65
-6276.49
-6254.82
-6233.66
-6213.03
-6192.93
-6173.4
-6154.44
-6136.1
-6118.38
-6101.32
-6084.94
-6069.28
-6054.36
-6040.21
-6026.88
-6014.38
-6002.76
-5992.06
-5982.3
-5973.52
-5965.76
-5959.04
-5953.39
-5948.84
-5945.41
-5943.11
-5941.96
-9955.79
-9632.75
-9399.13
-9215.76
-9064.81
-8936.49
-8824.89
-8726.55
-8638.8
-8559.55
-8487.14
-8420.3
-8358.01
-8299.47
-8244.06
-8191.25
-8140.65
-8091.92
-8044.8
-7999.05
-7954.51
-7911.01
-7868.45
-7826.71
-7785.71
-7745.39
-7705.67
-7666.52
-7627.88
-7589.73
-7552.03
-7514.76
-7477.9
-7441.44
-7405.35
-7369.62
-7334.25
-7299.22
-7264.54
-7230.19
-7196.16
-7162.46
-7129.07
-7095.99
-7063.22
-7030.78
-6998.66
-6966.87
-6935.4
-6904.25
-6873.42
-6842.92
-6812.74
-6782.88
-6753.35
-6724.15
-6695.27
-6666.73
-6638.53
-6610.67
-6583.15
-6555.98
-6529.17
-6502.72
-6476.64
-6450.93
-6425.61
-6400.67
-6376.14
-6352.01
-6328.31
-6305.04
-6282.21
-6259.85
-6237.96
-6216.56
-6195.66
-6175.3
-6155.48
-6136.23
-6117.58
-6099.55
-6082.16
-6065.45
-6049.44
-6034.17
-6019.68
-6006
-5993.16
-5981.21
-5970.18
-5960.12
-5951.05
-5943.02
-5936.07
-5930.22
-5925.5
-5921.94
-5919.55
-5918.36
-9885.16
-9570.86
-9339.83
-9155.8
-9003.22
-8874.37
-8763.72
-8667.02
-8581.17
-8503.92
-8433.54
-8368.7
-8308.38
-8251.76
-8198.2
-8147.19
-8098.31
-8051.22
-8005.67
-7961.43
-7918.31
-7876.18
-7834.9
-7794.39
-7754.55
-7715.32
-7676.65
-7638.48
-7600.77
-7563.5
-7526.64
-7490.15
-7454.03
-7418.26
-7382.83
-7347.72
-7312.92
-7278.44
-7244.27
-7210.39
-7176.82
-7143.52
-7110.52
-7077.79
-7045.36
-7013.22
-6981.39
-6949.85
-6918.62
-6887.69
-6857.06
-6826.73
-6796.71
-6766.98
-6737.56
-6708.45
-6679.65
-6651.17
-6623.01
-6595.16
-6567.65
-6540.46
-6513.62
-6487.12
-6460.97
-6435.17
-6409.74
-6384.69
-6360.02
-6335.74
-6311.87
-6288.41
-6265.38
-6242.79
-6220.66
-6199.01
-6177.84
-6157.19
-6137.07
-6117.51
-6098.53
-6080.16
-6062.42
-6045.34
-6028.97
-6013.33
-5998.46
-5984.4
-5971.19
-5958.87
-5947.49
-5937.08
-5927.7
-5919.38
-5912.16
-5906.08
-5901.17
-5897.47
-5894.98
-5893.74
-9596.47
-9411.67
-9221.37
-9055.46
-8914.19
-8793.22
-8688.48
-8596.61
-8514.94
-8441.41
-8374.37
-8312.59
-8255.05
-8201
-8149.81
-8101
-8054.17
-8009
-7965.24
-7922.67
-7881.13
-7840.47
-7800.59
-7761.38
-7722.78
-7684.71
-7647.12
-7609.98
-7573.24
-7536.87
-7500.86
-7465.18
-7429.81
-7394.76
-7359.99
-7325.5
-7291.3
-7257.37
-7223.7
-7190.31
-7157.18
-7124.31
-7091.69
-7059.32
-7027.22
-6995.39
-6963.84
-6932.57
-6901.57
-6870.86
-6840.42
-6810.27
-6780.39
-6750.8
-6721.49
-6692.47
-6663.75
-6635.32
-6607.19
-6579.36
-6551.84
-6524.64
-6497.75
-6471.2
-6444.97
-6419.09
-6393.55
-6368.37
-6343.55
-6319.11
-6295.06
-6271.4
-6248.15
-6225.33
-6202.95
-6181.03
-6159.58
-6138.63
-6118.19
-6098.3