/*--------------------------------*- C++ -*----------------------------------*\
| =========                 |                                                 |
| \\      /  F ield         | OpenFOAM: The Open Source CFD Toolbox           |
|  \\    /   O peration     | Version:  4.1                                   |
|   \\  /    A nd           | Web:      www.OpenFOAM.org                      |
|    \\/     M anipulation  |                                                 |
\*---------------------------------------------------------------------------*/
FoamFile
{
    version     2.0;
    format      ascii;
    class       surfaceScalarField;
    location    "0.101";
    object      phi;
}
// * * * * * * * * * * * * * * * * * * * * * * * * * * * * * * * * * * * * * //

dimensions      [0 3 -1 0 0 0 0];

internalField   nonuniform List<scalar> 
87025
(
0.0201805
0.000339508
0.0199383
0.0002422
0.019779
0.000159251
0.0196944
8.45838e-05
0.0196768
1.76111e-05
0.019695
-1.82324e-05
0.019719
-2.39514e-05
0.0197333
-1.43059e-05
0.0197323
1.0191e-06
0.0197089
2.33714e-05
0.0196599
4.89975e-05
0.0195943
6.56143e-05
0.0195322
6.21115e-05
0.0194895
4.26987e-05
0.0194641
2.53721e-05
0.0194359
2.82623e-05
0.019383
5.28633e-05
0.0193016
8.13612e-05
0.0192083
9.32871e-05
0.0191232
8.51634e-05
0.0190511
7.20608e-05
0.0189813
6.97781e-05
0.0189021
7.92297e-05
0.0188139
8.81936e-05
0.0187269
8.69849e-05
0.0186477
7.9241e-05
0.0185708
7.6851e-05
0.0184844
8.64894e-05
0.0183822
0.000102145
0.0182706
0.000111582
0.0181606
0.000110063
0.0180552
0.000105408
0.0179454
0.000109731
0.0178185
0.000126904
0.0176705
0.000148017
0.0175111
0.000159393
0.0173561
0.000155011
0.0172138
0.000142258
0.0170776
0.000136212
0.0169287
0.000148928
0.0167471
0.000181577
0.0165233
0.00022387
0.0162625
0.000260743
0.0159814
0.000281135
0.0156983
0.000283061
0.0154263
0.000271972
0.0151701
0.000256202
0.0149277
0.000242474
0.0146938
0.000233819
0.0144634
0.000230452
0.0142324
0.000231025
0.0139985
0.000233891
0.0137607
0.000237764
0.0135187
0.000242056
0.0132722
0.000246504
0.0130212
0.000250946
0.0127657
0.000255465
0.0125058
0.000259949
0.0122412
0.000264554
0.0119721
0.000269175
0.0116983
0.000273794
0.0114198
0.000278424
0.0111368
0.000283064
0.0108491
0.000287658
0.0105569
0.00029227
0.01026
0.000296882
0.00995856
0.000301414
0.00965276
0.000305807
0.00934268
0.000310076
0.00902846
0.000314221
0.00871028
0.000318178
0.00838839
0.000321895
0.00806306
0.000325322
0.00773465
0.000328413
0.0074035
0.00033115
0.00707007
0.000333432
0.00673485
0.000335215
0.00639841
0.00033644
0.00606137
0.000337042
0.00572441
0.000336959
0.00538827
0.000336143
0.00505373
0.000334542
0.00472161
0.000332118
0.00439276
0.000328846
0.00406805
0.000324711
0.00374832
0.000319736
0.00343436
0.000313957
0.00312692
0.000307442
0.00282663
0.000300292
0.00253399
0.000292641
0.00224935
0.000284638
0.00197287
0.000276483
0.00170448
0.000268386
0.0014439
0.000260579
0.00119061
0.000253295
0.000943838
0.000246768
0.000702606
0.000241232
0.000465771
0.000236835
0.000232014
0.000233757
0.000232014
0.0197882
0.000229254
0.019839
0.000191395
0.0198932
0.000105078
0.0199272
5.05619e-05
0.0199081
3.66951e-05
0.0198567
3.31797e-05
0.0198236
9.13892e-06
0.0198225
-1.31677e-05
0.0198291
-5.57721e-06
0.0198184
3.40671e-05
0.0197853
8.20859e-05
0.0197382
0.000112724
0.0196858
0.000114498
0.0196382
9.02515e-05
0.0196089
5.47246e-05
0.0196087
2.84173e-05
0.0196334
2.82193e-05
0.0196568
5.79038e-05
0.0196453
0.00010478
0.0195847
0.000145788
0.0194917
0.000165047
0.0193975
0.000164005
0.0193198
0.000156914
0.0192517
0.000156307
0.0191763
0.000162364
0.0190892
0.00016634
0.019004
0.00016205
0.0189372
0.000153271
0.018889
0.00015041
0.0188401
0.000160498
0.0187696
0.000180579
0.0186745
0.000200471
0.0185726
0.000211658
0.0184858
0.000213713
0.0184197
0.000214115
0.0183576
0.000221491
0.0182744
0.000238215
0.018157
0.000259572
0.0180153
0.000277926
0.0178749
0.00028935
0.0177598
0.000296647
0.017678
0.000305702
0.0176185
0.000320257
0.0175599
0.000339678
0.0174819
0.000361069
0.0173722
0.000381679
0.0172283
0.000400173
0.0170549
0.00041584
0.0168598
0.000428946
0.0166502
0.000440062
0.0164315
0.000449653
0.0162071
0.000458335
0.0159782
0.000466601
0.0157457
0.00047462
0.0155096
0.000482621
0.0152698
0.000490714
0.0150264
0.000498845
0.0147792
0.000507152
0.0145281
0.000515621
0.0142731
0.000524206
0.014014
0.000532938
0.0137506
0.000541763
0.0134829
0.000550765
0.0132107
0.000559912
0.0129338
0.000569113
0.0126523
0.000578427
0.0123659
0.000587783
0.0120745
0.000597191
0.011778
0.000606586
0.0114763
0.000615939
0.0111692
0.000625252
0.0108567
0.000634416
0.0105387
0.000643378
0.0102149
0.000652199
0.00988539
0.000660634
0.00955009
0.000668729
0.00920892
0.000676384
0.00886184
0.000683516
0.00850885
0.000690039
0.00814993
0.00069588
0.00778512
0.000700947
0.0074145
0.000705169
0.00703813
0.000708481
0.00665616
0.000710823
0.00626871
0.000712153
0.005876
0.000712451
0.00547824
0.000711715
0.0050757
0.000709988
0.00466865
0.000707339
0.00425743
0.000703861
0.00384238
0.000699686
0.00342388
0.000694986
0.00300231
0.000689952
0.00257809
0.000684801
0.00215163
0.000679755
0.00172334
0.000675056
0.00129363
0.000670947
0.000862886
0.000667576
0.000431171
0.000665472
0.000663185
0.0198632
1.40416e-05
0.0199378
0.000116757
0.019972
7.08887e-05
0.019972
5.06123e-05
0.0199233
8.53142e-05
0.0198694
8.71332e-05
0.0198235
5.49969e-05
0.0197815
2.88106e-05
0.0197374
3.86138e-05
0.0197026
6.8853e-05
0.01969
9.46382e-05
0.0196887
0.000114
0.0196684
0.000134824
0.0196088
0.000149877
0.0195224
0.000141103
0.0194442
0.000106681
0.0194001
7.22223e-05
0.0193892
6.88834e-05
0.01939
0.000103997
0.0193798
0.000155959
0.01935
0.000194779
0.0193061
0.000207958
0.0192564
0.000206595
0.0192018
0.000210893
0.019134
0.000230214
0.0190428
0.00025748
0.0189259
0.000278992
0.0187917
0.000287463
0.0186559
0.000286238
0.0185335
0.000282833
0.018433
0.000281111
0.0183534
0.000280086
0.0182859
0.00027913
0.0182168
0.000282817
0.0181321
0.000298818
0.0180233
0.000330346
0.0178908
0.000370642
0.0177453
0.000405075
0.0176025
0.000420806
0.0174757
0.000416093
0.0173707
0.000401612
0.0172837
0.000392714
0.0172038
0.000400229
0.0171169
0.000426492
0.0170113
0.000466693
0.0168801
0.000512853
0.0167229
0.000557461
0.0165431
0.000595604
0.0163465
0.000625574
0.0161385
0.000648053
0.0159231
0.00066503
0.0157028
0.000678601
0.015479
0.00069043
0.015252
0.000701617
0.015022
0.000712584
0.014789
0.000723738
0.0145528
0.000735097
0.0143133
0.000746631
0.0140706
0.000758357
0.0138244
0.000770336
0.0135748
0.00078253
0.0133217
0.000794908
0.013065
0.000807489
0.0128046
0.000820272
0.0125405
0.000833209
0.0122726
0.000846325
0.0120008
0.000859584
0.0117251
0.000872897
0.0114453
0.000886416
0.0111613
0.000899939
0.010873
0.000913488
0.0105804
0.000927022
0.0102833
0.000940506
0.00998165
0.000953853
0.00967521
0.000967081
0.00936385
0.000980083
0.00904743
0.000992805
0.00872576
0.00100519
0.00839863
0.00101718
0.00806582
0.00102869
0.0077271
0.00103966
0.00738224
0.00105003
0.00703098
0.00105974
0.00667306
0.00106874
0.00630823
0.00107698
0.00593624
0.00108443
0.0055569
0.00109106
0.00517001
0.00109688
0.00477546
0.00110189
0.0043732
0.00110612
0.00396327
0.00110962
0.00354582
0.00111243
0.00312113
0.00111464
0.00268962
0.00111632
0.00225184
0.00111753
0.00180851
0.00111839
0.00136051
0.00111894
0.000908881
0.00111921
0.000454595
0.00111976
0.00111778
0.0198739
0.000141626
0.0198867
0.000103929
0.019885
7.25966e-05
0.019856
7.96225e-05
0.0198475
9.38309e-05
0.0198494
8.52447e-05
0.0198583
4.60422e-05
0.0198578
2.93189e-05
0.0198431
5.33493e-05
0.0198218
9.01567e-05
0.0198035
0.000112983
0.0197905
0.000126958
0.0197763
0.000148982
0.0197494
0.00017686
0.0196994
0.000191071
0.0196243
0.000181802
0.0195328
0.000163645
0.0194408
0.000160965
0.0193609
0.00018382
0.0192962
0.000220719
0.0192395
0.000251471
0.0191824
0.000265062
0.0191215
0.000267447
0.0190579
0.000274496
0.0189898
0.000298392
0.0189101
0.000337153
0.0188134
0.000375692
0.0187032
0.000397594
0.0185918
0.00039764
0.0184904
0.00038425
0.0184007
0.000370889
0.0183153
0.000365436
0.0182261
0.000368324
0.0181306
0.000378279
0.0180325
0.000396926
0.0179362
0.00042669
0.0178419
0.000464907
0.0177452
0.000501801
0.0176402
0.000525765
0.0175241
0.000532225
0.0173984
0.000527273
0.0172669
0.00052429
0.0171309
0.000536158
0.0169888
0.000568682
0.0168365
0.000618899
0.0166712
0.000678174
0.016492
0.000736655
0.0163002
0.00078746
0.016098
0.000827712
0.015888
0.000858078
0.0156719
0.000881139
0.0154509
0.000899589
0.0152258
0.000915579
0.0149969
0.00093047
0.0147644
0.000945113
0.0145284
0.000959714
0.014289
0.0009745
0.0140461
0.00098951
0.0137998
0.00100473
0.0135498
0.00102025
0.0132963
0.00103603
0.0130392
0.00105202
0.0127785
0.00106824
0.012514
0.00108475
0.0122457
0.00110145
0.0119737
0.00111834
0.0116979
0.00113539
0.0114182
0.00115261
0.0111347
0.00116994
0.0108472
0.00118738
0.0105559
0.00120486
0.0102606
0.00122234
0.00996123
0.00123983
0.00965784
0.00125724
0.00935038
0.00127454
0.00903877
0.00129169
0.00872295
0.00130863
0.00840282
0.00132532
0.0080783
0.0013417
0.00774925
0.00135774
0.00741553
0.00137338
0.00707697
0.0013886
0.00673337
0.00140334
0.00638453
0.00141758
0.00603021
0.0014313
0.00567018
0.00144447
0.00530418
0.00145706
0.00493198
0.00146908
0.00455339
0.00148048
0.00416823
0.00149127
0.00377643
0.00150142
0.00337799
0.00151087
0.00297303
0.00151959
0.00256185
0.0015275
0.00214484
0.00153454
0.00172262
0.00154061
0.00129593
0.00154563
0.000865735
0.0015494
0.000433032
0.00155246
0.00155081
0.0195941
-0.000294884
0.0197507
-5.27368e-05
0.019795
2.83254e-05
0.0198394
3.52242e-05
0.0198964
3.68007e-05
0.019916
6.56702e-05
0.019877
8.51037e-05
0.0198142
9.20744e-05
0.0197652
0.000102331
0.0197335
0.000121841
0.0197067
0.000139823
0.0196794
0.000154255
0.0196535
0.000174903
0.0196265
0.000203814
0.0195895
0.000228084
0.0195355
0.00023578
0.0194669
0.000232298
0.0193916
0.000236279
0.0193174
0.000257983
0.0192499
0.000288206
0.0191932
0.000308187
0.0191491
0.00030917
0.0191153
0.000301255
0.0190847
0.000305097
0.0190485
0.000334584
0.0189999
0.000385704
0.0189357
0.000439952
0.0188548
0.000478495
0.0187579
0.000494497
0.0186479
0.000494273
0.0185304
0.000488363
0.0184131
0.000482731
0.0183028
0.000478614
0.0182025
0.000478624
0.0181094
0.000490045
0.0180158
0.000520312
0.0179122
0.000568432
0.0177923
0.000621751
0.0176557
0.000662386
0.0175088
0.000679107
0.0173606
0.000675475
0.017217
0.00066784
0.0170781
0.00067507
0.0169387
0.000708107
0.0167917
0.000765931
0.0166316
0.000838284
0.016456
0.000912247
0.0162657
0.00097773
0.0160632
0.00103018
0.0158515
0.00106981
0.0156331
0.00109955
0.0154097
0.00112301
0.0151822
0.00114307
0.014951
0.00116167
0.0147163
0.00117975
0.0144782
0.00119787
0.0142365
0.00121619
0.0139911
0.00123485
0.0137421
0.0012538
0.0134893
0.001273
0.0132328
0.00129253
0.0129724
0.00131243
0.0127081
0.00133257
0.0124398
0.00135301
0.0121676
0.0013737
0.0118913
0.00139462
0.0116109
0.00141577
0.0113264
0.00143712
0.0110378
0.00145856
0.0107451
0.00148011
0.0104482
0.00150177
0.0101471
0.00152344
0.00984177
0.00154512
0.00953231
0.00156669
0.00921869
0.00158816
0.00890091
0.00160947
0.00857898
0.00163057
0.00825288
0.00165141
0.00792262
0.00167196
0.0075882
0.00169215
0.00724962
0.00171197
0.00690683
0.00173139
0.00655979
0.00175037
0.00620847
0.0017689
0.00585281
0.00178696
0.00549273
0.00180455
0.00512815
0.00182164
0.00475901
0.00183822
0.00438522
0.00185428
0.00400674
0.00186975
0.00362357
0.0018846
0.00323572
0.00189872
0.00284332
0.001912
0.00244654
0.00192427
0.00204571
0.00193537
0.00164124
0.00194508
0.00123365
0.00195322
0.000823619
0.00195943
0.000411807
0.00196427
0.00196262
0.0198531
-7.23853e-05
0.019847
-4.66537e-05
0.0198549
2.04512e-05
0.0198593
3.08221e-05
0.0198597
3.63901e-05
0.0198593
6.60508e-05
0.0198499
9.45211e-05
0.0198367
0.000105333
0.01982
0.000119037
0.0197897
0.00015212
0.0197336
0.000195882
0.0196571
0.000230818
0.0195857
0.000246244
0.0195445
0.000245036
0.0195349
0.000237696
0.0195339
0.000236711
0.0195152
0.000251071
0.0194717
0.00027975
0.0194182
0.000311468
0.0193724
0.000334025
0.0193353
0.000345329
0.0192897
0.000354717
0.0192172
0.000373761
0.0191162
0.000406064
0.0190046
0.000446187
0.0189049
0.000485406
0.0188269
0.000517984
0.0187623
0.00054306
0.0186946
0.00056219
0.0186134
0.000575501
0.0185214
0.000580329
0.0184292
0.000574982
0.0183433
0.000564472
0.0182596
0.000562388
0.0181654
0.000584196
0.0180502
0.000635522
0.017913
0.000705686
0.0177631
0.00077165
0.017614
0.000811493
0.0174753
0.000817808
0.0173484
0.000802312
0.0172275
0.000788761
0.0171034
0.0007992
0.016968
0.000843472
0.0168171
0.0009168
0.0166501
0.00100534
0.0164685
0.00109383
0.0162748
0.00117143
0.0160714
0.00123359
0.0158603
0.00128093
0.0156429
0.00131688
0.0154204
0.00134557
0.0151934
0.00137008
0.0149624
0.00139259
0.0147277
0.00141451
0.0144892
0.00143633
0.0142471
0.00145833
0.0140013
0.00148062
0.0137518
0.00150332
0.0134984
0.0015264
0.0132411
0.00154987
0.0129798
0.00157368
0.0127145
0.00159787
0.0124451
0.00162243
0.0121715
0.00164732
0.0118937
0.00167242
0.0116116
0.00169784
0.0113252
0.00172351
0.0110344
0.00174936
0.0107392
0.00177535
0.0104396
0.00180137
0.0101355
0.00182755
0.009827
0.0018536
0.00951404
0.00187965
0.00919663
0.00190557
0.00887479
0.00193131
0.00854854
0.00195682
0.0082179
0.00198205
0.00788293
0.00200693
0.00754367
0.00203142
0.00720016
0.00205548
0.00685246
0.00207908
0.00650066
0.00210217
0.00614481
0.00212475
0.005785
0.00214678
0.0054213
0.00216825
0.0050538
0.00218914
0.0046826
0.00220942
0.0043078
0.00222908
0.0039295
0.00224805
0.00354784
0.00226626
0.00316298
0.00228359
0.00277509
0.00229989
0.00238438
0.00231498
0.00199113
0.00232862
0.00159565
0.00234057
0.00119828
0.00235058
0.000799476
0.00235824
0.000399582
0.00236417
0.0023622
0.0199952
5.40278e-05
0.0199671
-1.85718e-05
0.0199555
3.21092e-05
0.0199252
6.11177e-05
0.0198797
8.18499e-05
0.0198481
9.76667e-05
0.0198334
0.000109208
0.0198214
0.000117326
0.0198051
0.000135352
0.0197823
0.000174972
0.01975
0.000228132
0.019707
0.000273827
0.0196582
0.000295051
0.019614
0.000289242
0.0195808
0.000270913
0.0195534
0.000264103
0.019519
0.000285468
0.0194684
0.000330293
0.0194037
0.000376175
0.0193353
0.000402411
0.0192731
0.000407622
0.0192184
0.000409327
0.0191644
0.000427845
0.0191
0.000470456
0.0190191
0.000527025
0.0189255
0.000579015
0.0188313
0.000612239
0.0187484
0.000625877
0.018679
0.0006316
0.0186122
0.000642344
0.0185324
0.000660173
0.0184317
0.000675682
0.0183151
0.000681002
0.0181946
0.000682944
0.0180773
0.000701462
0.0179607
0.000752077
0.0178377
0.000828754
0.0177049
0.000904421
0.0175673
0.000949136
0.0174342
0.00095086
0.0173125
0.000924041
0.0172012
0.000900031
0.017092
0.00090841
0.0169736
0.000961874
0.0168371
0.00105334
0.0166788
0.00116363
0.0165002
0.00127237
0.0163057
0.00136597
0.0160998
0.00143951
0.0158861
0.00149462
0.0156668
0.00153614
0.0154433
0.00156909
0.015216
0.00159739
0.014985
0.00162359
0.0147505
0.00164901
0.0145124
0.00167444
0.0142706
0.00170008
0.0140251
0.00172612
0.0137759
0.00175257
0.0135227
0.00177953
0.0132657
0.00180692
0.0130046
0.00183477
0.0127394
0.00186307
0.0124701
0.00189177
0.0121965
0.00192089
0.0119185
0.00195036
0.0116362
0.00198014
0.0113495
0.00201025
0.0110583
0.00204058
0.0107626
0.00207107
0.0104622
0.00210174
0.0101573
0.00213245
0.00984769
0.00216319
0.00953346
0.00219388
0.00921456
0.00222447
0.00889102
0.00225485
0.00856284
0.00228501
0.00823005
0.00231483
0.00789269
0.00234429
0.00755081
0.0023733
0.0072045
0.00240179
0.00685384
0.00242975
0.00649891
0.0024571
0.00613987
0.00248379
0.00577684
0.00250981
0.00540998
0.0025351
0.00503949
0.00255963
0.00466555
0.00258336
0.00428839
0.00260624
0.00390823
0.00262821
0.00352532
0.00264916
0.00313991
0.00266899
0.00275227
0.00268753
0.00236266
0.00270459
0.00197137
0.00271992
0.00157866
0.00273327
0.00118481
0.00274443
0.000790146
0.00275291
0.000394816
0.0027595
0.00275702
0.0198709
-1.64928e-05
0.0198626
-1.02687e-05
0.0198927
1.94675e-06
0.0199264
2.74557e-05
0.0199243
8.39874e-05
0.0198935
0.000128422
0.0198535
0.000149201
0.0198086
0.000162282
0.0197571
0.000186785
0.0197171
0.000214988
0.0197073
0.000237918
0.0197214
0.000259707
0.0197291
0.000287405
0.019702
0.000316341
0.0196376
0.000335284
0.0195568
0.000344881
0.0194812
0.000361143
0.0194157
0.000395739
0.0193526
0.000439314
0.0192857
0.000469288
0.0192197
0.000473591
0.0191645
0.00046455
0.0191236
0.00046877
0.0190897
0.000504389
0.0190502
0.000566458
0.0189976
0.000631621
0.0189335
0.000676352
0.0188646
0.000694743
0.0187954
0.000700882
0.0187231
0.000714643
0.0186397
0.000743559
0.0185377
0.000777628
0.0184166
0.000802154
0.0182838
0.000815728
0.0181513
0.000833905
0.018029
0.000874397
0.0179196
0.00093818
0.0178191
0.00100495
0.0177203
0.00104791
0.0176164
0.00105475
0.0175031
0.00103736
0.0173785
0.00102462
0.0172422
0.00104474
0.0170933
0.00111077
0.0169303
0.00121631
0.0167523
0.00134161
0.0165599
0.0014648
0.0163554
0.00157047
0.016142
0.0016529
0.0159226
0.001714
0.0156993
0.00175948
0.015473
0.00179538
0.015244
0.00182637
0.0150122
0.00185541
0.0147773
0.00188387
0.0145393
0.00191251
0.0142978
0.00194159
0.0140527
0.0019712
0.0138038
0.00200142
0.0135512
0.00203218
0.0132946
0.00206347
0.013034
0.00209538
0.0127693
0.00212782
0.0125003
0.00216071
0.0122271
0.0021941
0.0119495
0.00222793
0.0116675
0.00226219
0.011381
0.00229674
0.01109
0.00233163
0.0107943
0.00236678
0.010494
0.00240205
0.0101889
0.0024375
0.0098791
0.002473
0.00956454
0.00250844
0.00924521
0.0025438
0.00892109
0.00257897
0.00859218
0.00261391
0.0082585
0.00264851
0.0079201
0.00268268
0.00757703
0.00271637
0.00722933
0.00274949
0.00687712
0.00278195
0.0065205
0.00281372
0.0061596
0.00284469
0.00579461
0.00287481
0.00542568
0.00290403
0.00505304
0.00293226
0.00467694
0.00295946
0.00429764
0.00298555
0.00391543
0.00301042
0.00353061
0.00303399
0.0031435
0.00305611
0.0027544
0.00307663
0.00236363
0.00309535
0.0019715
0.00311205
0.00157828
0.00312649
0.00118423
0.00313848
0.000789605
0.00314753
0.000394508
0.00315459
0.00315152
0.0196438
-0.000181994
0.019808
-0.000174448
0.0199028
-9.28816e-05
0.0199148
1.54657e-05
0.0198771
0.000121659
0.0198335
0.000172003
0.0198097
0.000173009
0.0197937
0.000178329
0.0197655
0.000214977
0.0197233
0.000257149
0.0196862
0.000275006
0.0196658
0.000280102
0.0196504
0.000302847
0.0196192
0.000347526
0.0195662
0.000388313
0.0195069
0.000404112
0.0194643
0.000403801
0.0194476
0.00041241
0.0194463
0.000440578
0.0194395
0.000476103
0.0194102
0.000502909
0.0193532
0.000521574
0.0192744
0.000547548
0.019186
0.000592756
0.0191014
0.000651091
0.0190307
0.000702366
0.0189758
0.00073118
0.0189283
0.000742276
0.018872
0.000757229
0.0187922
0.000794383
0.0186849
0.000850889
0.0185578
0.000904675
0.0184246
0.000935428
0.0182963
0.000943982
0.0181776
0.000952604
0.0180677
0.000984324
0.0179638
0.00104203
0.0178632
0.0011056
0.0177624
0.00114869
0.0176572
0.00115999
0.0175425
0.00115206
0.0174142
0.00115289
0.0172702
0.00118868
0.0171109
0.00127012
0.0169382
0.001389
0.0167544
0.00152543
0.0165612
0.00165798
0.01636
0.00177165
0.016152
0.00186092
0.0159381
0.00192788
0.0157194
0.00197825
0.0154963
0.00201839
0.0152696
0.00205315
0.0150393
0.00208569
0.0148055
0.00211764
0.0145683
0.00214976
0.0143275
0.00218238
0.014083
0.0022157
0.0138348
0.00224958
0.0135828
0.00228419
0.0133268
0.00231952
0.0130667
0.00235542
0.0128026
0.00239198
0.0125342
0.00242913
0.0122614
0.00246682
0.0119843
0.0025051
0.0117027
0.00254378
0.0114165
0.0025829
0.0111257
0.0026224
0.0108303
0.00266222
0.0105301
0.00270226
0.0102251
0.00274244
0.00991541
0.00278273
0.0096008
0.00282306
0.0092813
0.00286329
0.00895693
0.00290335
0.00862767
0.00294317
0.00829355
0.00298263
0.00795458
0.00302166
0.00761081
0.00306014
0.00726233
0.00309798
0.00690917
0.0031351
0.00655149
0.00317139
0.00618941
0.00320677
0.00582308
0.00324114
0.0054527
0.00327441
0.00507848
0.00330648
0.00470068
0.00333725
0.00431958
0.00336665
0.00393547
0.00339453
0.00354869
0.00342077
0.00315955
0.00344525
0.0027684
0.00346777
0.00237558
0.00348818
0.00198139
0.00350624
0.00158614
0.00352174
0.00119009
0.00353453
0.000793494
0.00354413
0.000396444
0.00355164
0.00354797
0.0201798
6.91562e-05
0.0199834
2.19727e-05
0.0198796
1.09143e-05
0.0198311
6.40189e-05
0.0198428
0.000109939
0.0198612
0.000153582
0.0198525
0.000181701
0.0198194
0.000211437
0.0197854
0.000248977
0.0197663
0.000276298
0.0197544
0.000286889
0.0197347
0.000299759
0.019703
0.000334599
0.0196658
0.000384707
0.0196297
0.000424393
0.0195928
0.000440989
0.0195503
0.000446329
0.0195026
0.000460087
0.0194546
0.000488591
0.0194075
0.000523226
0.0193561
0.000554331
0.0192954
0.000582252
0.0192269
0.000616041
0.0191566
0.000663063
0.0190881
0.000719526
0.0190196
0.000770925
0.0189464
0.000804387
0.0188659
0.000822753
0.018778
0.000845096
0.0186823
0.000890092
0.0185778
0.00095542
0.0184664
0.00101611
0.0183549
0.00104686
0.0182516
0.00104727
0.0181596
0.00104464
0.0180732
0.0010707
0.0179819
0.00113337
0.0178775
0.00120995
0.0177598
0.00126646
0.0176345
0.00128521
0.0175082
0.00127841
0.017382
0.00127911
0.0172513
0.00131934
0.0171097
0.00141176
0.0169523
0.00154634
0.0167785
0.00169924
0.0165904
0.00184613
0.016391
0.00197104
0.0161832
0.00206866
0.0159692
0.00214186
0.0157504
0.00219714
0.0155275
0.00224128
0.0153009
0.00227971
0.015071
0.00231561
0.0148377
0.00235094
0.014601
0.00238642
0.0143608
0.00242257
0.0141171
0.00245944
0.0138695
0.00249715
0.0136181
0.00253559
0.0133628
0.00257482
0.0131034
0.00261484
0.0128398
0.00265556
0.012572
0.00269697
0.0122998
0.00273903
0.0120232
0.00278171
0.011742
0.00282497
0.0114562
0.00286869
0.0111657
0.00291285
0.0108706
0.00295736
0.0105707
0.00300218
0.0102658
0.00304728
0.00995609
0.00309247
0.00964143
0.00313772
0.00932182
0.0031829
0.00899724
0.00322793
0.00866769
0.00327272
0.00833316
0.00331716
0.00799371
0.00336112
0.00764934
0.0034045
0.00730015
0.00344718
0.00694618
0.00348906
0.00658758
0.00353
0.00622444
0.00356991
0.00585694
0.00360864
0.00548526
0.00364609
0.00510962
0.00368213
0.00473024
0.00371663
0.00434742
0.00374947
0.00396145
0.0037805
0.00357264
0.00380959
0.00318133
0.00383656
0.00278785
0.00386124
0.00239256
0.00388347
0.00199577
0.00390303
0.0015978
0.00391971
0.00119893
0.0039334
0.00079944
0.00394362
0.00039943
0.00395165
0.0039474
0.0198022
3.62543e-06
0.0198172
6.96793e-06
0.0198107
1.74443e-05
0.0198132
6.14366e-05
0.0198291
9.4106e-05
0.0198569
0.000125729
0.019852
0.000186665
0.0198128
0.000250618
0.0197755
0.000286282
0.019758
0.000293818
0.0197471
0.000297742
0.019726
0.000320844
0.0196991
0.000361498
0.0196833
0.000400516
0.0196809
0.000426848
0.0196739
0.000447963
0.0196425
0.000477678
0.0195844
0.000518271
0.0195131
0.000559836
0.0194431
0.000593264
0.019378
0.000619435
0.0193136
0.000646653
0.019246
0.000683592
0.0191746
0.000734526
0.0190979
0.000796156
0.0190127
0.000856102
0.018918
0.000899127
0.0188198
0.000920958
0.0187286
0.000936275
0.0186505
0.000968247
0.0185804
0.00102554
0.0185047
0.00109176
0.0184115
0.00114007
0.018298
0.00116078
0.0181712
0.00117147
0.0180414
0.00120042
0.0179163
0.00125852
0.0177983
0.00132789
0.0176878
0.00137702
0.017584
0.00138904
0.0174847
0.00137767
0.0173848
0.00137897
0.0172764
0.00142777
0.0171512
0.00153694
0.0170043
0.00169333
0.0168347
0.00186877
0.0166458
0.00203503
0.0164425
0.00217435
0.0162297
0.00228146
0.0160111
0.00236043
0.0157889
0.0024194
0.0155639
0.0024663
0.0153364
0.00250718
0.0151063
0.00254572
0.0148734
0.00258385
0.0146372
0.00262255
0.0143978
0.00266205
0.0141547
0.0027025
0.013908
0.00274387
0.0136574
0.00278619
0.0134028
0.00282942
0.0131441
0.00287351
0.0128812
0.00291843
0.0126141
0.00296415
0.0123424
0.00301065
0.0120663
0.00305782
0.0117857
0.00310559
0.0115004
0.00315398
0.0112104
0.00320291
0.0109155
0.00325224
0.0106157
0.00330199
0.010311
0.00335195
0.0100013
0.00340214
0.0096867
0.00345236
0.00936699
0.00350261
0.00904218
0.00355273
0.00871229
0.00360261
0.00837735
0.0036521
0.00803734
0.00370112
0.00769234
0.00374951
0.00734237
0.00379715
0.00698753
0.0038439
0.00662791
0.00388962
0.00626365
0.00393417
0.00589489
0.0039774
0.00552182
0.00401916
0.00514464
0.0040593
0.00476358
0.00409769
0.00437892
0.00413413
0.00399093
0.00416849
0.00359993
0.00420059
0.00320624
0.00423025
0.0028102
0.00425728
0.00241216
0.00428151
0.00201244
0.00430275
0.00161137
0.00432078
0.00120925
0.00433553
0.000806386
0.00434648
0.000402932
0.00435511
0.00435033
0.0201164
2.85632e-05
0.020078
4.54123e-05
0.0199968
9.86264e-05
0.0199528
0.000105416
0.0199357
0.000111218
0.0199036
0.00015782
0.0198737
0.000216647
0.0198658
0.000258454
0.0198744
0.000277708
0.0198799
0.000288285
0.0198663
0.000311418
0.0198317
0.000355356
0.019783
0.000410201
0.0197253
0.000458269
0.0196614
0.000490687
0.0195957
0.000513711
0.0195342
0.000539148
0.0194807
0.000571753
0.019432
0.000608628
0.0193784
0.000646822
0.0193116
0.000686275
0.0192308
0.000727359
0.0191447
0.000769762
0.0190651
0.000814124
0.0190001
0.00086113
0.0189487
0.000907552
0.0189013
0.000946524
0.0188459
0.000976322
0.0187745
0.00100767
0.0186871
0.00105561
0.0185904
0.00112224
0.0184931
0.00118913
0.0183999
0.00123328
0.0183094
0.0012513
0.0182144
0.00126644
0.0181071
0.00130774
0.0179841
0.00138144
0.0178499
0.00146211
0.017714
0.00151294
0.0175866
0.00151644
0.0174731
0.00149118
0.0173706
0.00148148
0.0172692
0.00152913
0.0171564
0.0016498
0.017022
0.00182765
0.0168624
0.00202836
0.0166796
0.00221783
0.0164792
0.00237479
0.0162672
0.00249349
0.0160484
0.00257925
0.0158258
0.00264201
0.0156007
0.00269135
0.0153736
0.0027343
0.0151441
0.0027752
0.0149119
0.00281603
0.0146768
0.00285771
0.0144383
0.00290057
0.0141962
0.00294456
0.0139503
0.00298973
0.0137006
0.0030359
0.0134469
0.00308313
0.013189
0.00313139
0.0129269
0.00318054
0.0126605
0.00323061
0.0123896
0.0032815
0.0121142
0.00333326
0.0118341
0.00338569
0.0115492
0.00343881
0.0112596
0.00349251
0.0109651
0.00354677
0.0106657
0.00360142
0.0103612
0.00365642
0.0100517
0.00371169
0.00973694
0.00376707
0.00941709
0.00382246
0.00909206
0.00387777
0.00876183
0.00393283
0.0084264
0.00398754
0.00808579
0.00404172
0.00774005
0.00409526
0.00738921
0.00414799
0.00703337
0.00419975
0.00667262
0.00425037
0.00630707
0.00429972
0.00593688
0.00434759
0.00556222
0.00439381
0.0051833
0.00443823
0.00480034
0.00448065
0.0044136
0.00452088
0.00402335
0.00455873
0.00362991
0.00459403
0.00323358
0.00462657
0.0028347
0.00465616
0.00243363
0.00468259
0.00203068
0.0047057
0.0016262
0.00472526
0.00122052
0.00474121
0.000813977
0.00475303
0.000406753
0.00476233
0.00475708
0.0197054
-0.00016852
0.0197502
6.20271e-07
0.0197897
5.90803e-05
0.0197986
9.65677e-05
0.0198081
0.000101653
0.0198213
0.000144626
0.0198099
0.000228052
0.0197723
0.000296132
0.0197353
0.000314643
0.0197182
0.000305455
0.01972
0.00030956
0.0197246
0.000350733
0.0197142
0.00042062
0.0196799
0.000492569
0.019626
0.000544629
0.0195658
0.000573847
0.0195119
0.000593115
0.0194661
0.00061749
0.0194217
0.000653085
0.0193724
0.000696079
0.0193192
0.000739516
0.019266
0.000780576
0.019213
0.00082275
0.0191551
0.000871974
0.0190879
0.000928335
0.0190132
0.000982311
0.0189374
0.00102224
0.0188645
0.00104922
0.018791
0.00108118
0.0187087
0.00113792
0.0186127
0.00121822
0.0185067
0.00129514
0.0184012
0.00133875
0.0183054
0.00134709
0.0182199
0.00135203
0.0181345
0.00139312
0.0180348
0.00148114
0.0179115
0.00158538
0.0177671
0.00165735
0.017614
0.00166953
0.0174672
0.00163796
0.0173361
0.00161264
0.0172191
0.00164609
0.0171059
0.00176296
0.0169831
0.00195049
0.0168407
0.00217082
0.0166752
0.00238332
0.016489
0.00256095
0.0162874
0.00269506
0.0160758
0.00279088
0.0158581
0.00285974
0.0156364
0.00291305
0.0154116
0.00295909
0.015184
0.00300281
0.0149534
0.00304665
0.0147195
0.00309158
0.0144822
0.00313786
0.0142412
0.00318552
0.0139965
0.00323444
0.0137479
0.00328459
0.0134951
0.00333588
0.0132382
0.00338828
0.012977
0.00344174
0.0127114
0.00349619
0.0124413
0.00355164
0.0121666
0.00360793
0.0118872
0.00366511
0.011603
0.00372302
0.0113139
0.00378162
0.0110198
0.00384083
0.0107206
0.00390059
0.0104164
0.00396066
0.010107
0.0040211
0.00979232
0.00408175
0.00947236
0.00414242
0.00914709
0.00420304
0.00881649
0.00426343
0.00848056
0.00432347
0.0081393
0.00438298
0.00779275
0.00444181
0.00744097
0.00449977
0.00708401
0.00455671
0.00672197
0.00461242
0.00635497
0.00466671
0.00598317
0.00471939
0.00560671
0.00477027
0.00522581
0.00481913
0.00484069
0.00486577
0.00445159
0.00490997
0.00405879
0.00495153
0.0036626
0.00499023
0.00326333
0.00502585
0.00286131
0.00505818
0.00245688
0.00508701
0.0020504
0.00511218
0.00164221
0.00513344
0.00123268
0.00515074
0.000822154
0.00516355
0.000410864
0.00517362
0.00516795
0.0197639
-0.000297291
0.0198787
-0.000114229
0.0199158
2.19716e-05
0.019922
9.04357e-05
0.0198947
0.00012888
0.0198641
0.0001753
0.0198673
0.000224798
0.0199006
0.000262807
0.0199249
0.000290346
0.0199124
0.000318016
0.0198657
0.000356282
0.0198102
0.000406232
0.0197644
0.000466333
0.0197226
0.000534419
0.0196649
0.000602282
0.0195836
0.000655162
0.0194935
0.000683231
0.0194174
0.000693584
0.0193643
0.000706216
0.0193248
0.000735571
0.0192852
0.000779093
0.0192409
0.000824887
0.0191939
0.000869729
0.0191435
0.000922431
0.0190819
0.000989958
0.0190019
0.00106223
0.0189061
0.00111803
0.0188073
0.00114801
0.0187191
0.00116942
0.0186452
0.00121187
0.018577
0.00128634
0.0185012
0.00137101
0.0184088
0.00143111
0.0183019
0.00145396
0.0181901
0.0014639
0.0180822
0.00150097
0.0179804
0.00158296
0.0178788
0.00168704
0.017769
0.00176713
0.0176465
0.00179199
0.0175133
0.00177121
0.0173757
0.00175019
0.0172402
0.00178158
0.0171079
0.00189529
0.0169739
0.00208446
0.0168306
0.00231419
0.0166719
0.00254202
0.016496
0.00273682
0.0163047
0.00288633
0.0161017
0.00299394
0.0158903
0.00307113
0.0156731
0.0031302
0.0154516
0.00318055
0.0152265
0.00322793
0.0149979
0.00327531
0.0147657
0.00332378