/*--------------------------------*- C++ -*----------------------------------*\
| =========                 |                                                 |
| \\      /  F ield         | OpenFOAM: The Open Source CFD Toolbox           |
|  \\    /   O peration     | Version:  4.1                                   |
|   \\  /    A nd           | Web:      www.OpenFOAM.org                      |
|    \\/     M anipulation  |                                                 |
\*---------------------------------------------------------------------------*/
FoamFile
{
    version     2.0;
    format      ascii;
    class       surfaceScalarField;
    location    "0.101";
    object      phi_0;
}
// * * * * * * * * * * * * * * * * * * * * * * * * * * * * * * * * * * * * * //

dimensions      [0 3 -1 0 0 0 0];

internalField   nonuniform List<scalar> 
87025
(
0.020146
0.000181171
0.0199539
0.000192084
0.0198126
0.000141271
0.0197354
7.72299e-05
0.0197211
1.4346e-05
0.0197404
-1.93238e-05
0.0197642
-2.37969e-05
0.0197776
-1.34693e-05
0.0197754
2.20568e-06
0.0197507
2.47533e-05
0.0197003
5.04397e-05
0.0196332
6.70038e-05
0.0195699
6.33952e-05
0.0195259
4.39042e-05
0.0194994
2.65754e-05
0.0194699
2.95064e-05
0.0194158
5.41096e-05
0.0193332
8.25179e-05
0.0192389
9.42952e-05
0.0191529
8.60559e-05
0.01908
7.29157e-05
0.0190093
7.06399e-05
0.0189293
8.00759e-05
0.0188403
8.89723e-05
0.0187526
8.76835e-05
0.0186727
7.98991e-05
0.0185952
7.75155e-05
0.018508
8.7166e-05
0.0184052
0.000102793
0.0182931
0.000112163
0.0181825
0.000110585
0.0180766
0.000105918
0.0179663
0.000110268
0.0178388
0.000127458
0.0176903
0.00014854
0.0175304
0.000159842
0.0173751
0.00015539
0.0172324
0.000142617
0.0170958
0.00013661
0.0169464
0.000149391
0.0167644
0.000182085
0.01654
0.00022437
0.0162788
0.000261184
0.0159973
0.000281495
0.015714
0.000283351
0.0154417
0.000272224
0.0151853
0.000256447
0.0149426
0.00024273
0.0147085
0.00023409
0.0144777
0.000230736
0.0142464
0.000231314
0.0140122
0.00023418
0.0137742
0.00023805
0.0135318
0.000242339
0.0132851
0.000246782
0.0130338
0.00025122
0.0127781
0.000255736
0.0125179
0.000260217
0.0122531
0.000264819
0.0119836
0.000269437
0.0117096
0.000274054
0.0114309
0.000278683
0.0111476
0.000283322
0.0108597
0.000287915
0.0105671
0.000292526
0.01027
0.000297138
0.00996833
0.00030167
0.00966226
0.000306063
0.00935193
0.000310332
0.00903745
0.000314479
0.00871902
0.000318437
0.00839686
0.000322154
0.00807128
0.000325583
0.0077426
0.000328676
0.00741119
0.000331414
0.00707749
0.000333698
0.00674201
0.000335483
0.0064053
0.000336711
0.00606798
0.000337316
0.00573074
0.000337235
0.00539432
0.000336423
0.0050595
0.000334825
0.00472709
0.000332404
0.00439795
0.000329136
0.00407295
0.000325005
0.00375292
0.000320034
0.00343866
0.000314259
0.00313091
0.000307749
0.0028303
0.000300603
0.00253735
0.000292957
0.00225239
0.000284958
0.00197558
0.000276807
0.00170687
0.000268715
0.00144595
0.000260912
0.00119232
0.000253631
0.000945216
0.000247107
0.000703642
0.000241574
0.000466463
0.000237179
0.00023236
0.000234102
0.00023236
0.0198578
0.000186968
0.0198871
0.000162713
0.0199394
8.90445e-05
0.0199737
4.2865e-05
0.0199547
3.337e-05
0.0199029
3.25107e-05
0.0198692
9.90286e-06
0.0198671
-1.13881e-05
0.0198724
-3.10839e-06
0.0198602
3.69146e-05
0.0198257
8.50274e-05
0.0197771
0.000115559
0.0197234
0.00011714
0.0196746
9.2706e-05
0.0196441
5.70605e-05
0.0196429
3.0717e-05
0.0196664
3.05333e-05
0.0196887
6.02129e-05
0.019676
0.000107002
0.0196143
0.000147829
0.0195203
0.000166876
0.0194253
0.00016567
0.0193469
0.000158489
0.019278
0.000157834
0.0192019
0.000163828
0.019114
0.000167709
0.0190282
0.00016332
0.0189609
0.000154481
0.0189121
0.000151607
0.0188626
0.000161698
0.0187914
0.000181753
0.0186957
0.000201577
0.0185933
0.000212676
0.0185061
0.000214661
0.0184396
0.000215036
0.0183771
0.000222417
0.0182933
0.000239143
0.0181755
0.000260474
0.0180333
0.000278775
0.0178925
0.00029014
0.0177772
0.000297399
0.0176952
0.000306441
0.0176353
0.000320995
0.0175764
0.000340412
0.017498
0.000361791
0.0173878
0.000382383
0.0172434
0.000400856
0.0170697
0.000416501
0.0168742
0.000429585
0.0166642
0.00044068
0.0164453
0.000450254
0.0162205
0.000458921
0.0159914
0.000467175
0.0157586
0.000475183
0.0155222
0.000483175
0.0152821
0.000491261
0.0150385
0.000499385
0.014791
0.000507687
0.0145397
0.00051615
0.0142844
0.000524731
0.014025
0.000533459
0.0137614
0.000542281
0.0134934
0.000551282
0.0132209
0.000560427
0.0129438
0.000569627
0.012662
0.000578941
0.0123754
0.000588296
0.0120837
0.000597705
0.011787
0.000607101
0.011485
0.000616456
0.0111777
0.000625771
0.0108649
0.000634937
0.0105466
0.000643902
0.0102225
0.000652726
0.00989275
0.000661164
0.00955719
0.000669263
0.00921575
0.000676922
0.0088684
0.000684059
0.00851513
0.000690587
0.00815593
0.000696433
0.00779085
0.000701505
0.00741994
0.000705733
0.00704329
0.000709051
0.00666103
0.000711399
0.0062733
0.000712735
0.00588029
0.00071304
0.00548224
0.00071231
0.0050794
0.000710591
0.00467205
0.000707949
0.00426053
0.000704477
0.00384518
0.000700309
0.00342637
0.000695615
0.0030045
0.000690588
0.00257997
0.000685442
0.0021532
0.000680401
0.0017246
0.000675708
0.00129457
0.000671602
0.000863517
0.000668234
0.000431486
0.000666132
0.000663847
0.0199578
6.17982e-05
0.0200001
0.000120446
0.0200253
6.3847e-05
0.0200222
4.59556e-05
0.0199719
8.36294e-05
0.019917
8.74188e-05
0.0198699
5.70031e-05
0.0198265
3.20162e-05
0.0197808
4.25835e-05
0.0197446
7.31611e-05
0.0197306
9.90007e-05
0.0197278
0.000118307
0.019706
0.000139008
0.0196449
0.000153832
0.0195572
0.000144748
0.0194778
0.000110063
0.0194329
7.54868e-05
0.0194209
7.21357e-05
0.0194207
0.000107213
0.0194095
0.000159016
0.0193788
0.000197578
0.019334
0.000210507
0.0192835
0.000208985
0.0192281
0.000213212
0.0191595
0.000232477
0.0190675
0.000259643
0.0189499
0.000281011
0.018815
0.000289335
0.0186786
0.000287995
0.0185558
0.00028451
0.0184548
0.00028272
0.0183748
0.000281626
0.0183068
0.000280614
0.0182372
0.000284279
0.018152
0.000300287
0.0180426
0.00033182
0.0179096
0.000372075
0.0177637
0.000406405
0.0176205
0.000422002
0.0174934
0.000417176
0.0173882
0.000402645
0.0173009
0.000393759
0.0172206
0.000401319
0.0171333
0.000427625
0.0170273
0.000467844
0.0168957
0.000513991
0.016738
0.000558559
0.0165578
0.00059665
0.0163609
0.000626567
0.0161525
0.000648999
0.0159368
0.000665939
0.0157163
0.000679482
0.0154922
0.000691291
0.0152649
0.000702463
0.0150347
0.000713416
0.0148014
0.000724559
0.0145648
0.000735908
0.0143251
0.000747433
0.0140821
0.000759153
0.0138357
0.000771126
0.0135858
0.000783314
0.0133324
0.000795688
0.0130754
0.000808267
0.0128148
0.000821047
0.0125505
0.000833982
0.0122823
0.000847098
0.0120102
0.000860358
0.0117343
0.000873672
0.0114542
0.000887193
0.0111699
0.000900718
0.0108814
0.000914271
0.0105886
0.000927808
0.0102912
0.000941297
0.00998923
0.000954649
0.00968251
0.000967882
0.00937089
0.00098089
0.00905419
0.000993618
0.00873224
0.00100601
0.00840483
0.001018
0.00807174
0.00102952
0.00773274
0.00104051
0.00738759
0.00105088
0.00703604
0.0010606
0.00667783
0.00106961
0.00631271
0.00107786
0.00594043
0.00108531
0.00556079
0.00109195
0.0051736
0.00109778
0.00477876
0.00110279
0.0043762
0.00110703
0.00396597
0.00111054
0.00354822
0.00111336
0.00312324
0.00111557
0.00269142
0.00111726
0.00225334
0.00111848
0.00180971
0.00111934
0.00136142
0.0011199
0.000909482
0.00112017
0.000454895
0.00112072
0.00111874
0.0198928
8.7703e-05
0.0199371
7.60688e-05
0.01994
6.09811e-05
0.01991
7.59208e-05
0.0198997
9.40164e-05
0.0198992
8.7905e-05
0.019906
5.01527e-05
0.0199035
3.44952e-05
0.0198869
5.91809e-05
0.0198639
9.61914e-05
0.019844
0.000118955
0.0198295
0.000132794
0.0198138
0.000154649
0.0197854
0.000182259
0.0197341
0.000196105
0.0196576
0.000186475
0.0195651
0.000168066
0.019472
0.000165233
0.0193912
0.00018795
0.0193256
0.000224644
0.019268
0.000255126
0.0192101
0.000268449
0.0191485
0.000270635
0.0190841
0.000277571
0.0190152
0.000301394
0.0189348
0.000340052
0.0188374
0.00037842
0.0187266
0.000400107
0.0186146
0.000399954
0.0185127
0.000386428
0.0184224
0.00037299
0.0183366
0.000367486
0.0182469
0.000370323
0.0181509
0.000380232
0.0180524
0.000398848
0.0179556
0.000428587
0.0178609
0.000466755
0.0177638
0.000503557
0.0176584
0.000527394
0.0175418
0.000533732
0.0174158
0.000528707
0.0172838
0.000525712
0.0171475
0.000537615
0.0170049
0.000570183
0.0168524
0.000620423
0.0166867
0.000679684
0.0165071
0.000738116
0.0163149
0.000788853
0.0161124
0.000829035
0.0159021
0.00085934
0.0156857
0.000882352
0.0154644
0.000900765
0.015239
0.000916728
0.0150098
0.000931597
0.014777
0.000946223
0.0145408
0.000960808
0.0143011
0.000975581
0.014058
0.00099058
0.0138113
0.00100579
0.0135611
0.00102131
0.0133074
0.00103707
0.01305
0.00105307
0.012789
0.00106928
0.0125242
0.00108579
0.0122557
0.00110248
0.0119835
0.00111937
0.0117074
0.00113642
0.0114274
0.00115365
0.0111436
0.00117097
0.0108559
0.00118842
0.0105643
0.00120591
0.0102687
0.0012234
0.00996912
0.00124089
0.00966547
0.0012583
0.00935774
0.00127561
0.00904585
0.00129277
0.00872975
0.00130972
0.00840934
0.00132641
0.00808454
0.0013428
0.00775521
0.00135885
0.00742121
0.00137451
0.00708235
0.00138973
0.00673847
0.00140449
0.00638934
0.00141874
0.00603472
0.00143247
0.00567439
0.00144565
0.00530809
0.00145825
0.00493559
0.00147028
0.0045567
0.00148169
0.00417125
0.00149249
0.00377914
0.00150265
0.0033804
0.0015121
0.00297514
0.00152083
0.00256366
0.00152874
0.00214635
0.00153579
0.00172382
0.00154187
0.00129683
0.00154688
0.000866336
0.00155066
0.000433332
0.00155372
0.00155207
0.0196936
-0.000267758
0.0198287
-5.90758e-05
0.0198591
3.06018e-05
0.0198975
3.75214e-05
0.0199506
4.08437e-05
0.0199672
7.13932e-05
0.0199253
9.19742e-05
0.0198602
9.9623e-05
0.0198092
0.000110215
0.0197756
0.000129759
0.019747
0.000147556
0.0197181
0.00016171
0.0196907
0.000182055
0.0196623
0.000210611
0.019624
0.000234455
0.0195687
0.000241713
0.0194989
0.000237872
0.0194226
0.000241589
0.0193475
0.000263058
0.0192791
0.000292996
0.0192216
0.000312641
0.0191767
0.00031331
0.0191422
0.000305177
0.0191109
0.000308907
0.0190739
0.000338324
0.0190247
0.00038933
0.0189597
0.000443385
0.0188781
0.000481683
0.0187806
0.000497451
0.01867
0.000497046
0.018552
0.000491005
0.0184342
0.000485266
0.0183235
0.000481054
0.0182227
0.000480998
0.0181292
0.000492395
0.0180351
0.000522661
0.0179311
0.000570756
0.0178107
0.000623985
0.0176736
0.000664463
0.0175263
0.000681014
0.0173778
0.000677259
0.0172339
0.000669587
0.0170946
0.000676853
0.0169549
0.000709952
0.0168075
0.000767817
0.016647
0.000840164
0.016471
0.000914074
0.0162804
0.000979475
0.0160776
0.00103183
0.0158656
0.00107139
0.0156469
0.00110106
0.0154231
0.00112447
0.0151954
0.00114451
0.0149639
0.00116308
0.014729
0.00118113
0.0144906
0.00119923
0.0142486
0.00121754
0.014003
0.00123619
0.0137537
0.00125513
0.0135006
0.00127431
0.0132439
0.00129383
0.0129832
0.00131373
0.0127186
0.00133387
0.0124501
0.0013543
0.0121776
0.00137499
0.0119011
0.00139591
0.0116204
0.00141707
0.0113357
0.00143841
0.0110468
0.00145986
0.0107538
0.00148142
0.0104566
0.00150308
0.0101553
0.00152475
0.00984971
0.00154645
0.00953998
0.00156803
0.00922609
0.0015895
0.00890804
0.00161083
0.00858583
0.00163193
0.00825945
0.00165279
0.00792891
0.00167334
0.00759421
0.00169355
0.00725534
0.00171338
0.00691226
0.00173281
0.00656494
0.00175181
0.00621333
0.00177035
0.00585737
0.00178843
0.005497
0.00180602
0.00513212
0.00182313
0.00476268
0.00183972
0.00438858
0.00185578
0.0040098
0.00187127
0.00362632
0.00188613
0.00323817
0.00190026
0.00284546
0.00191354
0.00244838
0.00192582
0.00204724
0.00193693
0.00164246
0.00194664
0.00123456
0.00195478
0.00082423
0.001961
0.000412113
0.00196584
0.00196419
0.0198912
-0.000185645
0.0199031
-7.08906e-05
0.0199153
1.83556e-05
0.0199186
3.41929e-05
0.0199157
4.37451e-05
0.0199118
7.53189e-05
0.0198992
0.000104586
0.0198832
0.000115652
0.019864
0.000129362
0.0198315
0.00016225
0.0197735
0.000205611
0.0196952
0.000239998
0.0196224
0.000254826
0.01958
0.000253055
0.0195692
0.000245225
0.0195671
0.00024383
0.0195471
0.000257835
0.0195025
0.00028616
0.0194481
0.000317495
0.0194014
0.000339659
0.0193635
0.000350614
0.019317
0.000359734
0.0192436
0.000378572
0.0191419
0.000410688
0.0190296
0.000450605
0.0189293
0.000489598
0.0188508
0.000521947
0.0187856
0.000546811
0.0187173
0.000565746
0.0186355
0.00057887
0.018543
0.000583513
0.0184503
0.000577996
0.018364
0.000567366
0.0182797
0.000565238
0.0181851
0.000587059
0.0180693
0.000638396
0.0179316
0.0007085
0.0177813
0.000774306
0.0176318
0.000813925
0.0174928
0.000820029
0.0173656
0.000804408
0.0172444
0.000790841
0.0171199
0.000801343
0.0169841
0.000845696
0.0168329
0.000919068
0.0166655
0.00100759
0.0164835
0.00109601
0.0162895
0.00117352
0.0160857
0.00123557
0.0158743
0.00128282
0.0156567
0.00131869
0.0154338
0.00134732
0.0152066
0.0013718
0.0149754
0.00139427
0.0147403
0.00141616
0.0145016
0.00143796
0.0142592
0.00145994
0.0140132
0.00148222
0.0137634
0.00150491
0.0135097
0.00152797
0.0132521
0.00155143
0.0129906
0.00157523
0.0127251
0.00159942
0.0124554
0.00162398
0.0121815
0.00164886
0.0119035
0.00167397
0.0116211
0.00169938
0.0113345
0.00172507
0.0110434
0.00175091
0.0107479
0.00177691
0.0104481
0.00180294
0.0101437
0.00182912
0.00983496
0.00185519
0.00952174
0.00188125
0.00920406
0.00190718
0.00888195
0.00193293
0.00855542
0.00195846
0.00822451
0.0019837
0.00788926
0.00200859
0.00754972
0.0020331
0.00720592
0.00205717
0.00685794
0.00208079
0.00650585
0.0021039
0.00614971
0.00212649
0.0057896
0.00214853
0.00542561
0.00217002
0.00505781
0.00219092
0.00468631
0.00221122
0.0043112
0.00223089
0.0039326
0.00224987
0.00355064
0.00226809
0.00316546
0.00228543
0.00277726
0.00230174
0.00238625
0.00231684
0.00199269
0.00233049
0.00159689
0.00234244
0.00119922
0.00235245
0.000800099
0.00236012
0.000399893
0.00236605
0.00236408
0.0201079
0.000110531
0.0200561
-1.90954e-05
0.0200284
4.60516e-05
0.0199884
7.42402e-05
0.0199371
9.50256e-05
0.0199012
0.000111188
0.019883
0.000122845
0.0198679
0.000130742
0.0198489
0.00014834
0.0198238
0.000187397
0.0197895
0.000239859
0.0197447
0.000284751
0.0196944
0.000305148
0.0196489
0.000298581
0.0196145
0.000279636
0.019586
0.000272362
0.0195505
0.000293341
0.0194989
0.000337758
0.0194332
0.000383162
0.0193639
0.0004089
0.0193009
0.000413685
0.0192455
0.00041509
0.0191907
0.000433406
0.0191255
0.000475834
0.019044
0.000532172
0.0189497
0.000583869
0.0188549
0.000616779
0.0187715
0.000630143
0.0187016
0.000635666
0.0186342
0.000646264
0.0185538
0.000663944
0.0184525
0.000679272
0.0183355
0.000684414
0.0182145
0.000686248
0.0180968
0.000704749
0.0179798
0.000755379
0.0178563
0.000832004
0.0177231
0.000907493
0.0175851
0.000951938
0.0174517
0.000953404
0.0173297
0.000926435
0.0172181
0.000902422
0.0171085
0.000910898
0.0169898
0.000964478
0.0168528
0.001056
0.0166941
0.00116628
0.0165152
0.00127492
0.0163203
0.0013684
0.0161141
0.00144181
0.0159001
0.00149681
0.0156805
0.00153825
0.0154567
0.00157113
0.0152291
0.00159938
0.0149979
0.00162555
0.0147631
0.00165094
0.0145247
0.00167634
0.0142827
0.00170196
0.0140369
0.00172798
0.0137874
0.00175441
0.0135341
0.00178136
0.0132768
0.00180874
0.0130154
0.00183659
0.0127499
0.00186488
0.0124803
0.00189357
0.0122065
0.00192269
0.0119283
0.00195216
0.0116458
0.00198194
0.0113588
0.00201206
0.0110673
0.0020424
0.0107713
0.00207289
0.0104707
0.00210357
0.0101655
0.00213429
0.00985566
0.00216504
0.00954117
0.00219574
0.009222
0.00222635
0.00889819
0.00225674
0.00856974
0.00228691
0.00823668
0.00231676
0.00789905
0.00234623
0.00755689
0.00237526
0.00721029
0.00240377
0.00685934
0.00243174
0.00650413
0.00245911
0.0061448
0.00248582
0.00578147
0.00251186
0.00541432
0.00253717
0.00504353
0.00256171
0.0046693
0.00258546
0.00429183
0.00260836
0.00391136
0.00263033
0.00352814
0.00265131
0.00314243
0.00267115
0.00275447
0.00268969
0.00236456
0.00270676
0.00197295
0.0027221
0.00157993
0.00273546
0.00118576
0.00274662
0.000790779
0.0027551
0.000395133
0.00276169
0.00275921
0.0199631
-1.93702e-05
0.0199356
8.39706e-06
0.0199574
2.41784e-05
0.0199888
4.28537e-05
0.0199825
0.000101375
0.0199469
0.000146804
0.0199027
0.00016701
0.0198543
0.000179119
0.0198001
0.000202542
0.0197579
0.000229615
0.0197463
0.000251454
0.0197588
0.000272265
0.0197649
0.000299081
0.0197363
0.000327181
0.0196706
0.000345336
0.0195887
0.000354257
0.019512
0.000369979
0.0194457
0.000404105
0.0193817
0.00044718
0.019314
0.00047661
0.0192472
0.000480408
0.0191913
0.000470993
0.0191498
0.000474983
0.0191152
0.000510436
0.019075
0.000572293
0.0190218
0.000637147
0.018957
0.000681514
0.0188876
0.000699579
0.0188178
0.000705492
0.0187449
0.000719113
0.018661
0.000747898
0.0185584
0.000781787
0.0184368
0.000806099
0.0183035
0.0008195
0.0181707
0.000837592
0.018048
0.000878053
0.0179382
0.000941771
0.0178373
0.00100838
0.0177382
0.00105108
0.0176339
0.00105768
0.0175202
0.00104014
0.0173952
0.00102739
0.0172585
0.00104761
0.0171093
0.00111375
0.0169459
0.00121935
0.0167676
0.00134462
0.0165748
0.0014677
0.01637
0.00157323
0.0161562
0.00165551
0.0159366
0.00171649
0.015713
0.00176187
0.0154864
0.0017977
0.0152571
0.00182864
0.015025
0.00185764
0.0147899
0.00188606
0.0145516
0.00191467
0.0143098
0.00194372
0.0140645
0.00197332
0.0138154
0.00200352
0.0135625
0.00203427
0.0133057
0.00206554
0.0130448
0.00209745
0.0127798
0.00212988
0.0125106
0.00216276
0.0122372
0.00219615
0.0119593
0.00222998
0.011677
0.00226425
0.0113903
0.0022988
0.011099
0.00233369
0.010803
0.00236885
0.0105025
0.00240414
0.0101972
0.00243959
0.00988709
0.00247511
0.00957227
0.00251057
0.00925267
0.00254594
0.00892828
0.00258113
0.0085991
0.00261609
0.00826515
0.00265071
0.00792647
0.0026849
0.00758312
0.00271861
0.00723514
0.00275175
0.00688265
0.00278423
0.00652574
0.00281602
0.00616456
0.00284701
0.00579926
0.00287715
0.00543004
0.00290639
0.00505711
0.00293464
0.00468071
0.00296186
0.0043011
0.00298796
0.00391859
0.00301285
0.00353345
0.00303644
0.00314603
0.00305857
0.00275662
0.0030791
0.00236554
0.00309784
0.00197309
0.00311455
0.00157956
0.00312899
0.00118519
0.00314099
0.000790245
0.00315004
0.000394828
0.00315711
0.00315404
0.0196941
-0.000302813
0.019889
-0.000186569
0.0199872
-7.3962e-05
0.0199845
4.55673e-05
0.0199364
0.000149467
0.0198864
0.000196775
0.019858
0.000195359
0.0198385
0.0001987
0.0198074
0.000233592
0.019763
0.000274064
0.0197241
0.000290363
0.0197021
0.000294196
0.0196853
0.000315939
0.0196527
0.000359699
0.0195985
0.000399556
0.0195383
0.000414484
0.0194948
0.000413475
0.0194774
0.000421551
0.0194753
0.000449247
0.0194676
0.000484279
0.0194374
0.000510596
0.0193796
0.00052885
0.0193
0.000554519
0.019211
0.000599468
0.0191258
0.000657506
0.0190545
0.000708415
0.0189992
0.000736855
0.0189511
0.00074766
0.0188942
0.000762441
0.0188138
0.000799481
0.0187059
0.000855829
0.0185783
0.000909363
0.0184446
0.000939823
0.0183159
0.000948147
0.0181968
0.000956659
0.0180866
0.000988343
0.0179823
0.00104599
0.0178813
0.0011094
0.0177802
0.00115224
0.0176745
0.00116331
0.0175594
0.00115523
0.0174308
0.00115606
0.0172864
0.00119193
0.0171267
0.00127347
0.0169537
0.00139239
0.0167695
0.00152877
0.016576
0.00166121
0.0163745
0.00177472
0.0161662
0.00186384
0.015952
0.00193066
0.015733
0.00198092
0.0155097
0.00202099
0.0152827
0.00205568
0.0150521
0.00208818
0.0148181
0.00212009
0.0145806
0.00215218
0.0143395
0.00218477
0.0140948
0.00221807
0.0138464
0.00225193
0.0135941
0.00228653
0.0133378
0.00232184
0.0130775
0.00235773
0.0128131
0.00239428
0.0125445
0.00243143
0.0122715
0.00246913
0.0119941
0.0025074
0.0117122
0.00254609
0.0114258
0.00258522
0.0111348
0.00262472
0.0108391
0.00266455
0.0105386
0.0027046
0.0102334
0.0027448
0.00992342
0.0027851
0.00960854
0.00282545
0.00928878
0.0028657
0.00896414
0.00290578
0.00863461
0.00294562
0.00830022
0.0029851
0.00796097
0.00302415
0.00761693
0.00306265
0.00726816
0.00310052
0.00691472
0.00313767
0.00655676
0.00317398
0.00619438
0.00320938
0.00582776
0.00324378
0.00545709
0.00327707
0.00508256
0.00330916
0.00470447
0.00333995
0.00432306
0.00336937
0.00393865
0.00339727
0.00355155
0.00342353
0.0031621
0.00344802
0.00277064
0.00347056
0.0023775
0.00349098
0.001983
0.00350905
0.00158743
0.00352456
0.00119106
0.00353736
0.000794139
0.00354696
0.000396767
0.00355448
0.00355081
0.0203373
0.000150585
0.0200834
6.73435e-05
0.0199543
5.50877e-05
0.0198952
0.000104713
0.0198996
0.000145036
0.019912
0.000184396
0.0198987
0.000208624
0.0198622
0.000235194
0.0198257
0.000270106
0.0198046
0.000295189
0.019791
0.000303933
0.0197699
0.000315346
0.0197368
0.000348995
0.0196985
0.00039801
0.0196614
0.000436648
0.0196236
0.000452313
0.0195801
0.000456906
0.0195316
0.00047007
0.0194828
0.000498043
0.019435
0.000532155
0.0193828
0.000562761
0.0193214
0.000590248
0.0192522
0.000623683
0.0191813
0.000670394
0.0191123
0.00072653
0.0190431
0.000777559
0.0189693
0.000810646
0.0188883
0.000828708
0.0187999
0.000850858
0.0187036
0.00089572
0.0185986
0.000960864
0.0184867
0.00102127
0.0183749
0.00105167
0.0182712
0.00105181
0.0181788
0.00104906
0.018092
0.00107511
0.0180003
0.00113775
0.0178955
0.00121418
0.0177773
0.00127041
0.0176517
0.00128888
0.017525
0.00128192
0.0173985
0.00128261
0.0172675
0.00132293
0.0171255
0.00141547
0.0169678
0.00155009
0.0167936
0.00170294
0.0166051
0.0018497
0.0164054
0.00197443
0.0161974
0.00207188
0.0159831
0.00214493
0.0157639
0.00220009
0.0155408
0.00224415
0.015314
0.00228251
0.0150838
0.00231836
0.0148502
0.00235365
0.0146133
0.0023891
0.0143729
0.00242521
0.0141289
0.00246206
0.013881
0.00249975
0.0136294
0.00253817
0.0133738
0.0025774
0.0131142
0.0026174
0.0128504
0.00265811
0.0125823
0.00269952
0.0123098
0.00274158
0.012033
0.00278426
0.0117515
0.00282753
0.0114655
0.00287125
0.0111748
0.00291542
0.0108794
0.00295995
0.0105792
0.00300478
0.0102741
0.00304989
0.00996411
0.0030951
0.00964919
0.00314037
0.00932932
0.00318557
0.00900447
0.00323063
0.00867465
0.00327544
0.00833986
0.0033199
0.00800012
0.00336388
0.00765548
0.00340729
0.007306
0.00345
0.00695176
0.00349191
0.00659286
0.00353288
0.00622944
0.00357281
0.00586165
0.00361156
0.00548967
0.00364904
0.00511373
0.00368511
0.00473405
0.00371963
0.00435092
0.00375249
0.00396464
0.00378355
0.00357552
0.00381266
0.0031839
0.00383964
0.00279011
0.00386435
0.0023945
0.00388659
0.00199739
0.00390616
0.0015991
0.00392286
0.0011999
0.00393655
0.00080009
0.00394677
0.000399755
0.00395481
0.00395056
0.0199599
0.000203661
0.0199175
0.000109733
0.0198863
8.63224e-05
0.0198748
0.000116157
0.0198817
0.000138201
0.019904
0.000162107
0.019895
0.000217548
0.019853
0.000277221
0.0198136
0.000309472
0.0197945
0.000314329
0.0197822
0.0003162
0.0197599
0.000337686
0.0197319
0.000376956
0.0197152
0.000414728
0.0197119
0.000439974
0.019704
0.000460198
0.0196717
0.000489179
0.0196127
0.00052911
0.0195407
0.000570038
0.01947
0.000602866
0.0194042
0.000628514
0.0193392
0.000655297
0.019271
0.00069187
0.0191989
0.000742474
0.0191217
0.000803765
0.0190359
0.00086333
0.0189406
0.000905948
0.0188419
0.000927415
0.0187503
0.000942479
0.0186717
0.000974295
0.0186011
0.00103143
0.018525
0.0010974
0.0184313
0.0011454
0.0183173
0.00116581
0.01819
0.00117633
0.0180599
0.00120522
0.0179344
0.00126324
0.0178161
0.00133244
0.0177053
0.00138129
0.0176011
0.00139303
0.0175016
0.00138149
0.0174014
0.00138279
0.0172926
0.00143172
0.017167
0.00154102
0.0170197
0.00169746
0.0168498
0.00187283
0.0166605
0.00203894
0.0164569
0.00217806
0.0162438
0.00228497
0.0160249
0.00236378
0.0158024
0.00242262
0.0155771
0.00246943
0.0153494
0.00251024
0.015119
0.00254873
0.0148859
0.00258681
0.0146495
0.00262547
0.0144098
0.00266494
0.0141664
0.00270537
0.0139195
0.00274672
0.0136686
0.00278902
0.0134138
0.00283223
0.0131549
0.00287631
0.0128918
0.00292123
0.0126244
0.00296694
0.0123525
0.00301345
0.0120761
0.00306062
0.0117953
0.00310839
0.0115097
0.00315679
0.0112194
0.00320573
0.0109243
0.00325508
0.0106242
0.00330483
0.0103193
0.00335482
0.0100094
0.00340503
0.00969448
0.00345527
0.0093745
0.00350555
0.00904944
0.00355569
0.00871928
0.00360559
0.00838406
0.00365512
0.00804379
0.00370416
0.0076985
0.00375258
0.00734825
0.00380025
0.00699313
0.00384703
0.00663322
0.00389278
0.00626867
0.00393736
0.00589962
0.00398062
0.00552625
0.00402241
0.00514877
0.00406258
0.00476741
0.004101
0.00438244
0.00413746
0.00399414
0.00417185
0.00360283
0.00420397
0.00320882
0.00423365
0.00281247
0.0042607
0.00241411
0.00428495
0.00201407
0.0043062
0.00161268
0.00432425
0.00121023
0.004339
0.00080704
0.00434996
0.000403259
0.0043586
0.00435382
0.0201906
0.000125895
0.0201484
0.000151922
0.0200528
0.000181961
0.0200021
0.000166887
0.0199803
0.000159951
0.0199448
0.000197631
0.0199125
0.000249889
0.0199029
0.000286759
0.0199101
0.000302272
0.0199144
0.000310031
0.0198996
0.000331011
0.0198641
0.000373215
0.0198145
0.000426569
0.0197559
0.000473318
0.0196913
0.000504596
0.0196248
0.000526674
0.0195626
0.000551324
0.0195085
0.000583239
0.0194591
0.000619485
0.0194048
0.000657106
0.0193373
0.000696042
0.0192559
0.000736653
0.0191692
0.000778621
0.0190891
0.000822584
0.0190236
0.000869215
0.0189717
0.000915262
0.0189238
0.00095386
0.0188679
0.000983326
0.0187959
0.00101443
0.018708
0.00106218
0.0186109
0.0011286
0.0185131
0.0011952
0.0184195
0.001239
0.0183286
0.00125673
0.0182332
0.00127171
0.0181254
0.00131296
0.0180021
0.00138659
0.0178675
0.00146705
0.0177312
0.00151753
0.0176036
0.00152071
0.0174898
0.00149526
0.017387
0.00148559
0.0172853
0.00153339
0.0171721
0.00165424
0.0170374
0.00183216
0.0168774
0.0020328
0.0166943
0.00222209
0.0164935
0.00237882
0.0162812
0.00249729
0.0160621
0.00258287
0.0158392
0.00264549
0.0156139
0.00269473
0.0153866
0.0027376
0.0151568
0.00277845
0.0149244
0.00281923
0.014689
0.00286089
0.0144502
0.00290371
0.0142079
0.00294768
0.0139618
0.00299282
0.0137119
0.00303897
0.0134579
0.00308619
0.0131998
0.00313443
0.0129375
0.00318357
0.0126708
0.00323364
0.0123997
0.00328454
0.012124
0.0033363
0.0118436
0.00338874
0.0115586
0.00344186
0.0112687
0.00349558
0.0109739
0.00354986
0.0106742
0.00360452
0.0103695
0.00365954
0.0100597
0.00371483
0.00974475
0.00377024
0.00942464
0.00382566
0.00909934
0.00388099
0.00876885
0.00393608
0.00843314
0.00399082
0.00809227
0.00404504
0.00774624
0.0040986
0.00739513
0.00415137
0.007039
0.00420316
0.00667796
0.00425382
0.00631212
0.0043032
0.00594164
0.0043511
0.00556668
0.00439736
0.00518746
0.00444181
0.0048042
0.00448426
0.00441714
0.00452452
0.00402659
0.0045624
0.00363283
0.00459773
0.00323619
0.00463029
0.00283699
0.0046599
0.00243559
0.00468635
0.00203232
0.00470947
0.00162752
0.00472905
0.00122151
0.00474501
0.000814635
0.00475684
0.000407083
0.00476615
0.0047609
0.0197795
0.000117521
0.0197967
0.000134681
0.0198306
0.000148117
0.0198357
0.000161792
0.0198438
0.000151851
0.0198561
0.000185269
0.0198439
0.000262084
0.0198056
0.000325137
0.0197681
0.000339782
0.0197504
0.000327715
0.0197517
0.000329701
0.0197557
0.000369228
0.0197445
0.000437695
0.0197095
0.00050834
0.0196549
0.000559216
0.0195942
0.000587421
0.0195396
0.000605862
0.0194933
0.000629555
0.0194482
0.000664546
0.0193984
0.000706971
0.0193445
0.000749866
0.0192908
0.000790428
0.0192372
0.000832163
0.0191788
0.000881001
0.019111
0.000936982
0.0190358
0.000990553
0.0189595
0.00103007
0.0188862
0.0010567
0.0188122
0.00108842
0.0187294
0.00114499
0.0186329
0.00122507
0.0185264
0.00130165
0.0184206
0.00134485
0.0183245
0.00135286
0.0182385
0.00135765
0.0181528
0.00139874
0.0180526
0.00148672
0.0179289
0.00159075
0.0177841
0.00166233
0.0176307
0.00167412
0.0174837
0.00164231
0.0173523
0.00161699
0.017235
0.00165062
0.0171216
0.00176769
0.0169984
0.00195534
0.0168556
0.00217562
0.0166897
0.00238793
0.0165033
0.00256531
0.0163014
0.00269917
0.0160895
0.00279478
0.0158715
0.00286348
0.0156495
0.00291668
0.0154245
0.00296264
0.0151966
0.0030063
0.0149658
0.0030501
0.0147317
0.00309499
0.0144941
0.00314124
0.0142529
0.00318887
0.014008
0.00323776
0.0137591
0.00328789
0.0135061
0.00333918
0.013249
0.00339156
0.0129875
0.00344501
0.0127217
0.00349946
0.0124513
0.00355491
0.0121764
0.0036112
0.0118968
0.00366839
0.0116123
0.00372632
0.011323
0.00378493
0.0110287
0.00384416
0.0107292
0.00390394
0.0104247
0.00396403
0.0101151
0.00402449
0.00980015
0.00408518
0.00947993
0.00414588
0.0091544
0.00420652
0.00882353
0.00426695
0.00848733
0.00432702
0.0081458
0.00438657
0.00779898
0.00444543
0.00744691
0.00450343
0.00708967
0.0045604
0.00672734
0.00461615
0.00636006
0.00467048
0.00598796
0.0047232
0.0056112
0.00477412
0.00523
0.00482301
0.00484457
0.00486969
0.00445517
0.00491392
0.00406206
0.00495551
0.00366555
0.00499424
0.00326595
0.00502988
0.00286361
0.00506224
0.00245886
0.0050911
0.00205205
0.00511628
0.00164354
0.00513756
0.00123368
0.00515487
0.000822818
0.00516769
0.000411196
0.00517777
0.0051721
0.0197281
-0.000178508
0.0198837
-2.08494e-05
0.0199308
0.000100988
0.0199439
0.000148653
0.0199205
0.000175226
0.0198921
0.000213758
0.0198966
0.00025751
0.0199306
0.000291162
0.019955
0.000315366
0.0199423
0.000340474
0.0198952
0.000376719
0.0198395
0.000425017
0.0197934
0.000483739
0.0197511
0.000550643
0.0196929
0.000617437
0.019611
0.000669319
0.0195204
0.000696484
0.0194438
0.000706084
0.0193903
0.000718117
0.0193503
0.000746964
0.0193101
0.00078999
0.0192653
0.000835287
0.0192178
0.000879679
0.0191668
0.000932
0.0191046
0.00099917
0.0190241
0.00107104
0.0189278
0.00112638
0.0188286
0.00115592
0.01874
0.00117703
0.0186656
0.00121931
0.0185971
0.0012936
0.0185208
0.00137797
0.018428
0.00143766
0.0183207
0.00146015
0.0182084
0.00146989
0.0181003
0.00150691
0.0179981
0.00158886
0.0178961
0.00169275
0.017786
0.00177247
0.0176632
0.00179694
0.0175296
0.00177589
0.0173917
0.00175483
0.017256
0.00178638
0.0171234
0.00190031
0.0169891
0.00208961
0.0168454
0.00231931
0.0166864
0.00254696
0.0165102
0.0027415
0.0163186
0.00289073
0.0161153
0.00299812
0.0159036
0.00307514
0.0156862
0.00313409
0.0154645
0.00318435
0.0152391
0.00323167
0.0150102
0.003279
0.0147778
0.00332743
0.0145417
0.00337736
0.0143018