/*--------------------------------*- C++ -*----------------------------------*\
| =========                 |                                                 |
| \\      /  F ield         | OpenFOAM: The Open Source CFD Toolbox           |
|  \\    /   O peration     | Version:  4.1                                   |
|   \\  /    A nd           | Web:      www.OpenFOAM.org                      |
|    \\/     M anipulation  |                                                 |
\*---------------------------------------------------------------------------*/
FoamFile
{
    version     2.0;
    format      ascii;
    class       volScalarField;
    location    "0.101";
    object      pMean;
}
// * * * * * * * * * * * * * * * * * * * * * * * * * * * * * * * * * * * * * //

dimensions      [0 2 -2 0 0 0 0];

internalField   nonuniform List<scalar> 
43750
(
338.452
335.947
335.677
334.575
333.639
332.767
331.907
331.052
330.215
329.396
328.597
327.816
327.055
326.31
325.583
324.874
324.182
323.507
322.851
322.212
321.59
320.987
320.4
319.831
319.28
318.745
318.229
317.729
317.246
316.782
316.334
315.903
315.491
315.094
314.715
314.352
314.007
313.679
313.368
313.073
312.795
312.532
312.286
312.057
311.845
311.651
311.472
311.31
311.164
311.035
310.922
310.825
310.744
310.679
310.629
310.596
310.578
310.576
310.589
310.617
310.66
310.718
310.789
310.875
310.974
311.085
311.208
311.343
311.49
311.646
311.812
311.986
312.169
312.359
312.554
312.756
312.961
313.169
313.38
313.592
313.803
314.014
314.223
314.427
314.627
314.822
315.01
315.19
315.36
315.521
315.671
315.809
315.934
316.046
316.143
316.226
316.292
316.343
316.377
316.393
338.293
335.894
335.652
334.548
333.607
332.735
331.876
331.024
330.187
329.367
328.569
327.789
327.026
326.282
325.554
324.844
324.153
323.479
322.822
322.183
321.562
320.957
320.371
319.801
319.249
318.715
318.197
317.697
317.215
316.749
316.301
315.869
315.456
315.059
314.68
314.317
313.971
313.643
313.331
313.036
312.757
312.496
312.25
312.022
311.81
311.615
311.436
311.273
311.128
310.997
310.884
310.785
310.703
310.638
310.587
310.554
310.535
310.533
310.545
310.572
310.615
310.672
310.742
310.828
310.926
311.037
311.16
311.296
311.441
311.598
311.763
311.939
312.122
312.311
312.508
312.71
312.915
313.125
313.336
313.548
313.762
313.973
314.182
314.389
314.591
314.786
314.975
315.156
315.329
315.492
315.643
315.782
315.909
316.022
316.12
316.203
316.271
316.321
316.356
316.373
338.335
335.881
335.619
334.516
333.58
332.71
331.848
330.993
330.154
329.335
328.535
327.755
326.992
326.246
325.519
324.808
324.116
323.441
322.784
322.144
321.521
320.917
320.329
319.759
319.207
318.671
318.153
317.652
317.168
316.701
316.252
315.821
315.405
315.008
314.627
314.263
313.917
313.586
313.273
312.977
312.697
312.434
312.188
311.958
311.745
311.548
311.369
311.205
311.057
310.926
310.81
310.711
310.628
310.56
310.509
310.473
310.453
310.448
310.46
310.486
310.526
310.582
310.652
310.735
310.832
310.941
311.063
311.197
311.341
311.496
311.661
311.834
312.016
312.205
312.4
312.601
312.806
313.014
313.225
313.437
313.649
313.86
314.069
314.275
314.476
314.672
314.861
315.043
315.215
315.378
315.529
315.669
315.796
315.909
316.008
316.091
316.158
316.21
316.243
316.261
338.123
335.749
335.524
334.435
333.503
332.635
331.778
330.927
330.092
329.273
328.474
327.693
326.93
326.184
325.456
324.745
324.051
323.377
322.718
322.078
321.455
320.849
320.26
319.689
319.136
318.599
318.08
317.578
317.093
316.625
316.175
315.742
315.325
314.926
314.544
314.179
313.831
313.5
313.185
312.888
312.606
312.342
312.094
311.863
311.648
311.451
311.268
311.103
310.954
310.819
310.702
310.601
310.515
310.446
310.393
310.356
310.333
310.327
310.336
310.36
310.399
310.452
310.521
310.601
310.697
310.804
310.924
311.056
311.199
311.352
311.516
311.687
311.868
312.055
312.249
312.448
312.653
312.86
313.069
313.281
313.492
313.703
313.911
314.116
314.317
314.513
314.702
314.883
315.055
315.219
315.369
315.51
315.636
315.75
315.848
315.931
315.999
316.05
316.084
316.101
338.167
335.722
335.471
334.378
333.445
332.574
331.713
330.857
330.018
329.199
328.398
327.617
326.853
326.106
325.378
324.666
323.971
323.296
322.636
321.995
321.371
320.764
320.175
319.602
319.047
318.509
317.988
317.485
316.998
316.529
316.077
315.642
315.224
314.823
314.439
314.072
313.721
313.389
313.072
312.772
312.488
312.222
311.972
311.738
311.521
311.321
311.136
310.968
310.816
310.679
310.559
310.455
310.367
310.295
310.239
310.198
310.174
310.165
310.171
310.193
310.229
310.28
310.346
310.424
310.516
310.621
310.739
310.869
311.009
311.16
311.321
311.491
311.669
311.855
312.047
312.244
312.447
312.652
312.861
313.071
313.28
313.489
313.697
313.901
314.101
314.296
314.483
314.664
314.836
314.997
315.148
315.287
315.413
315.525
315.623
315.705
315.773
315.823
315.858
315.874
338.05
335.599
335.349
334.26
333.334
332.469
331.61
330.758
329.92
329.101
328.301
327.519
326.754
326.007
325.277
324.565
323.87
323.192
322.531
321.889
321.262
320.655
320.063
319.49
318.933
318.393
317.871
317.365
316.877
316.406
315.952
315.514
315.095
314.691
314.305
313.935
313.583
313.247
312.927
312.625
312.339
312.07
311.817
311.581
311.361
311.158
310.969
310.799
310.643
310.504
310.38
310.273
310.181
310.106
310.046
310.004
309.975
309.963
309.966
309.984
310.017
310.065
310.127
310.203
310.291
310.393
310.508
310.634
310.772
310.92
311.078
311.245
311.421
311.604
311.795
311.99
312.189
312.394
312.6
312.808
313.016
313.224
313.43
313.632
313.831
314.024
314.211
314.39
314.56
314.721
314.87
315.009
315.134
315.246
315.343
315.425
315.491
315.542
315.575
315.592
337.859
335.489
335.261
334.162
333.227
332.359
331.5
330.646
329.806
328.986
328.186
327.402
326.637
325.889
325.158
324.444
323.748
323.069
322.407
321.762
321.135
320.525
319.932
319.357
318.798
318.256
317.732
317.224
316.734
316.26
315.803
315.364
314.94
314.534
314.145
313.773
313.417
313.078
312.756
312.45
312.162
311.889
311.634
311.394
311.17
310.962
310.771
310.596
310.436
310.293
310.165
310.055
309.959
309.879
309.817
309.769
309.737
309.72
309.72
309.734
309.763
309.806
309.864
309.936
310.021
310.119
310.23
310.352
310.487
310.632
310.787
310.95
311.123
311.303
311.49
311.682
311.88
312.082
312.286
312.49
312.697
312.903
313.107
313.308
313.505
313.697
313.882
314.06
314.229
314.389
314.537
314.674
314.798
314.91
315.006
315.087
315.153
315.203
315.236
315.253
337.784
335.36
335.118
334.025
333.094
332.226
331.368
330.515
329.675
328.854
328.051
327.267
326.5
325.751
325.019
324.303
323.605
322.925
322.261
321.615
320.985
320.374
319.778
319.2
318.639
318.095
317.568
317.058
316.565
316.088
315.629
315.187
314.76
314.351
313.959
313.582
313.224
312.881
312.556
312.247
311.953
311.678
311.418
311.174
310.946
310.735
310.538
310.359
310.196
310.048
309.916
309.799
309.699
309.616
309.547
309.496
309.458
309.437
309.431
309.44
309.465
309.505
309.558
309.625
309.705
309.8
309.906
310.024
310.154
310.295
310.445
310.605
310.774
310.951
311.134
311.323
311.517
311.716
311.917
312.119
312.324
312.527
312.729
312.927
313.122
313.313
313.496
313.672
313.841
313.999
314.146
314.282
314.405
314.515
314.61
314.691
314.757
314.806
314.84
314.856
337.636
335.203
334.969
333.879
332.948
332.078
331.216
330.361
329.52
328.699
327.896
327.112
326.344
325.593
324.859
324.142
323.442
322.759
322.094
321.446
320.814
320.201
319.603
319.023
318.459
317.912
317.382
316.869
316.373
315.893
315.43
314.984
314.555
314.142
313.746
313.366
313.003
312.657
312.327
312.014
311.716
311.436
311.171
310.923
310.691
310.474
310.273
310.089
309.92
309.767
309.63
309.509
309.403
309.314
309.24
309.182
309.14
309.114
309.102
309.106
309.125
309.16
309.207
309.269
309.344
309.433
309.535
309.647
309.773
309.909
310.055
310.21
310.374
310.547
310.725
310.912
311.101
311.296
311.494
311.694
311.894
312.094
312.294
312.491
312.684
312.871
313.053
313.228
313.393
313.55
313.696
313.831
313.953
314.062
314.157
314.237
314.301
314.351
314.383
314.4
337.547
335.08
334.818
333.717
332.783
331.913
331.05
330.195
329.353
328.53
327.726
326.938
326.169
325.416
324.681
323.962
323.26
322.575
321.908
321.257
320.623
320.006
319.406
318.823
318.256
317.706
317.173
316.656
316.156
315.673
315.207
314.757
314.324
313.907
313.507
313.123
312.756
312.405
312.07
311.752
311.45
311.165
310.895
310.641
310.404
310.182
309.975
309.786
309.611
309.451
309.309
309.182
309.07
308.975
308.895
308.831
308.783
308.75
308.733
308.73
308.743
308.771
308.813
308.868
308.937
309.021
309.116
309.224
309.343
309.473
309.614
309.764
309.924
310.09
310.265
310.446
310.632
310.822
311.017
311.213
311.409
311.606
311.803
311.996
312.186
312.371
312.551
312.724
312.888
313.042
313.187
313.321
313.442
313.55
313.643
313.723
313.787
313.836
313.868
313.885
337.288
334.859
334.621
333.528
332.596
331.725
330.862
330.004
329.162
328.338
327.532
326.745
325.974
325.22
324.482
323.761
323.058
322.371
321.7
321.048
320.411
319.79
319.188
318.601
318.031
317.478
316.941
316.421
315.917
315.43
314.96
314.506
314.068
313.646
313.242
312.853
312.48
312.124
311.784
311.461
311.154
310.863
310.587
310.328
310.085
309.857
309.644
309.449
309.268
309.102
308.952
308.818
308.7
308.598
308.512
308.442
308.386
308.346
308.322
308.313
308.319
308.339
308.374
308.423
308.486
308.561
308.65
308.751
308.865
308.989
309.123
309.267
309.42
309.582
309.752
309.927
310.108
310.293
310.483
310.675
310.868
311.061
311.253
311.444
311.631
311.813
311.99
312.16
312.322
312.475
312.618
312.749
312.869
312.976
313.069
313.147
313.211
313.259
313.292
313.307
337.146
334.695
334.431
333.333
332.399
331.526
330.662
329.805
328.961
328.134
327.326
326.536
325.763
325.006
324.267
323.544
322.838
322.147
321.475
320.818
320.179
319.555
318.949
318.359
317.786
317.228
316.687
316.163
315.655
315.164
314.688
314.23
313.788
313.361
312.951
312.557
312.179
311.817
311.472
311.143
310.829
310.531
310.251
309.985
309.735
309.5
309.282
309.078
308.89
308.718
308.561
308.42
308.295
308.185
308.091
308.012
307.95
307.903
307.87
307.853
307.851
307.865
307.892
307.933
307.988
308.056
308.138
308.232
308.337
308.454
308.581
308.719
308.866
309.021
309.184
309.354
309.529
309.71
309.894
310.08
310.268
310.458
310.645
310.832
311.015
311.195
311.368
311.535
311.695
311.846
311.986
312.117
312.235
312.34
312.432
312.51
312.573
312.62
312.651
312.668
336.823
334.445
334.21
333.112
332.176
331.304
330.438
329.578
328.733
327.906
327.098
326.306
325.532
324.773
324.032
323.306
322.597
321.905
321.23
320.57
319.927
319.301
318.691
318.097
317.519
316.958
316.413
315.884
315.372
314.875
314.395
313.931
313.483
313.052
312.635
312.236
311.852
311.484
311.133
310.796
310.476
310.172
309.883
309.61
309.353
309.112
308.885
308.675
308.479
308.3
308.134
307.985
307.851
307.734
307.632
307.545
307.474
307.418
307.378
307.352
307.342
307.346
307.365
307.398
307.444
307.504
307.577
307.663
307.76
307.87
307.99
308.119
308.258
308.407
308.563
308.725
308.894
309.069
309.246
309.427
309.611
309.794
309.978
310.16
310.339
310.515
310.685
310.849
311.006
311.154
311.292
311.42
311.536
311.641
311.731
311.807
311.87
311.916
311.948
311.963
336.631
334.233
333.985
332.882
331.944
331.07
330.206
329.345
328.497
327.667
326.856
326.062
325.285
324.525
323.78
323.051
322.339
321.644
320.965
320.302
319.656
319.025
318.411
317.813
317.231
316.666
316.117
315.583
315.065
314.564
314.079
313.609
313.155
312.718
312.296
311.89
311.5
311.125
310.767
310.423
310.096
309.784
309.488
309.208
308.943
308.693
308.458
308.24
308.036
307.846
307.673
307.515
307.373
307.246
307.136
307.04
306.959
306.893
306.844
306.809
306.79
306.784
306.794
306.817
306.855
306.905
306.969
307.046
307.135
307.235
307.346
307.468
307.599
307.739
307.887
308.042
308.204
308.371
308.542
308.717
308.894
309.072
309.25
309.427
309.601
309.772
309.938
310.098
310.252
310.398
310.534
310.658
310.772
310.875
310.963
311.039
311.1
311.146
311.177
311.192
336.472
333.997
333.74
332.633
331.691
330.814
329.945
329.082
328.233
327.403
326.591
325.796
325.016
324.253
323.506
322.776
322.061
321.362
320.68
320.015
319.364
318.73
318.112
317.509
316.923
316.353
315.798
315.26
314.737
314.229
313.739
313.263
312.803
312.359
311.931
311.518
311.121
310.74
310.374
310.023
309.688
309.368
309.064
308.775
308.501
308.243
307.999
307.772
307.559
307.36
307.178
307.01
306.858
306.722
306.601
306.495
306.405
306.33
306.27
306.225
306.195
306.18
306.179
306.192
306.219
306.26
306.314
306.381
306.459
306.55
306.652
306.763
306.886
307.017
307.156
307.303
307.456
307.615
307.779
307.946
308.116
308.287
308.46
308.631
308.8
308.966
309.128
309.284
309.433
309.574
309.707
309.83
309.942
310.042
310.128
310.202
310.263
310.308
310.338
310.353
336.146
333.729
333.478
332.367
331.422
330.544
329.675
328.811
327.96
327.127
326.311
325.514
324.732
323.966
323.216
322.482
321.764
321.062
320.376
319.706
319.051
318.413
317.791
317.184
316.592
316.017
315.458
314.914
314.385
313.872
313.375
312.893
312.427
311.977
311.541
311.121
310.717
310.328
309.954
309.596
309.253
308.925
308.612
308.314
308.032
307.763
307.51
307.272
307.049
306.841
306.648
306.471
306.309
306.161
306.03
305.913
305.812
305.726
305.654
305.599
305.558
305.531
305.52
305.522
305.538
305.567
305.61
305.665
305.733
305.813
305.905
306.006
306.118
306.239
306.369
306.506
306.65
306.8
306.956
307.115
307.278
307.441
307.606
307.771
307.933
308.094
308.25
308.401
308.546
308.683
308.812
308.932
309.041
309.138
309.223
309.295
309.354
309.398
309.428
309.444
335.913
333.436
333.174
332.069
331.13
330.251
329.379
328.513
327.661
326.827
326.011
325.211
324.427
323.658
322.905
322.168
321.447
320.741
320.052
319.378
318.719
318.076
317.449
316.837
316.241
315.66
315.094
314.545
314.01
313.491
312.988
312.499
312.027
311.569
311.127
310.699
310.287
309.89
309.508
309.14
308.789
308.452
308.13
307.823
307.53
307.253
306.989
306.74
306.507
306.288
306.085
305.896
305.723
305.564
305.421
305.293
305.18
305.082
304.999
304.931
304.878
304.84
304.815
304.806
304.809
304.827
304.858
304.901
304.958
305.026
305.105
305.196
305.296
305.406
305.525
305.652
305.786
305.926
306.071
306.222
306.375
306.531
306.688
306.845
307
307.154
307.304
307.45
307.589
307.723
307.847
307.962
308.069
308.163
308.246
308.316
308.373
308.416
308.445
308.459
335.535
333.123
332.884
331.778
330.831
329.949
329.077
328.208
327.354
326.516
325.696
324.894
324.108
323.336
322.58
321.838
321.114
320.404
319.71
319.032
318.368
317.721
317.089
316.472
315.87
315.284
314.712
314.157
313.616
313.09
312.579
312.083
311.603
311.138
310.688
310.252
309.831
309.426
309.035
308.659
308.297
307.952
307.62
307.303
307
306.711
306.438
306.178
305.933
305.703
305.487
305.288
305.102
304.932
304.776
304.635
304.509
304.399
304.304
304.223
304.157
304.105
304.068
304.045
304.036
304.04
304.058
304.088
304.131
304.186
304.253
304.331
304.419
304.517
304.623
304.739
304.861
304.991
305.125
305.265
305.409
305.555
305.702
305.851
305.999
306.145
306.289
306.427
306.561
306.688
306.808
306.919
307.021
307.112
307.192
307.26
307.315
307.357
307.385
307.398
335.244
332.803
332.549
331.441
330.499
329.618
328.745
327.876
327.021
326.183
325.362
324.557
323.767
322.993
322.233
321.489
320.761
320.047
319.349
318.667
317.999
317.346
316.708
316.086
315.478
314.886
314.308
313.746
313.198
312.665
312.148
311.645
311.156
310.683
310.225
309.78
309.351
308.937
308.536
308.151
307.78
307.424
307.082
306.754
306.441
306.141
305.856
305.584
305.327
305.085
304.857
304.645
304.446
304.262
304.094
303.94
303.801
303.677
303.568
303.473
303.393
303.327
303.276
303.239
303.215
303.206
303.209
303.225
303.254
303.295
303.348
303.411
303.485
303.57
303.664
303.766
303.876
303.993
304.116
304.244
304.376
304.512
304.65
304.788
304.926
305.065
305.199
305.331
305.458
305.578
305.693
305.799
305.896
305.984
306.059
306.124
306.177
306.217
306.244
306.258
334.915
332.481
332.226
331.112
330.163
329.281
328.408
327.538
326.68
325.839
325.014
324.207
323.414
322.636
321.873
321.125
320.392
319.674
318.972
318.283
317.61
316.952
316.309
315.681
315.067
314.469
313.885
313.315
312.76
312.22
311.695
311.183
310.687
310.205
309.738
309.284
308.846
308.422
308.012
307.616
307.235
306.869
306.516
306.177
305.852
305.54
305.243
304.959
304.69
304.435
304.194
303.968
303.756
303.559
303.376
303.208
303.055
302.916
302.792
302.682
302.588
302.506
302.44
302.387
302.348
302.323
302.311
302.312
302.325
302.35
302.388
302.437
302.497
302.566
302.645
302.733
302.828
302.932
303.041
303.157
303.277
303.4
303.526
303.654
303.782
303.91
304.036
304.158
304.277
304.391
304.498
304.598
304.69
304.772
304.845
304.906
304.957
304.995
305.02
305.033
334.564
332.102
331.848
330.746
329.804
328.922
328.045
327.173
326.315
325.472
324.646
323.836
323.04
322.259
321.493
320.742
320.005
319.282
318.575
317.883
317.204
316.541
315.893
315.258
314.638
314.033
313.442
312.865
312.303
311.756
311.222
310.703
310.197
309.707
309.23
308.767
308.319
307.884
307.464
307.057
306.666
306.287
305.922
305.572
305.234
304.91
304.6
304.304
304.021
303.753
303.498
303.258
303.031
302.82
302.622
302.439
302.271
302.117
301.976
301.851
301.74
301.643
301.56
301.491
301.435
301.393
301.365
301.349
301.345
301.354
301.375
301.407
301.45
301.502
301.566
301.638
301.718
301.806
301.901
302.002
302.108
302.218
302.33
302.445
302.562
302.678
302.793
302.906
303.016
303.121
303.221
303.314
303.399
303.476
303.544
303.601
303.649
303.684
303.708
303.721
334.127
331.706
331.468
330.369
329.428
328.547
327.672
326.799
325.938
325.092
324.263
323.45
322.651
321.866
321.096
320.34
319.598
318.872
318.16
317.462
316.779
316.109
315.455
314.814
314.187
313.576
312.978
312.393
311.824
311.268
310.726
310.198
309.684
309.184
308.698
308.225
307.767
307.322
306.891
306.474
306.07
305.679
305.303
304.939
304.589
304.253
303.929
303.619
303.322
303.039
302.77
302.514
302.273
302.046
301.833
301.633
301.448
301.278
301.122
300.98
300.851
300.737
300.636
300.549
300.476
300.416
300.369
300.335
300.313
300.304
300.306
300.321
300.346
300.381
300.426
300.48
300.544
300.614
300.692
300.777
300.867
300.962
301.061
301.161
301.264
301.367
301.47
301.572
301.671
301.766
301.856
301.941
302.02
302.09
302.152
302.205
302.249
302.281
302.303
302.314
333.707
331.317
331.087
329.987
329.042
328.158
327.281
326.408
325.545
324.697
323.865
323.049
322.247
321.459
320.685
319.925
319.179
318.448
317.73
317.027
316.338
315.663
315.001
314.354
313.72
313.1
312.495
311.903
311.325
310.761
310.21
309.673
309.15
308.64
308.144
307.661
307.192
306.735
306.293
305.864
305.449
305.046
304.657
304.281
303.917
303.566
303.229
302.904
302.593
302.295
302.01
301.739
301.482
301.238
301.009
300.792
300.59
300.402
300.228
300.067
299.921
299.788
299.668
299.563
299.47
299.391
299.325
299.271
299.23
299.2
299.184
299.178
299.183
299.199
299.225
299.26
299.303
299.356
299.416
299.483
299.554
299.632
299.714
299.798
299.886
299.975
300.064
300.151
300.238
300.322
300.401
300.476
300.546
300.609
300.665
300.712
300.751
300.78
300.8
300.81
333.357
330.936
330.683
329.579
328.639
327.759
326.88
326.003
325.136
324.286
323.452
322.632
321.827
321.034
320.257
319.492
318.742
318.005
317.282
316.574
315.879
315.198
314.53
313.876
313.235
312.608
311.995
311.395
310.808
310.235
309.676
309.129
308.596
308.076
307.569
307.076
306.596
306.128
305.674
305.232
304.803
304.387
303.985
303.595
303.217
302.853
302.5
302.161
301.834
301.52
301.219
300.932
300.658
300.397
300.149
299.915
299.695
299.488
299.295
299.115
298.95
298.797
298.658
298.531
298.419
298.319
298.231
298.157
298.094
298.044
298.005
297.978
297.962
297.956
297.961
297.974
297.997
298.029
298.068
298.115
298.167
298.224
298.287
298.354
298.424
298.495
298.568
298.641
298.713
298.784
298.851
298.914
298.974
299.028
299.076
299.116
299.15
299.176
299.193
299.201
332.95
330.526
330.278
329.173
328.226
327.338
326.457
325.579
324.711
323.859
323.022
322.199
321.39
320.594
319.811
319.042
318.287
317.545
316.818
316.104
315.403
314.715
314.041
313.379
312.731
312.097
311.474
310.867
310.271
309.689
309.12
308.564
308.02
307.49
306.973
306.469
305.977
305.497
305.031
304.577
304.135
303.706
303.289
302.885
302.493
302.113
301.744
301.389
301.046
300.716
300.397
300.092
299.801
299.522
299.256
299.003
298.764
298.537
298.324
298.125
297.938
297.764
297.603
297.456
297.321
297.198
297.089
296.992
296.906
296.833
296.771
296.721
296.681
296.652
296.633
296.624
296.623
296.632
296.648
296.672
296.702
296.738
296.78
296.825
296.874
296.927
296.982
297.036
297.092
297.147
297.2
297.25
297.298
297.34
297.379
297.412
297.439
297.46
297.474
297.481
332.573
330.103
329.842
328.744
327.803
326.916
326.032
325.149
324.277
323.421
322.58
321.754
320.94
320.14
319.353
318.579
317.819
317.072
316.338
315.617
314.909
314.215
313.533
312.865
312.209
311.567
310.936
310.32
309.715
309.124
308.544
307.979
307.425
306.883
306.355
305.839
305.336
304.844
304.365
303.897
303.442
302.999
302.568
302.149
301.742
301.346
300.962
300.59
300.23
299.882
299.546
299.223
298.913
298.615
298.33
298.057
297.797
297.551
297.315
297.094
296.886
296.69
296.507
296.336
296.178
296.032
295.898
295.777
295.666
295.569
295.482
295.405
295.341
295.286
295.241
295.206
295.18
295.163
295.153
295.152
295.157
295.17
295.187
295.209
295.236
295.266
295.299
295.333
295.37
295.406
295.442
295.477
295.51
295.54
295.567
295.592
295.611
295.626
295.636
295.641
332.072
329.679
329.432
328.312
327.356
326.464
325.581
324.699
323.826
322.968
322.124
321.294
320.477
319.673
318.881
318.102
317.337
316.584
315.845
315.118
314.403
313.702
313.012
312.337
311.673
311.022
310.383
309.756
309.144
308.542
307.953
307.376
306.811
306.259
305.719
305.19
304.674
304.169
303.677
303.195
302.726
302.269
301.823
301.388
300.965
300.553
300.153
299.763
299.385
299.02
298.665
298.323
297.993
297.675
297.37
297.076
296.795
296.527
296.27
296.027
295.794
295.575
295.368
295.172
294.99
294.818
294.658
294.511
294.375
294.249
294.135
294.032
293.939
293.857
293.785
293.721
293.666
293.621
293.584
293.554
293.531
293.516
293.506
293.502
293.502
293.507
293.516
293.527
293.54
293.555
293.571
293.588
293.604
293.619
293.633
293.646
293.657
293.664
293.67
293.673
331.631
329.196
328.947
327.844
326.9
326.012
325.125
324.239
323.362
322.499
321.652
320.819
319.997
319.188
318.392
317.608
316.838
316.08
315.334
314.601
313.88
313.171
312.476
311.791
311.12
310.461
309.813
309.178
308.554
307.943
307.344
306.756
306.179
305.615
305.063
304.522
303.992
303.475
302.968
302.472
301.989
301.517
301.055
300.605
300.165
299.735
299.318
298.91
298.514
298.129
297.756
297.393
297.043
296.704
296.377
296.063
295.759
295.468
295.188
294.92
294.664
294.419
294.187
293.965
293.756
293.558
293.371
293.196
293.03
292.877
292.733
292.601
292.478
292.365
292.261
292.167
292.082
292.005
291.937
291.876
291.823
291.775
291.735
291.701
291.671
291.647
291.627
291.611
291.599
291.588
291.581
291.576
291.572
291.569
291.567
291.566
291.566
291.566
291.566
291.565
331.227
328.788
328.522
327.397
326.435
325.536
324.647
323.758
322.88
322.015
321.165
320.327
319.502
318.689
317.888
317.099
316.323
315.559
314.807
314.068
313.34
312.624
311.92
311.23
310.55
309.881
309.225
308.58
307.947
307.326
306.716
306.117
305.53
304.954
304.389
303.835
303.293
302.76
302.239
301.73
301.231
300.742
300.264
299.797
299.34
298.894
298.457
298.032
297.617
297.212
296.818
296.436
296.064
295.703
295.354
295.017
294.69
294.374
294.071
293.777
293.495
293.225
292.965
292.717
292.479
292.252
292.035
291.83
291.635
291.45
291.275
291.11
290.955
290.81
290.673
290.545
290.425
290.313
290.21
290.115
290.026
289.945
289.87
289.801
289.738
289.68
289.628
289.581
289.537
289.498
289.463
289.431
289.404
289.38
289.359
289.342
289.328
289.318
289.311
289.307
330.651
328.22
327.992
326.894
325.945
325.053
324.163
323.271
322.39
321.522
320.667
319.826
318.996
318.178
317.371
316.577
315.795
315.025
314.267
313.521
312.786
312.063
311.351
310.651
309.962
309.285
308.62
307.965
307.322
306.69
306.069
305.46
304.861
304.272
303.695
303.129
302.572
302.027
301.491
300.966
300.451
299.948
299.453
298.969
298.494
298.028
297.574
297.128
296.693
296.268
295.854
295.449
295.056
294.673
294.301
293.939
293.587
293.246
292.917
292.598
292.289
291.991
291.702
291.425
291.157
290.9
290.653
290.415
290.188
289.97
289.762
289.562
289.371
289.189
289.016
288.852
288.695
288.545
288.404
288.27
288.142
288.021
287.908
287.8
287.699
287.602
287.512
287.428
287.349
287.276
287.208
287.146
287.091
287.041
286.997
286.961
286.931
286.908
286.893
286.885
330.368
327.851
327.555
326.427
325.466
324.564
323.666
322.771
321.885
321.014
320.156
319.31
318.476
317.654
316.842
316.043
315.255
314.479
313.714
312.961
312.218
311.488
310.768
310.059
309.362
308.676
308
307.335
306.682
306.039
305.407
304.786
304.175
303.573
302.983
302.403
301.833
301.272
300.723
300.182
299.652
299.131
298.62
298.117
297.624
297.141
296.667
296.201
295.745
295.299
294.863
294.436
294.02
293.613
293.217
292.83
292.453
292.087
291.73
291.383
291.046
290.718
290.401
290.092
289.793
289.504
289.223
288.953
288.69
288.436
288.191
287.954
287.727
287.505
287.293
287.088
286.89
286.699
286.515
286.338
286.168
286.003
285.845
285.694
285.548
285.409
285.275
285.148
285.027
284.914
284.808
284.71
284.619
284.539
284.468
284.407
284.358
284.32
284.294
284.282
329.59
327.211
326.983
325.883
324.936
324.041
323.148
322.252
321.365
320.489
319.628
318.779
317.94
317.112
316.296
315.491
314.697
313.914
313.143
312.383
311.633
310.895
310.167
309.45
308.744
308.049
307.364
306.689
306.024
305.371
304.728
304.094
303.47
302.857
302.254
301.66
301.076
300.501
299.935
299.38
298.833
298.295
297.766
297.246
296.734
296.231
295.737
295.25
294.773
294.305
293.847
293.396
292.957
292.526
292.104
291.692
291.288
290.894
290.509
290.133
289.766
289.409
289.059
288.719
288.387
288.064
287.748
287.441
287.141
286.85
286.566
286.289
286.021
285.758
285.502
285.253
285.01
284.774
284.543
284.319
284.099
283.887
283.679
283.477
283.281
283.091
282.909
282.732
282.563
282.402
282.251
282.109
281.979
281.86
281.756
281.666
281.592
281.536
281.498
281.478
329.181
326.772
326.516
325.394
324.431
323.53
322.631
321.73
320.838
319.96
319.093
318.239
317.396
316.564
315.741
314.931
314.131
313.341
312.563
311.795
311.038
310.291
309.555
308.829
308.113
307.408
306.713
306.028
305.353
304.687
304.031
303.386
302.749
302.123
301.506
300.898
300.299
299.709
299.128
298.556
297.993
297.438
296.892
296.353
295.822
295.299
294.785
294.277
293.778
293.287
292.806
292.332
291.867
291.411
290.963
290.524
290.093
289.67
289.257
288.851
288.453
288.063
287.68
287.307
286.94
286.58
286.228
285.882
285.544
285.212
284.887
284.568
284.254
283.946
283.644
283.348
283.055
282.769
282.487
282.209
281.938
281.669
281.406
281.148
280.895
280.648
280.407
280.173
279.948
279.731
279.525
279.332
279.152
278.988
278.843
278.717
278.614
278.535
278.48
278.454
328.578
326.176
325.95
324.847
323.892
322.991
322.091
321.19
320.295
319.414
318.544
317.685
316.837
316
315.173
314.357
313.55
312.755
311.97
311.195
310.43
309.676
308.93
308.196
307.471
306.756
306.05
305.354
304.668
303.99
303.323
302.665
302.015
301.375
300.744
300.121
299.506
298.901
298.304
297.715
297.135
296.562
295.997
295.44
294.89
294.346
293.811
293.282
292.76
292.246
291.741
291.243
290.752
290.27
289.795
289.328
288.869
288.417
287.972
287.535
287.106
286.682
286.265
285.856
285.452
285.054
284.663
284.278
283.898
283.523
283.153
282.788
282.428
282.071
281.719
281.371
281.025
280.684
280.346
280.011
279.678
279.349
279.024
278.701
278.384
278.071
277.764
277.463
277.171
276.888
276.619
276.362
276.124
275.904
275.708
275.539
275.398
275.29
275.217
275.178
328.101
325.693
325.441
324.323
323.358
322.452
321.548
320.642
319.743
318.857
317.983
317.119
316.268
315.425
314.592
313.77
312.958
312.155
311.364
310.581
309.809
309.045
308.292
307.549
306.814
306.089
305.374
304.666
303.969
303.281
302.6
301.93
301.268
300.613
299.968
299.33
298.7
298.079
297.465
296.858
296.26
295.669
295.085
294.508
293.938
293.374
292.817
292.265
291.721
291.183
290.653
290.13
289.613
289.105
288.602
288.107
287.618
287.135
286.659
286.189
285.726
285.268
284.814
284.368
283.926
283.489
283.056
282.628
282.205
281.784
281.367
280.953
280.542
280.134
279.727
279.323
278.92
278.519
278.118
277.719
277.321
276.924
276.528
276.134
275.743
275.355
274.97
274.592
274.223
273.863
273.515
273.185
272.874
272.588
272.329
272.105
271.918
271.773
271.673
271.624
327.591
325.154
324.892
323.772
322.807
321.898
320.988
320.078
319.176
318.286
317.409
316.541
315.684
314.836
313.998
313.17
312.351
311.542
310.742
309.953
309.172
308.401
307.638
306.886
306.142
305.407
304.681
303.964
303.254
302.554
301.862
301.178
300.503
299.835
299.175
298.522
297.878
297.24
296.609
295.986
295.37
294.761
294.157
293.56
292.968
292.383
291.803
291.229
290.662
290.1
289.545
288.995
288.452
287.915
287.384
286.859
286.339
285.825
285.317
284.813
284.315
283.82
283.33
282.845
282.362
281.884
281.408
280.936
280.465
279.997
279.53
279.064
278.599
278.135
277.671
277.206
276.74
276.273
275.805
275.336
274.865
274.391
273.918
273.443
272.967
272.493
272.021
271.554
271.092
270.64
270.202
269.78
269.382
269.012
268.677
268.384
268.138
267.946
267.816
267.748
327.147
324.631
324.346
323.221
322.251
321.337
320.423
319.511
318.604
317.71
316.827
315.955
315.093
314.24
313.396
312.561
311.737
310.921
310.114
309.316
308.528
307.747
306.977
306.214
305.46
304.715
303.977
303.249
302.529
301.815
301.111
300.413
299.724
299.042
298.367
297.699
297.039
296.385
295.737
295.097
294.463
293.834
293.211
292.594
291.983
291.375
290.772
290.175
289.583
288.996
288.415
287.839
287.268
286.703
286.143
285.587
285.036
284.489
283.947
283.408
282.874
282.342
281.813
281.287
280.763
280.241
279.721
279.201
278.682
278.163
277.643
277.122
276.6
276.077
275.549
275.02
274.486
273.949
273.407
272.861
272.309
271.752
271.191
270.625
270.055
269.483
268.909
268.337
267.768
267.208
266.659
266.129
265.624