/*--------------------------------*- C++ -*----------------------------------*\
| =========                 |                                                 |
| \\      /  F ield         | OpenFOAM: The Open Source CFD Toolbox           |
|  \\    /   O peration     | Version:  4.1                                   |
|   \\  /    A nd           | Web:      www.OpenFOAM.org                      |
|    \\/     M anipulation  |                                                 |
\*---------------------------------------------------------------------------*/
FoamFile
{
    version     2.0;
    format      ascii;
    class       volScalarField;
    location    "0.101";
    object      pPrime2Mean;
}
// * * * * * * * * * * * * * * * * * * * * * * * * * * * * * * * * * * * * * //

dimensions      [0 4 -4 0 0 0 0];

internalField   nonuniform List<scalar> 
43750
(
3.59512e+09
3.56993e+09
3.54357e+09
3.5174e+09
3.49141e+09
3.46562e+09
3.44003e+09
3.41464e+09
3.38945e+09
3.36446e+09
3.33968e+09
3.31511e+09
3.29073e+09
3.26656e+09
3.2426e+09
3.21883e+09
3.19527e+09
3.17191e+09
3.14877e+09
3.12582e+09
3.10307e+09
3.08053e+09
3.0582e+09
3.03607e+09
3.01414e+09
2.99242e+09
2.9709e+09
2.94959e+09
2.92848e+09
2.90759e+09
2.88689e+09
2.86642e+09
2.84615e+09
2.82608e+09
2.80624e+09
2.78659e+09
2.76718e+09
2.74797e+09
2.72897e+09
2.7102e+09
2.69164e+09
2.6733e+09
2.65519e+09
2.63731e+09
2.61964e+09
2.60221e+09
2.58501e+09
2.56802e+09
2.55129e+09
2.53478e+09
2.51852e+09
2.50249e+09
2.48672e+09
2.47118e+09
2.45589e+09
2.44086e+09
2.42608e+09
2.41156e+09
2.3973e+09
2.3833e+09
2.36958e+09
2.35612e+09
2.34293e+09
2.33003e+09
2.3174e+09
2.30505e+09
2.293e+09
2.28125e+09
2.26978e+09
2.25862e+09
2.24777e+09
2.23722e+09
2.22699e+09
2.21706e+09
2.20747e+09
2.19819e+09
2.18925e+09
2.18065e+09
2.17237e+09
2.16445e+09
2.15686e+09
2.14962e+09
2.14275e+09
2.13622e+09
2.13007e+09
2.12427e+09
2.11885e+09
2.1138e+09
2.10911e+09
2.10482e+09
2.1009e+09
2.09737e+09
2.09422e+09
2.09146e+09
2.08909e+09
2.08712e+09
2.08554e+09
2.08435e+09
2.08356e+09
2.08316e+09
3.5952e+09
3.56991e+09
3.54351e+09
3.51732e+09
3.49132e+09
3.46552e+09
3.43992e+09
3.41453e+09
3.38934e+09
3.36435e+09
3.33958e+09
3.315e+09
3.29062e+09
3.26644e+09
3.24248e+09
3.21871e+09
3.19515e+09
3.1718e+09
3.14865e+09
3.1257e+09
3.10295e+09
3.08041e+09
3.05808e+09
3.03594e+09
3.01402e+09
2.99229e+09
2.97078e+09
2.94946e+09
2.92835e+09
2.90745e+09
2.88676e+09
2.86628e+09
2.84601e+09
2.82595e+09
2.80609e+09
2.78646e+09
2.76703e+09
2.74782e+09
2.72882e+09
2.71004e+09
2.69148e+09
2.67314e+09
2.65503e+09
2.63714e+09
2.61948e+09
2.60204e+09
2.58483e+09
2.56785e+09
2.5511e+09
2.53459e+09
2.51833e+09
2.5023e+09
2.48652e+09
2.47098e+09
2.45569e+09
2.44065e+09
2.42587e+09
2.41134e+09
2.39707e+09
2.38307e+09
2.36935e+09
2.35588e+09
2.34269e+09
2.32978e+09
2.31714e+09
2.30481e+09
2.29275e+09
2.28098e+09
2.26952e+09
2.25835e+09
2.24748e+09
2.23693e+09
2.22669e+09
2.21677e+09
2.20716e+09
2.19788e+09
2.18893e+09
2.18032e+09
2.17204e+09
2.16411e+09
2.15652e+09
2.14929e+09
2.14239e+09
2.13587e+09
2.12971e+09
2.12391e+09
2.11848e+09
2.11342e+09
2.10875e+09
2.10444e+09
2.10052e+09
2.09698e+09
2.09383e+09
2.09107e+09
2.0887e+09
2.08672e+09
2.08514e+09
2.08395e+09
2.08316e+09
2.08276e+09
3.59502e+09
3.56977e+09
3.54335e+09
3.51715e+09
3.49113e+09
3.46532e+09
3.43972e+09
3.41432e+09
3.38913e+09
3.36414e+09
3.33936e+09
3.31477e+09
3.2904e+09
3.26623e+09
3.24225e+09
3.21849e+09
3.19493e+09
3.17157e+09
3.14841e+09
3.12546e+09
3.10272e+09
3.08017e+09
3.05783e+09
3.0357e+09
3.01376e+09
2.99204e+09
2.97052e+09
2.9492e+09
2.9281e+09
2.90719e+09
2.8865e+09
2.86601e+09
2.84573e+09
2.82567e+09
2.8058e+09
2.78617e+09
2.76673e+09
2.74752e+09
2.72852e+09
2.70973e+09
2.69118e+09
2.67283e+09
2.65471e+09
2.63681e+09
2.61914e+09
2.60169e+09
2.58448e+09
2.56749e+09
2.55074e+09
2.53423e+09
2.51795e+09
2.50192e+09
2.48612e+09
2.47058e+09
2.45528e+09
2.44024e+09
2.42544e+09
2.41091e+09
2.39664e+09
2.38263e+09
2.36888e+09
2.35541e+09
2.34221e+09
2.32928e+09
2.31665e+09
2.30429e+09
2.29222e+09
2.28045e+09
2.26897e+09
2.25779e+09
2.24692e+09
2.23635e+09
2.22611e+09
2.21616e+09
2.20655e+09
2.19726e+09
2.1883e+09
2.17967e+09
2.17139e+09
2.16345e+09
2.15585e+09
2.1486e+09
2.1417e+09
2.13517e+09
2.129e+09
2.12318e+09
2.11775e+09
2.11269e+09
2.10799e+09
2.10369e+09
2.09976e+09
2.09622e+09
2.09306e+09
2.09029e+09
2.08792e+09
2.08594e+09
2.08435e+09
2.08316e+09
2.08237e+09
2.08197e+09
3.59483e+09
3.56955e+09
3.54311e+09
3.51688e+09
3.49085e+09
3.46504e+09
3.43942e+09
3.41401e+09
3.38881e+09
3.36382e+09
3.33902e+09
3.31444e+09
3.29006e+09
3.26588e+09
3.24191e+09
3.21815e+09
3.19458e+09
3.17122e+09
3.14806e+09
3.1251e+09
3.10236e+09
3.07981e+09
3.05746e+09
3.03533e+09
3.0134e+09
2.99166e+09
2.97013e+09
2.94881e+09
2.9277e+09
2.9068e+09
2.88609e+09
2.8656e+09
2.84531e+09
2.82524e+09
2.80538e+09
2.78573e+09
2.76629e+09
2.74707e+09
2.72806e+09
2.70928e+09
2.6907e+09
2.67235e+09
2.65422e+09
2.63631e+09
2.61863e+09
2.60118e+09
2.58396e+09
2.56695e+09
2.5502e+09
2.53367e+09
2.51738e+09
2.50134e+09
2.48554e+09
2.46997e+09
2.45466e+09
2.43961e+09
2.4248e+09
2.41025e+09
2.39597e+09
2.38194e+09
2.36819e+09
2.3547e+09
2.34148e+09
2.32855e+09
2.3159e+09
2.30352e+09
2.29144e+09
2.27965e+09
2.26815e+09
2.25696e+09
2.24607e+09
2.23549e+09
2.22522e+09
2.21526e+09
2.20564e+09
2.19633e+09
2.18736e+09
2.17871e+09
2.17041e+09
2.16245e+09
2.15483e+09
2.14757e+09
2.14066e+09
2.13412e+09
2.12793e+09
2.1221e+09
2.11665e+09
2.11158e+09
2.10688e+09
2.10256e+09
2.09862e+09
2.09506e+09
2.0919e+09
2.08913e+09
2.08674e+09
2.08476e+09
2.08317e+09
2.08197e+09
2.08118e+09
2.08078e+09
3.59458e+09
3.56926e+09
3.54278e+09
3.51652e+09
3.49048e+09
3.46464e+09
3.43901e+09
3.41359e+09
3.38839e+09
3.36338e+09
3.33858e+09
3.314e+09
3.28962e+09
3.26543e+09
3.24146e+09
3.21768e+09
3.19411e+09
3.17075e+09
3.14759e+09
3.12463e+09
3.10187e+09
3.07933e+09
3.05698e+09
3.03483e+09
3.01289e+09
2.99115e+09
2.96963e+09
2.9483e+09
2.92718e+09
2.90626e+09
2.88556e+09
2.86506e+09
2.84477e+09
2.82469e+09
2.80481e+09
2.78516e+09
2.76571e+09
2.74647e+09
2.72746e+09
2.70865e+09
2.69008e+09
2.67171e+09
2.65357e+09
2.63566e+09
2.61796e+09
2.60049e+09
2.58325e+09
2.56625e+09
2.54948e+09
2.53293e+09
2.51663e+09
2.50057e+09
2.48475e+09
2.46918e+09
2.45385e+09
2.43877e+09
2.42395e+09
2.40939e+09
2.39508e+09
2.38104e+09
2.36726e+09
2.35375e+09
2.34052e+09
2.32757e+09
2.31489e+09
2.3025e+09
2.2904e+09
2.27859e+09
2.26707e+09
2.25585e+09
2.24494e+09
2.23433e+09
2.22405e+09
2.21407e+09
2.20442e+09
2.19509e+09
2.18609e+09
2.17743e+09
2.1691e+09
2.16112e+09
2.15348e+09
2.14621e+09
2.13927e+09
2.1327e+09
2.1265e+09
2.12066e+09
2.11519e+09
2.11009e+09
2.10538e+09
2.10104e+09
2.09709e+09
2.09353e+09
2.09035e+09
2.08757e+09
2.08518e+09
2.08319e+09
2.08159e+09
2.08039e+09
2.07959e+09
2.07919e+09
3.59428e+09
3.56889e+09
3.54236e+09
3.51606e+09
3.48999e+09
3.46413e+09
3.43849e+09
3.41306e+09
3.38785e+09
3.36284e+09
3.33804e+09
3.31344e+09
3.28905e+09
3.26487e+09
3.24088e+09
3.21711e+09
3.19354e+09
3.17017e+09
3.14701e+09
3.12404e+09
3.10128e+09
3.07872e+09
3.05637e+09
3.03422e+09
3.01227e+09
2.99053e+09
2.96898e+09
2.94765e+09
2.92652e+09
2.9056e+09
2.88488e+09
2.86438e+09
2.84408e+09
2.82398e+09
2.8041e+09
2.78444e+09
2.76498e+09
2.74573e+09
2.72671e+09
2.70789e+09
2.6893e+09
2.67092e+09
2.65276e+09
2.63482e+09
2.61712e+09
2.59964e+09
2.58238e+09
2.56536e+09
2.54857e+09
2.53201e+09
2.51569e+09
2.49961e+09
2.48377e+09
2.46818e+09
2.45283e+09
2.43773e+09
2.42289e+09
2.4083e+09
2.39397e+09
2.37991e+09
2.36611e+09
2.35257e+09
2.33933e+09
2.32634e+09
2.31364e+09
2.30122e+09
2.28909e+09
2.27725e+09
2.26571e+09
2.25446e+09
2.24352e+09
2.2329e+09
2.22258e+09
2.21258e+09
2.20289e+09
2.19354e+09
2.18452e+09
2.17582e+09
2.16747e+09
2.15946e+09
2.1518e+09
2.14449e+09
2.13753e+09
2.13094e+09
2.12471e+09
2.11885e+09
2.11336e+09
2.10824e+09
2.10351e+09
2.09915e+09
2.09519e+09
2.09161e+09
2.08842e+09
2.08563e+09
2.08322e+09
2.08122e+09
2.07961e+09
2.07841e+09
2.0776e+09
2.07721e+09
3.59392e+09
3.5684e+09
3.54182e+09
3.51549e+09
3.48938e+09
3.46352e+09
3.43786e+09
3.41243e+09
3.3872e+09
3.36218e+09
3.33737e+09
3.31278e+09
3.28838e+09
3.26419e+09
3.24021e+09
3.21642e+09
3.19285e+09
3.16947e+09
3.14629e+09
3.12333e+09
3.10057e+09
3.078e+09
3.05564e+09
3.03348e+09
3.01152e+09
2.98977e+09
2.96822e+09
2.94688e+09
2.92574e+09
2.90481e+09
2.88408e+09
2.86356e+09
2.84325e+09
2.82314e+09
2.80325e+09
2.78357e+09
2.7641e+09
2.74484e+09
2.72579e+09
2.70697e+09
2.68835e+09
2.66997e+09
2.65179e+09
2.63384e+09
2.61611e+09
2.59861e+09
2.58134e+09
2.56429e+09
2.54748e+09
2.5309e+09
2.51456e+09
2.49846e+09
2.4826e+09
2.46698e+09
2.4516e+09
2.43648e+09
2.42162e+09
2.40701e+09
2.39265e+09
2.37856e+09
2.36472e+09
2.35117e+09
2.33788e+09
2.32487e+09
2.31213e+09
2.29969e+09
2.28753e+09
2.27566e+09
2.26408e+09
2.2528e+09
2.24183e+09
2.23117e+09
2.22082e+09
2.21078e+09
2.20106e+09
2.19168e+09
2.18262e+09
2.17389e+09
2.16551e+09
2.15746e+09
2.14977e+09
2.14243e+09
2.13545e+09
2.12883e+09
2.12257e+09
2.11668e+09
2.11116e+09
2.10602e+09
2.10126e+09
2.09688e+09
2.09289e+09
2.0893e+09
2.08609e+09
2.08328e+09
2.08087e+09
2.07885e+09
2.07724e+09
2.07603e+09
2.07522e+09
2.07482e+09
3.5932e+09
3.56774e+09
3.54114e+09
3.51478e+09
3.48867e+09
3.46278e+09
3.43711e+09
3.41167e+09
3.38644e+09
3.36142e+09
3.3366e+09
3.31199e+09
3.28759e+09
3.2634e+09
3.23941e+09
3.21562e+09
3.19203e+09
3.16865e+09
3.14548e+09
3.1225e+09
3.09972e+09
3.07716e+09
3.05479e+09
3.03262e+09
3.01065e+09
2.9889e+09
2.96733e+09
2.94598e+09
2.92483e+09
2.90389e+09
2.88315e+09
2.86261e+09
2.84228e+09
2.82217e+09
2.80226e+09
2.78256e+09
2.76308e+09
2.7438e+09
2.72473e+09
2.70589e+09
2.68727e+09
2.66885e+09
2.65066e+09
2.63268e+09
2.61494e+09
2.59741e+09
2.58012e+09
2.56305e+09
2.54622e+09
2.52961e+09
2.51325e+09
2.49711e+09
2.48123e+09
2.46559e+09
2.45018e+09
2.43503e+09
2.42014e+09
2.40549e+09
2.3911e+09
2.37697e+09
2.36312e+09
2.34952e+09
2.3362e+09
2.32316e+09
2.31038e+09
2.2979e+09
2.28571e+09
2.27379e+09
2.26218e+09
2.25087e+09
2.23986e+09
2.22916e+09
2.21877e+09
2.20869e+09
2.19893e+09
2.18951e+09
2.18041e+09
2.17164e+09
2.16323e+09
2.15515e+09
2.14741e+09
2.14004e+09
2.13302e+09
2.12635e+09
2.12006e+09
2.11414e+09
2.1086e+09
2.10343e+09
2.09864e+09
2.09424e+09
2.09022e+09
2.08661e+09
2.08338e+09
2.08055e+09
2.07812e+09
2.07609e+09
2.07447e+09
2.07325e+09
2.07244e+09
2.07203e+09
3.59258e+09
3.56699e+09
3.54034e+09
3.51396e+09
3.48783e+09
3.46193e+09
3.43626e+09
3.4108e+09
3.38557e+09
3.36054e+09
3.33572e+09
3.3111e+09
3.2867e+09
3.2625e+09
3.23851e+09
3.21471e+09
3.19111e+09
3.16773e+09
3.14454e+09
3.12156e+09
3.09877e+09
3.0762e+09
3.05382e+09
3.03163e+09
3.00966e+09
2.98789e+09
2.96632e+09
2.94495e+09
2.92379e+09
2.90284e+09
2.88208e+09
2.86153e+09
2.84119e+09
2.82105e+09
2.80113e+09
2.78141e+09
2.76191e+09
2.74262e+09
2.72354e+09
2.70467e+09
2.68602e+09
2.66759e+09
2.64937e+09
2.63138e+09
2.6136e+09
2.59606e+09
2.57874e+09
2.56164e+09
2.54477e+09
2.52815e+09
2.51175e+09
2.49559e+09
2.47967e+09
2.46399e+09
2.44855e+09
2.43337e+09
2.41844e+09
2.40376e+09
2.38934e+09
2.37518e+09
2.36128e+09
2.34764e+09
2.33429e+09
2.32119e+09
2.30839e+09
2.29587e+09
2.28363e+09
2.27167e+09
2.26002e+09
2.24866e+09
2.2376e+09
2.22686e+09
2.21642e+09
2.2063e+09
2.1965e+09
2.18703e+09
2.17788e+09
2.16908e+09
2.16061e+09
2.15248e+09
2.14471e+09
2.13729e+09
2.13023e+09
2.12353e+09
2.1172e+09
2.11124e+09
2.10566e+09
2.10046e+09
2.09564e+09
2.0912e+09
2.08716e+09
2.08352e+09
2.08027e+09
2.07742e+09
2.07497e+09
2.07293e+09
2.07129e+09
2.07006e+09
2.06925e+09
2.06883e+09
3.59172e+09
3.56605e+09
3.53938e+09
3.513e+09
3.48685e+09
3.46096e+09
3.43528e+09
3.40982e+09
3.38458e+09
3.35954e+09
3.33472e+09
3.3101e+09
3.28569e+09
3.26149e+09
3.23749e+09
3.21368e+09
3.19008e+09
3.16668e+09
3.14349e+09
3.1205e+09
3.0977e+09
3.07512e+09
3.05273e+09
3.03054e+09
3.00855e+09
2.98677e+09
2.96518e+09
2.9438e+09
2.92262e+09
2.90165e+09
2.88088e+09
2.86032e+09
2.83996e+09
2.81981e+09
2.79986e+09
2.78013e+09
2.7606e+09
2.74129e+09
2.72218e+09
2.7033e+09
2.68462e+09
2.66616e+09
2.64792e+09
2.6299e+09
2.6121e+09
2.59453e+09
2.57717e+09
2.56005e+09
2.54316e+09
2.52649e+09
2.51007e+09
2.49387e+09
2.47791e+09
2.4622e+09
2.44673e+09
2.43151e+09
2.41654e+09
2.40182e+09
2.38736e+09
2.37315e+09
2.35921e+09
2.34553e+09
2.33214e+09
2.319e+09
2.30614e+09
2.29357e+09
2.28128e+09
2.26929e+09
2.25758e+09
2.24618e+09
2.23507e+09
2.22427e+09
2.21379e+09
2.20362e+09
2.19377e+09
2.18424e+09
2.17505e+09
2.16619e+09
2.15767e+09
2.1495e+09
2.14167e+09
2.1342e+09
2.12709e+09
2.12035e+09
2.11397e+09
2.10797e+09
2.10235e+09
2.09711e+09
2.09225e+09
2.08778e+09
2.08371e+09
2.08004e+09
2.07676e+09
2.07389e+09
2.07143e+09
2.06937e+09
2.06771e+09
2.06647e+09
2.06564e+09
2.06524e+09
3.59046e+09
3.56488e+09
3.53826e+09
3.51189e+09
3.48576e+09
3.45987e+09
3.43419e+09
3.40873e+09
3.38348e+09
3.35844e+09
3.33361e+09
3.30899e+09
3.28457e+09
3.26036e+09
3.23635e+09
3.21254e+09
3.18893e+09
3.16552e+09
3.14232e+09
3.11932e+09
3.09651e+09
3.07392e+09
3.05152e+09
3.02932e+09
3.00731e+09
2.98551e+09
2.96391e+09
2.94252e+09
2.92133e+09
2.90034e+09
2.87956e+09
2.85897e+09
2.83859e+09
2.81842e+09
2.79846e+09
2.7787e+09
2.75915e+09
2.73982e+09
2.72068e+09
2.70177e+09
2.68308e+09
2.66459e+09
2.64632e+09
2.62827e+09
2.61044e+09
2.59283e+09
2.57545e+09
2.55829e+09
2.54137e+09
2.52466e+09
2.50819e+09
2.49197e+09
2.47597e+09
2.46022e+09
2.44471e+09
2.42945e+09
2.41443e+09
2.39967e+09
2.38516e+09
2.37091e+09
2.35692e+09
2.3432e+09
2.32975e+09
2.31656e+09
2.30366e+09
2.29103e+09
2.27869e+09
2.26663e+09
2.25488e+09
2.24341e+09
2.23225e+09
2.2214e+09
2.21086e+09
2.20063e+09
2.19073e+09
2.18114e+09
2.17189e+09
2.16298e+09
2.1544e+09
2.14618e+09
2.13829e+09
2.13078e+09
2.12362e+09
2.11682e+09
2.11039e+09
2.10434e+09
2.09868e+09
2.09339e+09
2.08849e+09
2.08398e+09
2.07987e+09
2.07617e+09
2.07286e+09
2.06996e+09
2.06747e+09
2.0654e+09
2.06372e+09
2.06247e+09
2.06164e+09
2.06123e+09
3.58885e+09
3.56352e+09
3.53699e+09
3.51066e+09
3.48455e+09
3.45866e+09
3.43298e+09
3.40752e+09
3.38227e+09
3.35723e+09
3.33239e+09
3.30776e+09
3.28334e+09
3.25912e+09
3.2351e+09
3.21128e+09
3.18768e+09
3.16426e+09
3.14104e+09
3.11803e+09
3.09522e+09
3.0726e+09
3.05019e+09
3.02797e+09
3.00596e+09
2.98414e+09
2.96254e+09
2.94112e+09
2.91991e+09
2.8989e+09
2.8781e+09
2.85749e+09
2.83709e+09
2.8169e+09
2.79691e+09
2.77714e+09
2.75756e+09
2.7382e+09
2.71904e+09
2.7001e+09
2.68137e+09
2.66286e+09
2.64456e+09
2.62648e+09
2.60861e+09
2.59098e+09
2.57356e+09
2.55636e+09
2.5394e+09
2.52266e+09
2.50616e+09
2.48989e+09
2.47384e+09
2.45805e+09
2.44249e+09
2.42719e+09
2.41213e+09
2.39731e+09
2.38276e+09
2.36846e+09
2.35442e+09
2.34063e+09
2.32713e+09
2.31389e+09
2.30092e+09
2.28824e+09
2.27584e+09
2.26373e+09
2.25191e+09
2.24039e+09
2.22916e+09
2.21825e+09
2.20765e+09
2.19735e+09
2.18739e+09
2.17774e+09
2.16843e+09
2.15944e+09
2.15081e+09
2.14252e+09
2.13458e+09
2.12701e+09
2.11978e+09
2.11293e+09
2.10645e+09
2.10034e+09
2.09462e+09
2.08929e+09
2.08434e+09
2.07979e+09
2.07564e+09
2.0719e+09
2.06855e+09
2.06563e+09
2.06312e+09
2.06101e+09
2.05933e+09
2.05807e+09
2.05723e+09
2.0568e+09
3.58755e+09
3.56215e+09
3.53563e+09
3.50932e+09
3.48322e+09
3.45733e+09
3.43166e+09
3.4062e+09
3.38094e+09
3.3559e+09
3.33106e+09
3.30642e+09
3.282e+09
3.25777e+09
3.23375e+09
3.20993e+09
3.1863e+09
3.16287e+09
3.13965e+09
3.11663e+09
3.0938e+09
3.07117e+09
3.04874e+09
3.02651e+09
3.00448e+09
2.98266e+09
2.96102e+09
2.93959e+09
2.91836e+09
2.89734e+09
2.87651e+09
2.85589e+09
2.83547e+09
2.81525e+09
2.79524e+09
2.77543e+09
2.75583e+09
2.73644e+09
2.71726e+09
2.69829e+09
2.67952e+09
2.66097e+09
2.64265e+09
2.62453e+09
2.60663e+09
2.58896e+09
2.5715e+09
2.55427e+09
2.53726e+09
2.52047e+09
2.50393e+09
2.48761e+09
2.47153e+09
2.45568e+09
2.44009e+09
2.42472e+09
2.40961e+09
2.39475e+09
2.38013e+09
2.36577e+09
2.35168e+09
2.33785e+09
2.32427e+09
2.31098e+09
2.29795e+09
2.28521e+09
2.27274e+09
2.26056e+09
2.24868e+09
2.2371e+09
2.2258e+09
2.21482e+09
2.20414e+09
2.19378e+09
2.18374e+09
2.17403e+09
2.16464e+09
2.1556e+09
2.1469e+09
2.13853e+09
2.13053e+09
2.12288e+09
2.1156e+09
2.10868e+09
2.10214e+09
2.09597e+09
2.09019e+09
2.0848e+09
2.07981e+09
2.07521e+09
2.07102e+09
2.06723e+09
2.06385e+09
2.06089e+09
2.05835e+09
2.05623e+09
2.05452e+09
2.05325e+09
2.05238e+09
2.05196e+09
3.58607e+09
3.56069e+09
3.53418e+09
3.50787e+09
3.48178e+09
3.4559e+09
3.43024e+09
3.40477e+09
3.37951e+09
3.35447e+09
3.32963e+09
3.30499e+09
3.28055e+09
3.25632e+09
3.23228e+09
3.20845e+09
3.18481e+09
3.16138e+09
3.13814e+09
3.11511e+09
3.09226e+09
3.06963e+09
3.04718e+09
3.02494e+09
3.0029e+09
2.98104e+09
2.9594e+09
2.93795e+09
2.9167e+09
2.89565e+09
2.8748e+09
2.85416e+09
2.83371e+09
2.81347e+09
2.79343e+09
2.77359e+09
2.75397e+09
2.73455e+09
2.71533e+09
2.69632e+09
2.67753e+09
2.65894e+09
2.64058e+09
2.62243e+09
2.60449e+09
2.58677e+09
2.56927e+09
2.552e+09
2.53495e+09
2.51813e+09
2.50153e+09
2.48516e+09
2.46903e+09
2.45314e+09
2.43748e+09
2.42207e+09
2.4069e+09
2.39197e+09
2.3773e+09
2.36288e+09
2.34873e+09
2.33483e+09
2.32119e+09
2.30784e+09
2.29475e+09
2.28192e+09
2.2694e+09
2.25715e+09
2.24519e+09
2.23352e+09
2.22216e+09
2.2111e+09
2.20035e+09
2.18992e+09
2.1798e+09
2.17001e+09
2.16055e+09
2.15143e+09
2.14265e+09
2.13421e+09
2.12613e+09
2.11841e+09
2.11106e+09
2.10407e+09
2.09746e+09
2.09123e+09
2.08539e+09
2.07994e+09
2.07489e+09
2.07024e+09
2.066e+09
2.06216e+09
2.05874e+09
2.05575e+09
2.05317e+09
2.05102e+09
2.04929e+09
2.048e+09
2.04714e+09
2.0467e+09
3.58441e+09
3.55912e+09
3.53263e+09
3.50634e+09
3.48024e+09
3.45437e+09
3.4287e+09
3.40323e+09
3.37798e+09
3.35293e+09
3.32808e+09
3.30343e+09
3.27899e+09
3.25475e+09
3.23071e+09
3.20686e+09
3.18322e+09
3.15977e+09
3.13653e+09
3.11348e+09
3.09062e+09
3.06796e+09
3.04551e+09
3.02325e+09
3.00118e+09
2.97932e+09
2.95765e+09
2.93618e+09
2.91491e+09
2.89383e+09
2.87296e+09
2.85229e+09
2.83182e+09
2.81155e+09
2.79148e+09
2.77162e+09
2.75196e+09
2.73251e+09
2.71326e+09
2.69423e+09
2.67539e+09
2.65678e+09
2.63837e+09
2.62017e+09
2.6022e+09
2.58443e+09
2.56689e+09
2.54957e+09
2.53246e+09
2.51559e+09
2.49895e+09
2.48253e+09
2.46635e+09
2.4504e+09
2.43468e+09
2.41921e+09
2.40399e+09
2.389e+09
2.37427e+09
2.35978e+09
2.34556e+09
2.33159e+09
2.31789e+09
2.30446e+09
2.29129e+09
2.27841e+09
2.26579e+09
2.25347e+09
2.24143e+09
2.22969e+09
2.21825e+09
2.20711e+09
2.19628e+09
2.18576e+09
2.17557e+09
2.16569e+09
2.15615e+09
2.14695e+09
2.13808e+09
2.12957e+09
2.1214e+09
2.11361e+09
2.10617e+09
2.0991e+09
2.09242e+09
2.08612e+09
2.08021e+09
2.07469e+09
2.06958e+09
2.06487e+09
2.06057e+09
2.05669e+09
2.05323e+09
2.05019e+09
2.04757e+09
2.04539e+09
2.04364e+09
2.04233e+09
2.04145e+09
2.04102e+09
3.583e+09
3.55753e+09
3.531e+09
3.50469e+09
3.47861e+09
3.45272e+09
3.42705e+09
3.40159e+09
3.37633e+09
3.35128e+09
3.32643e+09
3.30178e+09
3.27733e+09
3.25308e+09
3.22902e+09
3.20517e+09
3.18151e+09
3.15805e+09
3.13479e+09
3.11173e+09
3.08887e+09
3.06619e+09
3.04372e+09
3.02144e+09
2.99936e+09
2.97748e+09
2.95578e+09
2.93429e+09
2.91299e+09
2.8919e+09
2.871e+09
2.8503e+09
2.82981e+09
2.80951e+09
2.7894e+09
2.76951e+09
2.74983e+09
2.73034e+09
2.71105e+09
2.69198e+09
2.6731e+09
2.65445e+09
2.636e+09
2.61776e+09
2.59974e+09
2.58194e+09
2.56435e+09
2.54697e+09
2.52982e+09
2.5129e+09
2.4962e+09
2.47973e+09
2.46349e+09
2.44748e+09
2.4317e+09
2.41616e+09
2.40088e+09
2.38582e+09
2.37102e+09
2.35648e+09
2.34218e+09
2.32814e+09
2.31436e+09
2.30085e+09
2.28761e+09
2.27463e+09
2.26195e+09
2.24954e+09
2.23742e+09
2.2256e+09
2.21406e+09
2.20285e+09
2.19192e+09
2.18132e+09
2.17103e+09
2.16107e+09
2.15143e+09
2.14214e+09
2.13318e+09
2.12458e+09
2.11633e+09
2.10845e+09
2.10092e+09
2.09378e+09
2.08701e+09
2.08063e+09
2.07464e+09
2.06906e+09
2.06388e+09
2.05911e+09
2.05474e+09
2.05081e+09
2.04729e+09
2.04422e+09
2.04156e+09
2.03934e+09
2.03757e+09
2.03623e+09
2.03534e+09
2.03491e+09
3.58127e+09
3.5558e+09
3.52926e+09
3.50295e+09
3.47686e+09
3.45098e+09
3.42531e+09
3.39984e+09
3.37458e+09
3.34953e+09
3.32466e+09
3.30001e+09
3.27556e+09
3.25129e+09
3.22723e+09
3.20337e+09
3.1797e+09
3.15623e+09
3.13296e+09
3.10988e+09
3.087e+09
3.06431e+09
3.04182e+09
3.01952e+09
2.99742e+09
2.97552e+09
2.9538e+09
2.93228e+09
2.91096e+09
2.88984e+09
2.86892e+09
2.84819e+09
2.82767e+09
2.80734e+09
2.78721e+09
2.76727e+09
2.74755e+09
2.72803e+09
2.7087e+09
2.68959e+09
2.67068e+09
2.65198e+09
2.63349e+09
2.61521e+09
2.59714e+09
2.57928e+09
2.56165e+09
2.54422e+09
2.52702e+09
2.51004e+09
2.49328e+09
2.47675e+09
2.46045e+09
2.44438e+09
2.42853e+09
2.41294e+09
2.39757e+09
2.38245e+09
2.36758e+09
2.35295e+09
2.33858e+09
2.32446e+09
2.31061e+09
2.29701e+09
2.28369e+09
2.27063e+09
2.25786e+09
2.24536e+09
2.23316e+09
2.22123e+09
2.20962e+09
2.19829e+09
2.18728e+09
2.17658e+09
2.1662e+09
2.15614e+09
2.14641e+09
2.13702e+09
2.12797e+09
2.11926e+09
2.11092e+09
2.10294e+09
2.09533e+09
2.08809e+09
2.08124e+09
2.07477e+09
2.0687e+09
2.06304e+09
2.05778e+09
2.05294e+09
2.04851e+09
2.04451e+09
2.04095e+09
2.03781e+09
2.03512e+09
2.03287e+09
2.03107e+09
2.02971e+09
2.02881e+09
2.02835e+09
3.57924e+09
3.5539e+09
3.52739e+09
3.5011e+09
3.47501e+09
3.44913e+09
3.42346e+09
3.39799e+09
3.37273e+09
3.34766e+09
3.3228e+09
3.29814e+09
3.27367e+09
3.24941e+09
3.22534e+09
3.20147e+09
3.17779e+09
3.1543e+09
3.13102e+09
3.10793e+09
3.08502e+09
3.06232e+09
3.03981e+09
3.01749e+09
2.99537e+09
2.97344e+09
2.9517e+09
2.93016e+09
2.90882e+09
2.88767e+09
2.86672e+09
2.84597e+09
2.8254e+09
2.80504e+09
2.78488e+09
2.76492e+09
2.74515e+09
2.72559e+09
2.70623e+09
2.68707e+09
2.66811e+09
2.64937e+09
2.63083e+09
2.6125e+09
2.59438e+09
2.57648e+09
2.55878e+09
2.54131e+09
2.52405e+09
2.50701e+09
2.49019e+09
2.4736e+09
2.45723e+09
2.44109e+09
2.42519e+09
2.40951e+09
2.39407e+09
2.37888e+09
2.36393e+09
2.34923e+09
2.33477e+09
2.32057e+09
2.30663e+09
2.29295e+09
2.27954e+09
2.2664e+09
2.25352e+09
2.24094e+09
2.22863e+09
2.21662e+09
2.20489e+09
2.19348e+09
2.18236e+09
2.17155e+09
2.16107e+09
2.15091e+09
2.14108e+09
2.13158e+09
2.12242e+09
2.11362e+09
2.10517e+09
2.09709e+09
2.08938e+09
2.08204e+09
2.07509e+09
2.06853e+09
2.06238e+09
2.05662e+09
2.05129e+09
2.04636e+09
2.04187e+09
2.0378e+09
2.03417e+09
2.03099e+09
2.02825e+09
2.02596e+09
2.02412e+09
2.02275e+09
2.02183e+09
2.02136e+09
3.57723e+09
3.55193e+09
3.52544e+09
3.49915e+09
3.47307e+09
3.44718e+09
3.4215e+09
3.39604e+09
3.37077e+09
3.3457e+09
3.32084e+09
3.29617e+09
3.27169e+09
3.24742e+09
3.22334e+09
3.19945e+09
3.17577e+09
3.15227e+09
3.12897e+09
3.10586e+09
3.08294e+09
3.06022e+09
3.03769e+09
3.01535e+09
2.9932e+09
2.97126e+09
2.94949e+09
2.92793e+09
2.90656e+09
2.88538e+09
2.86439e+09
2.84361e+09
2.82301e+09
2.80262e+09
2.78242e+09
2.76242e+09
2.74262e+09
2.72301e+09
2.70361e+09
2.68441e+09
2.66541e+09
2.64663e+09
2.62803e+09
2.60965e+09
2.59148e+09
2.57352e+09
2.55577e+09
2.53824e+09
2.52092e+09
2.50382e+09
2.48693e+09
2.47027e+09
2.45384e+09
2.43763e+09
2.42165e+09
2.40591e+09
2.39039e+09
2.37512e+09
2.36009e+09
2.3453e+09
2.33076e+09
2.31647e+09
2.30244e+09
2.28868e+09
2.27516e+09
2.26192e+09
2.24896e+09
2.23626e+09
2.22386e+09
2.21174e+09
2.19991e+09
2.18839e+09
2.17716e+09
2.16625e+09
2.15565e+09
2.14537e+09
2.13543e+09
2.12583e+09
2.11656e+09
2.10765e+09
2.09908e+09
2.09089e+09
2.08307e+09
2.07563e+09
2.06857e+09
2.06192e+09
2.05566e+09
2.04982e+09
2.04438e+09
2.03938e+09
2.03481e+09
2.03067e+09
2.02698e+09
2.02374e+09
2.02095e+09
2.01861e+09
2.01674e+09
2.01533e+09
2.01439e+09
2.01392e+09
3.57538e+09
3.54993e+09
3.52341e+09
3.49711e+09
3.47101e+09
3.44513e+09
3.41945e+09
3.39398e+09
3.36871e+09
3.34364e+09
3.31877e+09
3.29409e+09
3.26961e+09
3.24533e+09
3.22124e+09
3.19734e+09
3.17364e+09
3.15013e+09
3.12681e+09
3.10369e+09
3.08076e+09
3.05801e+09
3.03546e+09
3.0131e+09
2.99093e+09
2.96896e+09
2.94717e+09
2.92558e+09
2.90418e+09
2.88297e+09
2.86196e+09
2.84113e+09
2.82051e+09
2.80008e+09
2.77984e+09
2.7598e+09
2.73995e+09
2.72032e+09
2.70087e+09
2.68162e+09
2.66258e+09
2.64373e+09
2.6251e+09
2.60666e+09
2.58844e+09
2.57042e+09
2.55261e+09
2.53501e+09
2.51763e+09
2.50046e+09
2.48352e+09
2.46678e+09
2.45028e+09
2.434e+09
2.41794e+09
2.40211e+09
2.38653e+09
2.37117e+09
2.35605e+09
2.34118e+09
2.32654e+09
2.31216e+09
2.29804e+09
2.28417e+09
2.27057e+09
2.25723e+09
2.24416e+09
2.23135e+09
2.21884e+09
2.20661e+09
2.19468e+09
2.18303e+09
2.17169e+09
2.16066e+09
2.14995e+09
2.13955e+09
2.12948e+09
2.11976e+09
2.11037e+09
2.10134e+09
2.09266e+09
2.08435e+09
2.07641e+09
2.06885e+09
2.06168e+09
2.05492e+09
2.04856e+09
2.04261e+09
2.03709e+09
2.03199e+09
2.02733e+09
2.02311e+09
2.01935e+09
2.01604e+09
2.01319e+09
2.01082e+09
2.0089e+09
2.00747e+09
2.00651e+09
2.00603e+09
3.57312e+09
3.54778e+09
3.52127e+09
3.49496e+09
3.46886e+09
3.44298e+09
3.4173e+09
3.39183e+09
3.36655e+09
3.34148e+09
3.31661e+09
3.29192e+09
3.26743e+09
3.24314e+09
3.21904e+09
3.19513e+09
3.17141e+09
3.14789e+09
3.12455e+09
3.10141e+09
3.07846e+09
3.05569e+09
3.03313e+09
3.01075e+09
2.98856e+09
2.96655e+09
2.94474e+09
2.92312e+09
2.90168e+09
2.88044e+09
2.8594e+09
2.83855e+09
2.81788e+09
2.79741e+09
2.77713e+09
2.75706e+09
2.73717e+09
2.71748e+09
2.69799e+09
2.6787e+09
2.65961e+09
2.64071e+09
2.62202e+09
2.60353e+09
2.58524e+09
2.56717e+09
2.5493e+09
2.53164e+09
2.51419e+09
2.49696e+09
2.47993e+09
2.46313e+09
2.44655e+09
2.4302e+09
2.41406e+09
2.39815e+09
2.38247e+09
2.36703e+09
2.35182e+09
2.33686e+09
2.32213e+09
2.30766e+09
2.29343e+09
2.27946e+09
2.26574e+09
2.2523e+09
2.23912e+09
2.2262e+09
2.21358e+09
2.20123e+09
2.18917e+09
2.17741e+09
2.16594e+09
2.15479e+09
2.14395e+09
2.13343e+09
2.12323e+09
2.11338e+09
2.10386e+09
2.0947e+09
2.08589e+09
2.07746e+09
2.06939e+09
2.06171e+09
2.05442e+09
2.04754e+09
2.04107e+09
2.03501e+09
2.02937e+09
2.02417e+09
2.01943e+09
2.01512e+09
2.01128e+09
2.0079e+09
2.00499e+09
2.00257e+09
2.00062e+09
1.99914e+09
1.99816e+09
1.99768e+09
3.57103e+09
3.54558e+09
3.51903e+09
3.49272e+09
3.46662e+09
3.44073e+09
3.41505e+09
3.38958e+09
3.36429e+09
3.33922e+09
3.31434e+09
3.28964e+09
3.26515e+09
3.24084e+09
3.21673e+09
3.19282e+09
3.16908e+09
3.14554e+09
3.1222e+09
3.09903e+09
3.07606e+09
3.05328e+09
3.03069e+09
3.00828e+09
2.98606e+09
2.96404e+09
2.94219e+09
2.92055e+09
2.89909e+09
2.87782e+09
2.85674e+09
2.83584e+09
2.81514e+09
2.79463e+09
2.77432e+09
2.75419e+09
2.73427e+09
2.71453e+09
2.695e+09
2.67565e+09
2.65651e+09
2.63755e+09
2.61881e+09
2.60026e+09
2.58192e+09
2.56377e+09
2.54584e+09
2.52812e+09
2.5106e+09
2.49329e+09
2.4762e+09
2.45932e+09
2.44266e+09
2.42622e+09
2.41001e+09
2.394e+09
2.37824e+09
2.3627e+09
2.3474e+09
2.33234e+09
2.31752e+09
2.30293e+09
2.28861e+09
2.27453e+09
2.2607e+09
2.24715e+09
2.23385e+09
2.22082e+09
2.20806e+09
2.1956e+09
2.18342e+09
2.17153e+09
2.15993e+09
2.14864e+09
2.13767e+09
2.12702e+09
2.11668e+09
2.10669e+09
2.09703e+09
2.08773e+09
2.07879e+09
2.07022e+09
2.06202e+09
2.05421e+09
2.04679e+09
2.03977e+09
2.03317e+09
2.027e+09
2.02125e+09
2.01594e+09
2.01109e+09
2.0067e+09
2.00278e+09
1.99932e+09
1.99634e+09
1.99385e+09
1.99185e+09
1.99036e+09
1.98935e+09
1.98885e+09
3.56871e+09
3.54324e+09
3.51668e+09
3.49036e+09
3.46427e+09
3.43838e+09
3.41271e+09
3.38723e+09
3.36195e+09
3.33686e+09
3.31197e+09
3.28727e+09
3.26277e+09
3.23846e+09
3.21433e+09
3.1904e+09
3.16666e+09
3.1431e+09
3.11974e+09
3.09656e+09
3.07356e+09
3.05076e+09
3.02814e+09
3.00572e+09
2.98348e+09
2.96141e+09
2.93955e+09
2.91786e+09
2.89638e+09
2.87507e+09
2.85396e+09
2.83303e+09
2.81229e+09
2.79174e+09
2.77138e+09
2.75121e+09
2.73124e+09
2.71145e+09
2.69187e+09
2.67247e+09
2.65327e+09
2.63427e+09
2.61546e+09
2.59686e+09
2.57845e+09
2.56025e+09
2.54225e+09
2.52445e+09
2.50686e+09
2.48948e+09
2.47231e+09
2.45536e+09
2.43861e+09
2.42209e+09
2.40578e+09
2.3897e+09
2.37384e+09
2.35821e+09
2.34281e+09
2.32764e+09
2.31272e+09
2.29802e+09
2.28359e+09
2.2694e+09
2.25545e+09
2.24177e+09
2.22835e+09
2.2152e+09
2.20232e+09
2.18972e+09
2.17741e+09
2.16538e+09
2.15365e+09
2.14222e+09
2.13111e+09
2.1203e+09
2.10984e+09
2.09969e+09
2.08989e+09
2.08044e+09
2.07135e+09
2.06263e+09
2.05429e+09
2.04633e+09
2.03877e+09
2.03162e+09
2.02489e+09
2.01858e+09
2.01271e+09
2.00729e+09
2.00233e+09
1.99783e+09
1.9938e+09
1.99027e+09
1.98722e+09
1.98467e+09
1.98262e+09
1.98108e+09
1.98005e+09
1.97954e+09
3.56622e+09
3.54075e+09
3.51421e+09
3.4879e+09
3.46181e+09
3.43594e+09
3.41026e+09
3.38478e+09
3.35949e+09
3.33441e+09
3.30951e+09
3.28481e+09
3.26029e+09
3.23597e+09
3.21184e+09
3.18788e+09
3.16413e+09
3.14056e+09
3.11717e+09
3.09397e+09
3.07097e+09
3.04814e+09
3.0255e+09
3.00304e+09
2.98078e+09
2.95869e+09
2.9368e+09
2.91508e+09
2.89356e+09
2.87222e+09
2.85106e+09
2.8301e+09
2.80933e+09
2.78873e+09
2.76833e+09
2.74812e+09
2.7281e+09
2.70827e+09
2.68862e+09
2.66917e+09
2.64992e+09
2.63086e+09
2.61199e+09
2.59332e+09
2.57485e+09
2.55659e+09
2.53851e+09
2.52064e+09
2.50298e+09
2.48552e+09
2.46827e+09
2.45123e+09
2.4344e+09
2.41779e+09
2.40139e+09
2.38522e+09
2.36926e+09
2.35353e+09
2.33803e+09
2.32276e+09
2.30772e+09
2.29292e+09
2.27837e+09
2.26406e+09
2.25e+09
2.23619e+09
2.22264e+09
2.20936e+09
2.19635e+09
2.18361e+09
2.17115e+09
2.15898e+09
2.14711e+09
2.13553e+09
2.12426e+09
2.11331e+09
2.10269e+09
2.09239e+09
2.08243e+09
2.07282e+09
2.06357e+09
2.0547e+09
2.0462e+09
2.03809e+09
2.03038e+09
2.02307e+09
2.0162e+09
2.00976e+09
2.00376e+09
1.9982e+09
1.99312e+09
1.98852e+09
1.98439e+09
1.98075e+09
1.97763e+09
1.97501e+09
1.97291e+09
1.97133e+09
1.97027e+09
1.96974e+09
3.56341e+09
3.5381e+09
3.51162e+09
3.48534e+09
3.45926e+09
3.43339e+09
3.40771e+09
3.38223e+09
3.35695e+09
3.33186e+09
3.30696e+09
3.28224e+09
3.25772e+09
3.23339e+09
3.20924e+09
3.18528e+09
3.16151e+09
3.13792e+09
3.11452e+09
3.0913e+09
3.06827e+09
3.04542e+09
3.02276e+09
3.00028e+09
2.97798e+09
2.95587e+09
2.93394e+09
2.9122e+09
2.89064e+09
2.86926e+09
2.84807e+09
2.82707e+09
2.80625e+09
2.78561e+09
2.76516e+09
2.7449e+09
2.72483e+09
2.70495e+09
2.68526e+09
2.66576e+09
2.64644e+09
2.62732e+09
2.60839e+09
2.58966e+09
2.57112e+09
2.55278e+09
2.53464e+09
2.5167e+09