/*--------------------------------*- C++ -*----------------------------------*\
| =========                 |                                                 |
| \\      /  F ield         | OpenFOAM: The Open Source CFD Toolbox           |
|  \\    /   O peration     | Version:  4.1                                   |
|   \\  /    A nd           | Web:      www.OpenFOAM.org                      |
|    \\/     M anipulation  |                                                 |
\*---------------------------------------------------------------------------*/
FoamFile
{
    version     2.0;
    format      ascii;
    class       volScalarField;
    location    "0.101";
    object      s;
}
// * * * * * * * * * * * * * * * * * * * * * * * * * * * * * * * * * * * * * //

dimensions      [0 0 0 0 0 0 0];

internalField   nonuniform List<scalar> 
43750
(
1
1
1
1
1
1
1
1
1
1
1
1
1
1
1
1
1
1
1
1
1
1
1
1
1
1
1
1
1
1
1
1
1
1
1
1
0.999999
0.999995
0.999978
0.999901
0.999561
0.998099
0.991974
0.967392
0.873857
0.630856
0.40524
0.243352
0.137165
0.0728393
0.0365403
0.0173524
0.0078133
0.00334033
0.0013574
0.000524811
0.000193198
6.77598e-05
2.26524e-05
7.22046e-06
2.19486e-06
6.36317e-07
1.75931e-07
4.63812e-08
1.1656e-08
2.79128e-09
6.3662e-10
1.38203e-10
2.85369e-11
5.59989e-12
1.04334e-12
1.84363e-13
3.08605e-14
4.88689e-15
7.31005e-16
1.03125e-16
1.36957e-17
1.709e-18
1.99944e-19
2.18815e-20
2.23433e-21
2.12285e-22
1.87103e-23
1.52474e-24
1.14466e-25
7.88449e-27
4.96064e-28
2.83644e-29
1.4655e-30
6.79661e-32
2.80736e-33
1.02314e-34
3.25222e-36
8.88498e-38
2.04626e-39
3.86801e-41
5.77053e-43
6.38071e-45
4.65693e-47
1.6856e-49
1
1
1
1
1
1
1
1
1
1
1
1
1
1
1
1
1
1
1
1
1
1
1
1
1
1
1
1
1
1
1
1
1
1
1
1
1
0.999998
0.999993
0.999973
0.999887
0.99954
0.998195
0.993195
0.975484
0.915863
0.735734
0.51099
0.332032
0.202227
0.115774
0.0624811
0.0318721
0.0154028
0.00706627
0.00308252
0.00128044
0.000507054
0.000191608
6.91477e-05
2.38463e-05
7.86233e-06
2.47928e-06
7.47891e-07
2.15844e-07
5.95983e-08
1.57424e-08
3.97707e-09
9.60658e-10
2.21769e-10
4.89025e-11
1.02939e-11
2.06683e-12
3.95486e-13
7.20455e-14
1.24804e-14
2.05316e-15
3.20289e-16
4.72999e-17
6.60028e-18
8.68418e-19
1.07481e-19
1.24797e-20
1.35532e-21
1.37201e-22
1.2896e-23
1.12047e-24
8.95281e-26
6.53926e-27
4.33559e-28
2.58745e-29
1.37587e-30
6.43747e-32
2.60841e-33
8.96462e-35
2.54022e-36
5.69618e-38
9.47439e-40
1.03878e-41
5.62462e-44
1
1
1
1
1
1
1
1
1
1
1
1
1
1
1
1
1
1
1
1
1
1
1
1
1
1
1
1
1
1
1
1
1
1
1
1
1
0.999998
0.999991
0.999966
0.999863
0.999466
0.997953
0.992298
0.971558
0.896995
0.686841
0.464645
0.294775
0.17555
0.0984167
0.0520796
0.0260781
0.0123834
0.00558701
0.00239871
0.00098135
0.000383001
0.000142729
5.08262e-05
1.7306e-05
5.63696e-06
1.75704e-06
5.24227e-07
1.49729e-07
4.09409e-08
1.07161e-08
2.68452e-09
6.43472e-10
1.47523e-10
3.2333e-11
6.77071e-12
1.35369e-12
2.58193e-13
4.69355e-14
8.12299e-15
1.33675e-15
2.08881e-16
3.09435e-17
4.33799e-18
5.74349e-19
7.16533e-20
8.40129e-21
9.23054e-22
9.47156e-23
9.04193e-24
7.99506e-25
6.51439e-26
4.86196e-27
3.30012e-28
2.01888e-29
1.10179e-30
5.29634e-32
2.20674e-33
7.80367e-35
2.27606e-36
5.25349e-38
8.99097e-40
1.01345e-41
5.63491e-44
1
1
1
1
1
1
1
1
1
1
1
1
1
1
1
1
1
1
1
1
1
1
1
1
1
1
1
1
1
1
1
1
1
1
1
1
1
0.999998
0.999991
0.999961
0.999836
0.999334
0.997362
0.989796
0.96154
0.859218
0.623846
0.413893
0.257123
0.150094
0.0825602
0.0428981
0.0211025
0.009847
0.00436607
0.00184215
0.000740529
0.000283922
0.000103914
3.63306e-05
1.21407e-05
3.87955e-06
1.18583e-06
3.46785e-07
9.70379e-08
2.59818e-08
6.65585e-09
1.63103e-09
3.8223e-10
8.56305e-11
1.83302e-11
3.74706e-12
7.30978e-13
1.35976e-13
2.40974e-14
4.0642e-15
6.5157e-16
9.91623e-17
1.43045e-17
1.95251e-18
2.5169e-19
3.05726e-20
3.49065e-21
3.73554e-22
3.73467e-23
3.47515e-24
2.99664e-25
2.38254e-26
1.73627e-27
1.1518e-28
6.90797e-30
3.70719e-31
1.75769e-32
7.24438e-34
2.54108e-35
7.3698e-37
1.69525e-38
2.89683e-40
3.26522e-42
1.81742e-44
1
1
1
1
1
1
1
1
1
1
1
1
1
1
1
1
1
1
1
1
1
1
1
1
1
1
1
1
1
1
1
1
1
1
1
1
1
0.999998
0.99999
0.999958
0.999823
0.999279
0.997145
0.988983
0.958583
0.848707
0.610265
0.403237
0.249374
0.144904
0.0793304
0.0410215
0.0200801
0.00932309
0.00411256
0.00172601
0.000690053
0.000263064
9.57066e-05
3.32517e-05
1.10385e-05
3.50267e-06
1.06268e-06
3.08315e-07
8.55451e-08
2.2698e-08
5.75853e-09
1.39656e-09
3.23656e-10
7.1647e-11
1.51415e-11
3.05295e-12
5.8685e-13
1.07453e-13
1.87229e-14
3.10107e-15
4.87632e-16
7.26961e-17
1.02586e-17
1.36791e-18
1.72014e-19
2.03536e-20
2.26049e-21
2.34971e-22
2.2786e-23
2.0538e-24
1.71328e-25
1.31618e-26
9.25756e-28
5.92068e-29
3.41474e-30
1.7583e-31
7.98278e-33
3.14518e-34
1.05323e-35
2.91354e-37
6.38929e-39
1.04081e-40
1.11883e-42
5.94392e-45
1
1
1
1
1
1
1
1
1
1
1
1
1
1
1
1
1
1
1
1
1
1
1
1
1
1
1
1
1
1
1
1
1
1
1
1
1
0.999998
0.99999
0.999958
0.999825
0.999294
0.997212
0.989227
0.959383
0.851182
0.612435
0.40426
0.249791
0.145048
0.0793714
0.0410294
0.0200789
0.0093203
0.00411034
0.00172462
0.000689289
0.000262681
9.55286e-05
3.31742e-05
1.10067e-05
3.49034e-06
1.05815e-06
3.06729e-07
8.50178e-08
2.2531e-08
5.70816e-09
1.38209e-09
3.19697e-10
7.06152e-11
1.48855e-11
2.99252e-12
5.73286e-13
1.04562e-13
1.8138e-14
2.98889e-15
4.67263e-16
6.91993e-17
9.692e-18
1.28142e-18
1.59601e-19
1.86827e-20
2.05006e-21
2.10251e-22
2.00866e-23
1.78083e-24
1.45887e-25
1.0989e-26
7.56579e-28
4.72828e-29
2.66023e-30
1.33394e-31
5.8878e-33
2.25166e-34
7.30783e-36
1.95667e-37
4.14839e-39
6.52728e-41
6.77287e-43
3.47218e-45
1
1
1
1
1
1
1
1
1
1
1
1
1
1
1
1
1
1
1
1
1
1
1
1
1
1
1
1
1
1
1
1
1
1
1
1
1
0.999998
0.99999
0.999959
0.999833
0.999333
0.997379
0.989909
0.961982
0.860476
0.623375
0.411363
0.254061
0.147412
0.0806026
0.041639
0.0203681
0.00945203
0.00416802
0.0017489
0.000699088
0.000266475
9.69361e-05
3.36744e-05
1.11768e-05
3.54566e-06
1.07536e-06
3.11848e-07
8.64726e-08
2.2926e-08
5.81049e-09
1.40738e-09
3.25654e-10
7.19516e-11
1.51708e-11
3.05037e-12
5.84422e-13
1.06592e-13
1.84878e-14
3.04575e-15
4.75958e-16
7.04459e-17
9.8588e-18
1.30214e-18
1.61972e-19
1.893e-20
2.07318e-21
2.12131e-22
2.02109e-23
1.78612e-24
1.45771e-25
1.09288e-26
7.48233e-28
4.64546e-29
2.59379e-30
1.28938e-31
5.63571e-33
2.13197e-34
6.83746e-36
1.80727e-37
3.77917e-39
5.8604e-41
5.98937e-43
3.0231e-45
1
1
1
1
1
1
1
1
1
1
1
1
1
1
1
1
1
1
1
1
1
1
1
1
1
1
1
1
1
1
1
1
1
1
1
1
1
0.999998
0.999992
0.999967
0.999862
0.999439
0.997749
0.991159
0.966164
0.874519
0.642332
0.424274
0.262367
0.152344
0.083328
0.0430536
0.0210627
0.00977648
0.00431265
0.00181056
0.000724252
0.000276312
0.000100619
3.4995e-05
1.16302e-05
3.69475e-06
1.12227e-06
3.2597e-07
9.05391e-08
2.40455e-08
6.10501e-09
1.48138e-09
3.43403e-10
7.60121e-11
1.60561e-11
3.23419e-12
6.20728e-13
1.13406e-13
1.97015e-14
3.2506e-15
5.08668e-16
7.53784e-17
1.05598e-17
1.39582e-18
1.73714e-19
2.03063e-20
2.22353e-21
2.27381e-22
2.1641e-23
1.90949e-24
1.55503e-25
1.16301e-26
7.94233e-28
4.91803e-29
2.7384e-30
1.35732e-31
5.91466e-33
2.23038e-34
7.12945e-36
1.87802e-37
3.91343e-39
6.04729e-41
6.15875e-43
3.09804e-45
1
1
1
1
1
1
1
1
1
1
1
1
1
1
1
1
1
1
1
1
1
1
1
1
1
1
1
1
1
1
1
1
1
1
1
1
1
0.999998
0.999992
0.999968
0.999866
0.999451
0.997785
0.991272
0.966532
0.875731
0.644276
0.425981
0.263787
0.153434
0.0840908
0.0435389
0.021345
0.00992774
0.00438802
0.00184573
0.000739715
0.000282741
0.000103155
3.59464e-05
1.19701e-05
3.81047e-06
1.15986e-06
3.37628e-07
9.39901e-08
2.50208e-08
6.36821e-09
1.54919e-09
3.60072e-10
7.99209e-11
1.69299e-11
3.4203e-12
6.58461e-13
1.20681e-13
2.10342e-14
3.48225e-15
5.46823e-16
8.13244e-17
1.1435e-17
1.51725e-18
1.89563e-19
2.22473e-20
2.44599e-21
2.51169e-22
2.40057e-23
2.12718e-24
1.73978e-25
1.3066e-26
8.95537e-28
5.56259e-29
3.10524e-30
1.54224e-31
6.73031e-33
2.54028e-34
8.1231e-36
2.13948e-37
4.45552e-39
6.87771e-41
6.99438e-43
3.51228e-45
1
1
1
1
1
1
1
1
1
1
1
1
1
1
1
1
1
1
1
1
1
1
1
1
1
1
1
1
1
1
1
1
1
1
1
1
1
0.999998
0.999992
0.999968
0.999867
0.999457
0.997823
0.99146
0.967339
0.878835
0.649325
0.429836
0.266573
0.155273
0.085212
0.0441772
0.0216868
0.010101
0.00447155
0.00188412
0.000756487
0.000289704
0.000105905
3.69797e-05
1.23402e-05
3.93685e-06
1.20104e-06
3.5043e-07
9.77895e-08
2.60972e-08
6.65933e-09
1.62432e-09
3.78573e-10
8.42658e-11
1.79026e-11
3.62772e-12
7.00562e-13
1.28808e-13
2.25246e-14
3.74161e-15
5.89598e-16
8.80002e-17
1.24193e-17
1.65409e-18
2.07463e-19
2.44453e-20
2.69869e-21
2.78285e-22
2.67125e-23
2.37754e-24
1.95339e-25
1.47389e-26
1.01521e-27
6.33891e-29
3.55797e-30
1.77715e-31
7.80106e-33
2.96225e-34
9.53111e-36
2.52615e-37
5.29432e-39
8.225e-41
8.41842e-43
4.25454e-45
1
1
1
1
1
1
1
1
1
1
1
1
1
1
1
1
1
1
1
1
1
1
1
1
1
1
1
1
1
1
1
1
1
1
1
1
1
0.999998
0.999992
0.999968
0.999871
0.999484
0.997962
0.992088
0.969901
0.88848
0.665584
0.441626
0.274475
0.160137
0.087995
0.0456729
0.0224468
0.0104674
0.00463911
0.00195686
0.000786617
0.000301634
0.000110425
3.8619e-05
1.29092e-05
4.12594e-06
1.26118e-06
3.68737e-07
1.03122e-07
2.75835e-08
7.05544e-09
1.72526e-09
4.03154e-10
8.9982e-11
1.91711e-11
3.89617e-12
7.54688e-13
1.39195e-13
2.44199e-14
4.06997e-15
6.43535e-16
9.6388e-17
1.3652e-17
1.82499e-18
2.29763e-19
2.71776e-20
3.01217e-21
3.11864e-22
3.00591e-23
2.68665e-24
2.21684e-25
1.68001e-26
1.16237e-27
7.29096e-29
4.11146e-30
2.0634e-31
9.10162e-33
3.4732e-34
1.12312e-35
2.99187e-37
6.30253e-39
9.8417e-41
1.01249e-42
5.14333e-45
1
1
1
1
1
1
1
1
1
1
1
1
1
1
1
1
1
1
1
1
1
1
1
1
1
1
1
1
1
1
1
1
1
1
1
1
1
0.999998
0.999992
0.999968
0.999871
0.999481
0.997963
0.992151
0.970361
0.890785
0.670918
0.446926
0.278942
0.163375
0.0900761
0.0468885
0.0231035
0.0107993
0.00479754
0.00202861
0.000817485
0.00031427
0.000115351
4.04505e-05
1.35589e-05
4.34593e-06
1.33232e-06
3.90711e-07
1.09606e-07
2.94112e-08
7.54754e-09
1.85178e-09
4.34206e-10
9.72545e-11
2.07956e-11
4.24208e-12
8.24841e-13
1.52734e-13
2.69032e-14
4.5025e-15
7.1497e-16
1.07557e-16
1.53027e-17
2.05511e-18
2.59963e-19
3.08994e-20
3.44175e-21
3.58162e-22
3.47022e-23
3.11827e-24
2.58709e-25
1.97157e-26
1.3719e-27
8.6554e-29
4.90992e-30
2.47905e-31
1.10023e-32
4.22469e-34
1.37475e-35
3.68544e-37
7.81309e-39
1.22784e-40
1.27119e-42
6.4982e-45
1
1
1
1
1
1
1
1
1
1
1
1
1
1
1
1
1
1
1
1
1
1
1
1
1
1
1
1
1
1
1
1
1
1
1
1
1
0.999998
0.999991
0.999965
0.999858
0.999435
0.997815
0.991724
0.969198
0.887695
0.667203
0.445711
0.278845
0.163807
0.0906381
0.0473826
0.0234474
0.0110057
0.00490871
0.00208356
0.000842721
0.00032513
0.000119756
4.21413e-05
1.41747e-05
4.55923e-06
1.40266e-06
4.12817e-07
1.16231e-07
3.13047e-08
8.06387e-09
1.98609e-09
4.67526e-10
1.05136e-10
2.25724e-11
4.62355e-12
9.02793e-13
1.67883e-13
2.97003e-14
4.99264e-15
7.96378e-16
1.20355e-16
1.72038e-17
2.32148e-18
2.95092e-19
3.52497e-20
3.94632e-21
4.12809e-22
4.02101e-23
3.63292e-24
3.03091e-25
2.32304e-26
1.62596e-27
1.032e-28
5.89032e-30
2.99286e-31
1.33687e-32
5.16731e-34
1.69285e-35
4.5695e-37
9.75518e-39
1.54394e-40
1.60995e-42
8.28956e-45
1
1
1
1
1
1
1
1
1
1
1
1
1
1
1
1
1
1
1
1
1
1
1
1
1
1
1
1
1
1
1
1
1
1
1
1
1
0.999998
0.999991
0.999963
0.999847
0.999386
0.997592
0.990797
0.965765
0.875935
0.651071
0.437509
0.27534
0.162585
0.0903398
0.047375
0.0235299
0.0110863
0.00496402
0.00211549
0.000859096
0.000332787
0.000123069
4.34796e-05
1.46829e-05
4.74139e-06
1.4645e-06
4.32753e-07
1.22343e-07
3.30885e-08
8.55992e-09
2.11755e-09
5.00732e-10
1.13129e-10
2.44048e-11
5.02345e-12
9.85819e-13
1.84266e-13
3.27702e-14
5.53819e-15
8.8821e-16
1.34976e-16
1.94017e-17
2.63292e-18
3.36599e-19
4.04407e-20
4.55393e-21
4.79176e-22
4.69517e-23
4.26738e-24
3.58166e-25
2.76177e-26
1.94481e-27
1.24194e-28
7.1322e-30
3.64625e-31
1.63883e-32
6.37394e-34
2.10118e-35
5.70714e-37
1.226e-38
1.95247e-40
2.04861e-42
1.06138e-44
1
1
1
1
1
1
1
1
1
1
1
1
1
1
1
1
1
1
1
1
1
1
1
1
1
1
1
1
1
1
1
1
1
1
1
1
1
0.999998
0.999991
0.999963
0.999849
0.999389
0.997575
0.990617
0.964687
0.870947
0.642688
0.431186
0.271393
0.16063
0.0896203
0.0472363
0.0235597
0.0111444
0.00500968
0.00214335
0.000873896
0.00033991
0.000126234
4.47919e-05
1.51935e-05
4.92863e-06
1.5294e-06
4.5406e-07
1.28978e-07
3.50517e-08
9.11198e-09
2.26523e-09
5.38331e-10
1.22239e-10
2.6506e-11
5.48459e-12
1.08207e-12
2.03363e-13
3.63686e-14
6.18147e-15
9.97183e-16
1.52443e-16
2.20466e-17
3.01054e-18
3.87332e-19
4.68389e-20
5.30935e-21
5.62421e-22
5.54846e-23
5.07781e-24
4.29166e-25
3.3326e-26
2.36346e-27
1.52007e-28
8.79204e-30
4.52705e-31
2.04927e-32
8.02697e-34
2.66477e-35
7.28838e-37
1.57641e-38
2.52733e-40
2.66905e-42
1.39153e-44
1
1
1
1
1
1
1
1
1
1
1
1
1
1
1
1
1
1
1
1
1
1
1
1
1
1
1
1
1
1
1
1
1
1
1
1
1
0.999998
0.999992
0.999965
0.999855
0.999406
0.997634
0.99081
0.96526
0.872566
0.644387
0.431992
0.271843
0.160946
0.0898634
0.0474188
0.0237034
0.011246
0.00507196
0.0021775
0.000890984
0.000347814
0.000129646
4.6175e-05
1.5723e-05
5.12062e-06
1.5955e-06
4.75703e-07
1.35726e-07
3.70559e-08
9.6793e-09
2.41828e-09
5.77677e-10
1.31877e-10
2.87542e-11
5.98379e-12
1.18751e-12
2.24531e-13
4.04042e-14
6.9113e-15
1.12223e-15
1.72713e-16
2.51503e-17
3.45863e-18
4.482e-19
5.46007e-20
6.23605e-21
6.65708e-22
6.61946e-23
6.10697e-24
5.20416e-25
4.07527e-26
2.91498e-27
1.89117e-28
1.10355e-29
5.73342e-31
2.61902e-32
1.03532e-33
3.46899e-35
9.57674e-37
2.09083e-38
3.38372e-40
3.60728e-42
1.89862e-44
1
1
1
1
1
1
1
1
1
1
1
1
1
1
1
1
1
1
1
1
1
1
1
1
1
1
1
1
1
1
1
1
1
1
1
1
1
0.999998
0.999993
0.99997
0.999871
0.999471
0.997883
0.991697
0.96824
0.882178
0.656569
0.438743
0.275603
0.163021
0.0910127
0.0480621
0.0240603
0.0114352
0.0051667
0.00222253
0.000911428
0.000356701
0.000133342
4.76423e-05
1.62782e-05
5.32075e-06
1.6642e-06
4.98162e-07
1.42722e-07
3.91329e-08
1.02673e-08
2.577e-09
6.18528e-10
1.41899e-10
3.10971e-11
6.50546e-12
1.29807e-12
2.46811e-13
4.46701e-14
7.68635e-15
1.25569e-15
1.94462e-16
2.8499e-17
3.94484e-18
5.14636e-19
6.31238e-20
7.25993e-21
7.8054e-22
7.81783e-23
7.26623e-24
6.23913e-25
4.92376e-26
3.55003e-27
2.32209e-28
1.36646e-29
7.16121e-31
3.30071e-32
1.31695e-33
4.45521e-35
1.24218e-36
2.73965e-38
4.47983e-40
4.82613e-42
2.56707e-44
1
1
1
1
1
1
1
1
1
1
1
1
1
1
1
1
1
1
1
1
1
1
1
1
1
1
1
1
1
1
1
1
1
1
1
1
1
0.999998
0.999993
0.99997
0.999877
0.999505
0.998057
0.992499
0.97158
0.894917
0.678902
0.454234
0.285321
0.16863
0.094075
0.0496727
0.0248773
0.0118373
0.00535884
0.00231102
0.000950392
0.000373066
0.000139895
5.01475e-05
1.71932e-05
5.64032e-06
1.77095e-06
5.32278e-07
1.5315e-07
4.21809e-08
1.1119e-08
2.80442e-09
6.76534e-10
1.56025e-10
3.43798e-11
7.23282e-12
1.45162e-12
2.77672e-13
5.05673e-14
8.75669e-15
1.43994e-15
2.24498e-16
3.31276e-17
4.61776e-18
6.06729e-19
7.49586e-20
8.684e-21
9.40476e-22
9.48824e-23
8.8819e-24
7.67948e-25
6.10097e-26
4.42671e-27
2.91274e-28
1.72344e-29
9.07694e-31
4.2021e-32
1.68292e-33
5.71087e-35
1.59766e-36
3.5367e-38
5.80642e-40
6.28222e-42
3.35703e-44
1
1
1
1
1
1
1
1
1
1
1
1
1
1
1
1
1
1
1
1
1
1
1
1
1
1
1
1
1
1
1
1
1
1
1
1
1
0.999998
0.999993
0.999973
0.999889
0.999562
0.998289
0.993409
0.975049
0.907701
0.704483
0.473991
0.299159
0.177465
0.0992697
0.0525142
0.0263357
0.0125454
0.00568606
0.00245543
0.00101142
0.000397777
0.000149486
5.37159e-05
1.84659e-05
6.07546e-06
1.91358e-06
5.77084e-07
1.66639e-07
4.60719e-08
1.21939e-08
3.08871e-09
7.48488e-10
1.73443e-10
3.84097e-11
8.12334e-12
1.6394e-12
3.15422e-13
5.77946e-14
1.00728e-14
1.66761e-15
2.61851e-16
3.89307e-17
5.46991e-18
7.24753e-19
9.03407e-20
1.05656e-20
1.15587e-21
1.17883e-22
1.11643e-23
9.77519e-25
7.87113e-26
5.79276e-27
3.86862e-28
2.32465e-29
1.24407e-30
5.85505e-32
2.38499e-33
8.23491e-35
2.34122e-36
5.26074e-38
8.75727e-40
9.5975e-42
5.19048e-44
1
1
1
1
1
1
1
1
1
1
1
1
1
1
1
1
1
1
1
1
1
1
1
1
1
1
1
1
1
1
1
1
1
1
1
1
1
0.999998
0.999994
0.999974
0.999897
0.999591
0.998396
0.993827
0.976712
0.91416
0.719775
0.487723
0.309799
0.184817
0.103883
0.0551833
0.0277754
0.0132758
0.00603656
0.00261519
0.00108076
0.000426489
0.000160844
5.80097e-05
2.00183e-05
6.61234e-06
2.09121e-06
6.33316e-07
1.83671e-07
5.10077e-08
1.35621e-08
3.45143e-09
8.404e-10
1.95693e-10
4.3553e-11
9.25771e-12
1.87793e-12
3.63185e-13
6.68936e-14
1.17197e-14
1.95042e-15
3.07853e-16
4.60051e-17
6.49641e-18
8.6496e-19
1.0832e-19
1.2724e-20
1.3976e-21
1.43044e-22
1.35877e-23
1.19246e-24
9.62649e-26
7.11052e-27
4.7702e-28
2.88152e-29
1.55116e-30
7.34724e-32
3.01349e-33
1.04814e-34
3.00464e-36
6.81261e-38
1.145e-39
1.26752e-41
6.92648e-44
1
1
1
1
1
1
1
1
1
1
1
1
1
1
1
1
1
1
1
1
1
1
1
1
1
1
1
1
1
1
1
1
1
1
1
1
1
0.999998
0.999994
0.999975
0.999901
0.999603
0.998439
0.993985
0.977305
0.916415
0.725751
0.494405
0.315918
0.189653
0.107266
0.0573218
0.029016
0.0139437
0.00637313
0.00277489
0.00115246
0.00045704
0.000173229
6.27953e-05
2.1783e-05
7.23384e-06
2.30042e-06
7.00653e-07
2.04399e-07
5.71099e-08
1.52802e-08
3.91395e-09
9.59422e-10
2.24959e-10
5.04246e-11
1.07976e-11
2.20696e-12
4.30175e-13
7.98748e-14
1.41111e-14
2.36869e-15
3.77208e-16
5.68895e-17
8.11011e-18
1.0905e-18
1.37969e-19
1.63799e-20
1.81923e-21
1.88368e-22
1.81117e-23
1.60987e-24
1.31536e-25
9.81701e-27
6.64786e-28
4.05145e-29
2.2e-30
1.05129e-31
4.35144e-33
1.52806e-34
4.42507e-36
1.01419e-37
1.72402e-39
1.9312e-41
1.06826e-43
1
1
1
1
1
1
1
1
1
1
1
1
1
1
1
1
1
1
1
1
1
1
1
1
1
1
1
1
1
1
1
1
1
1
1
1
1
0.999999
0.999995
0.999977
0.999904
0.999616
0.998485
0.994139
0.977815
0.918108
0.729658
0.49799
0.319021
0.192168
0.109129
0.0585801
0.0297962
0.014391
0.00661205
0.00289442
0.00120873
0.000482056
0.00018376
6.70035e-05
2.33818e-05
7.81229e-06
2.49992e-06
7.66294e-07
2.25018e-07
6.32948e-08
1.70523e-08
4.39893e-09
1.08618e-09
2.56593e-10
5.79585e-11
1.25088e-11
2.57742e-12
5.06545e-13
9.48516e-14
1.69018e-14
2.86213e-15
4.59877e-16
6.99903e-17
1.00701e-17
1.36677e-18
1.74567e-19
2.09243e-20
2.34655e-21
2.45354e-22
2.38248e-23
2.13884e-24
1.76582e-25
1.33252e-26
9.12517e-28
5.62281e-29
3.08561e-30
1.489e-31
6.21799e-33
2.20053e-34
6.41444e-36
1.47801e-37
2.52304e-39
2.83525e-41
1.57206e-43
1
1
1
1
1
1
1
1
1
1
1
1
1
1
1
1
1
1
1
1
1
1
1
1
1
1
1
1
1
1
1
1
1
1
1
1
1
0.999999
0.999995
0.999977
0.999908
0.999635
0.998568
0.994469
0.979012
0.922216
0.73898
0.505513
0.324506
0.195937
0.111581
0.060088
0.0306714
0.0148703
0.00685998
0.00301579
0.00126505
0.00050688
0.000194168
7.11599e-05
2.49644e-05
8.38724e-06
2.69936e-06
8.32383e-07
2.45945e-07
6.96287e-08
1.88846e-08
4.90555e-09
1.22003e-09
2.90371e-10
6.60971e-11
1.43798e-11
2.98754e-12
5.92174e-13
1.11864e-13
2.01142e-14
3.43779e-15
5.57624e-16
8.56892e-17
1.24502e-17
1.70661e-18
2.20154e-19
2.66526e-20
3.01871e-21
3.18742e-22
3.12508e-23
2.83217e-24
2.36026e-25
1.79793e-26
1.24309e-27
7.73588e-29
4.2894e-30
2.09281e-31
8.84369e-33
3.17045e-34
9.3742e-36
2.19405e-37
3.80894e-39
4.35734e-41
2.46164e-43
1
1
1
1
1
1
1
1
1
1
1
1
1
1
1
1
1
1
1
1
1
1
1
1
1
1
1
1
1
1
1
1
1
1
1
1
1
0.999999
0.999995
0.999978
0.99991
0.999639
0.998586
0.994585
0.979669
0.925277
0.747734
0.513836
0.331109
0.20066
0.114687
0.0619901
0.0317638
0.0154617
0.00716252
0.00316249
0.00133261
0.000536488
0.000206531
7.60844e-05
2.68372e-05
9.06778e-06
2.93577e-06
9.10919e-07
2.70898e-07
7.72129e-08
2.10895e-08
5.51862e-09
1.38302e-09
3.3179e-10
7.61529e-11
1.67109e-11
3.50316e-12
7.00906e-13
1.33702e-13
2.42869e-14
4.19535e-15
6.88112e-16
1.06977e-16
1.57334e-17
2.18426e-18
2.85539e-19
3.50511e-20
4.02758e-21
4.31655e-22
4.29724e-23
3.95491e-24
3.34634e-25
2.58655e-26
1.81299e-27
1.14243e-28
6.40484e-30
3.15418e-31
1.34271e-32
4.8383e-34
1.43433e-35
3.36552e-37
5.86423e-39
6.74072e-41
3.83049e-43
1
1
1
1
1
1
1
1
1
1
1
1
1
1
1
1
1
1
1
1
1
1
1
1
1
1
1
1
1
1
1
1
1
1
1
1
1
0.999999
0.999995
0.999978
0.999911
0.999646
0.998619
0.994718
0.980196
0.927299
0.753366
0.519983
0.336632
0.204994
0.11773
0.0639366
0.0329147
0.0160966
0.00749154
0.00332338
0.00140711
0.000569241
0.00022023
8.15436e-05
2.89129e-05
9.82153e-06
3.19734e-06
9.97725e-07
2.98455e-07
8.55832e-08
2.35222e-08
6.19507e-09
1.56293e-09
3.77541e-10
8.72718e-11
1.92918e-11
4.07484e-12
8.21645e-13
1.57992e-13
2.89359e-14
5.04077e-15
8.3397e-16
1.30813e-16
1.94163e-17
2.72121e-18
3.59249e-19
4.45562e-20
5.17608e-21
5.61344e-22
5.66206e-23
5.28961e-24
4.55532e-25
3.59367e-26
2.57685e-27
1.66445e-28
9.582e-30
4.85299e-31
2.12748e-32
7.9039e-34
2.41818e-35
5.83838e-37
1.04214e-38
1.22247e-40
7.06547e-43
1
1
1
1
1
1
1
1
1
1
1
1
1
1
1
1
1
1
1
1
1
1
1
1
1
1
1
1
1
1
1
1
1
1
1
1
1
0.999999
0.999995
0.99998
0.999917
0.999672
0.998719
0.995087
0.981496
0.931797
0.765037
0.530101
0.344236
0.210341
0.121259
0.0661252
0.0341914
0.0167988
0.0078566
0.0035032
0.00149123
0.000606658
0.000236084
8.79486e-05
3.13827e-05
1.07311e-05
3.51744e-06
1.10542e-06
3.33105e-07
9.6245e-08
2.666e-08
7.07821e-09
1.8006e-09
4.38679e-10
1.02297e-10
2.28177e-11
4.86432e-12
9.90175e-13
1.92254e-13
3.55619e-14
6.25808e-15
1.04609e-15
1.65807e-16
2.48707e-17
3.52251e-18
4.69892e-19
5.88677e-20
6.90335e-21
7.54909e-22
7.66415e-23
7.18667e-24
6.18721e-25
4.87525e-26
3.50136e-27
2.27055e-28
1.31494e-29
6.71156e-31
2.96976e-32
1.11519e-33
3.45298e-35
8.45662e-37
1.53454e-38
1.83261e-40
1.07948e-42
1
1
1
1
1
1
1
1
1
1
1
1
1
1
1
1
1
1
1
1
1
1
1
1
1
1
1
1
1
1
1
1
1
1
1
1
1
0.999999
0.999995
0.99998
0.999922
0.999692
0.9988
0.995413
0.982774
0.936599
0.778595
0.542393
0.353542
0.216819
0.12547
0.0686975
0.0356738
0.0176064
0.0082734
0.00370732
0.00158622
0.000648754
0.000253866
9.51182e-05
3.41445e-05
1.17484e-05
3.87597e-06
1.22637e-06
3.72175e-07
1.0833e-07
3.02392e-08
8.09314e-09
2.07605e-09
5.10196e-10
1.20052e-10
2.70297e-11
5.81834e-12
1.1963e-12
2.3469e-13
4.38771e-14
7.80675e-15
1.31984e-15
2.1166e-16
3.2136e-17
4.60943e-18
6.23125e-19
7.9184e-20
9.43138e-21
1.04954e-21
1.08736e-22
1.04461e-23
9.26011e-25
7.51151e-26
5.52218e-27
3.64905e-28
2.1461e-29
1.10962e-30
4.96471e-32
1.88266e-33
5.8811e-35
1.45243e-36
2.65776e-38
3.20146e-40
1.90261e-42
1
1
1
1
1
1
1
1
1
1
1
1
1
1
1
1
1
1
1
1
1
1
1
1
1
1
1
1
1
1
1
1
1
1
1
1
1
0.999999
0.999996
0.999981
0.999924
0.9997
0.998832
0.995553
0.9834
0.939271
0.787439
0.552369
0.362184
0.223325
0.129879
0.0714464
0.0372707
0.0184786
0.00872382
0.00392805
0.00168915
0.000694492
0.000273261
0.000102976
3.71881e-05
1.28762e-05
4.27603e-06
1.36226e-06
4.16384e-07
1.2211e-07
3.43544e-08
9.27042e-09
2.39864e-09
5.94831e-10
1.41303e-10
3.21329e-11
6.98956e-12
1.45294e-12
2.88324e-13
5.4553e-14
9.82771e-15
1.68302e-15
2.73496e-16
4.2087e-17
6.11899e-18
8.38332e-19
1.07911e-19
1.30065e-20
1.4622e-21
1.52644e-22
1.47231e-23
1.30507e-24
1.05823e-25
7.81686e-27
5.21951e-28
3.11265e-29
1.63522e-30
7.44636e-32
2.87714e-33
9.16369e-35
2.3079e-36
4.30559e-38
5.2846e-40
3.19784e-42
1
1
1
1
1
1
1
1
1
1
1
1
1
1
1
1
1
1
1
1
1
1
1
1
1
1
1
1
1
1
1
1
1
1
1
1
1
0.999999
0.999996
0.999981
0.999925
0.9997
0.998837
0.99558
0.983543
0.940008
0.790503
0.557592
0.367909
0.228352
0.133684
0.0740178
0.0388582
0.0193863
0.00920911
0.00417217
0.00180522
0.000746824
0.000295698
0.000112139
4.07587e-05
1.42053e-05
4.749e-06
1.52328e-06
4.68853e-07
1.38477e-07
3.92436e-08
1.06689e-08
2.78164e-09
6.9525e-10
1.665e-10
3.81816e-11
8.37792e-12
1.75747e-12
3.52105e-13
6.72966e-14
1.22541e-14
2.12266e-15
3.49175e-16
5.44403e-17
8.02678e-18
1.11638e-18
1.46054e-19
1.79176e-20
2.05386e-21
2.19083e-22
2.16437e-23
1.96916e-24
1.63827e-25
1.23562e-26
8.37335e-28
5.04987e-29
2.67657e-30
1.22769e-31
4.78472e-33
1.53921e-34
3.92117e-36
7.411e-38
9.22953e-40
5.67581e-42
1
1
1
1
1
1
1
1
1
1
1
1
1
1
1
1
1
1
1
1
1
1
1
1
1
1
1
1
1
1
1
1
1
1
1
1
1
0.999999
0.999996
0.999982
0.999925
0.999705
0.998854
0.995644
0.98378
0.940842
0.793063
0.561296
0.372079
0.232279
0.136863
0.0762956
0.0403334
0.0202641
0.00969454
0.00442373
0.00192808
0.000803614
0.000320616
0.000122542
4.48981e-05
1.5777e-05
5.31908e-06
1.72095e-06
5.34406e-07
1.59275e-07
4.55567e-08
1.25024e-08
3.29102e-09
8.30571e-10
2.00863e-10
4.65172e-11
1.03083e-11
2.18396e-12
4.4193e-13
8.53171e-14
1.56953e-14
2.74771e-15
4.57087e-16
7.21337e-17
1.07793e-17
1.52141e-18
2.0223e-19
2.52336e-20
2.94486e-21
3.2013e-22
3.22657e-23
2.9989e-24
2.55383e-25
1.97744e-26
1.37982e-27
8.58492e-29
4.70085e-30
2.22723e-31
8.92621e-33
2.94127e-34
7.64607e-36
1.46941e-37
1.85457e-39
1.15232e-41
1
1
1
1
1
1
1
1
1
1
1
1
1
1
1
1
1
1
1
1
1
1
1
1
1
1
1
1
1
1
1
1
1
1
1
1
1
0.999999
0.999996
0.999982
0.999928
0.999716
0.998895
0.995791
0.98428
0.942522
0.797926
0.566037
0.376114
0.235564
0.139389
0.0781013
0.0415273
0.0209954
0.0101116
0.00464631
0.00203983
0.000856611
0.000344433
0.000132713
4.90336e-05
1.73807e-05
5.913e-06
1.93118e-06
6.05575e-07
1.8233e-07
5.27047e-08
1.46236e-08
3.89339e-09
9.94206e-10
2.4336e-10
5.70604e-11
1.28043e-11
2.74703e-12
5.62766e-13
1.09932e-13
2.04423e-14
3.61219e-15
6.05341e-16
9.59996e-17
1.43796e-17
2.03739e-18
2.72173e-19
3.41703e-20
4.01692e-21
4.40316e-22
4.4794e-23
4.20648e-24
3.62355e-25
2.84214e-26
2.01204e-27
1.27204e-28
7.08883e-30
3.42518e-31
1.40423e-32
4.74444e-34
1.26708e-35
2.50557e-37
3.25805e-39
2.0876e-41
1
1
1
1
1
1
1
1
1
1
1
1
1
1
1
1
1
1
1
1
1
1
1
1
1
1
1
1
1
1
1
1
1
1
1
1
1
0.999999
0.999996
0.999984
0.999936
0.999746
0.999003
0.996159
0.985477
0.946299
0.808362
0.575136
0.382684
0.240103
0.142451
0.0800907
0.0427598
0.02172
0.0105148
0.00485883
0.00214598
0.000906964
0.00036715
0.000142475
5.30353e-05
1.89476e-05
6.49952e-06
2.14126e-06
6.77633e-07
2.0601e-07
6.01631e-08
1.68758e-08
4.54551e-09
1.17527e-09
2.91566e-10
6.93646e-11
1.58144e-11
3.45264e-12
7.2117e-13
1.43972e-13
2.74362e-14
4.98152e-15
8.59883e-16
1.40787e-16
2.18019e-17
3.17728e-18
4.34727e-19
5.56767e-20
6.65125e-21
7.38133e-22
7.57415e-23
7.14787e-24
6.16638e-25
4.82971e-26
3.4116e-27
2.16279e-28
1.21338e-29
5.92309e-31
2.46085e-32
8.44454e-34
2.29344e-35
4.61545e-37
6.11275e-39
3.99372e-41
1
1
1
1
1
1
1
1
1
1
1
1
1
1
1
1
1
1
1
1
1
1
1
1
1
1
1
1
1
1
1
1
1
1
1
1
1
1
0.999997
0.999986
0.999945
0.999782
0.999147
0.996708
0.987478
0.953328
0.830535
0.595022
0.396771
0.249401
0.148277
0.0835853
0.0447711
0.0228293
0.0111002
0.00515413
0.00228836
0.00097257
0.000396053
0.000154654
5.7946e-05
2.08431e-05
7.20012e-06
2.38932e-06
7.61779e-07
2.33356e-07
6.86768e-08
1.94146e-08
5.27036e-09
1.37333e-09
3.43327e-10
8.22927e-11
1.88976e-11
4.15396e-12
8.73147e-13
1.75297e-13
3.35768e-14
6.134e-15
1.06794e-15
1.76868e-16
2.7803e-17
4.13785e-18
5.81272e-19
7.67797e-20
9.49768e-21
1.09532e-21
1.17167e-22
1.15579e-23
1.04425e-24
8.57274e-26
6.33014e-27
4.14804e-28
2.38217e-29
1.17909e-30
4.92205e-32
1.68509e-33
4.55432e-35
9.19607e-37
1.23124e-38
8.1646e-41
1
1
1
1
1
1
1
1
1
1
1
1
1
1
1
1
1
1
1
1
1
1
1
1
1
1
1
1
1
1
1
1
1
1
1
1
1
1
0.999997
0.999987
0.999949
0.999799
0.999225
0.997048
0.988909
0.958976
0.851437
0.617688
0.413685
0.260764
0.155407
0.0878284
0.0471836
0.0241442
0.0117883
0.00549984
0.00245503
0.00104966
0.000430253
0.000169208
6.38879e-05
2.31705e-05
8.07492e-06
2.70485e-06
8.71006e-07
2.69644e-07
8.02468e-08
2.29537e-08
6.30878e-09
1.66544e-09
4.2206e-10
1.02612e-10
2.39141e-11
5.33731e-12
1.13949e-12
2.32405e-13
4.52101e-14
8.37092e-15
1.47214e-15
2.45429e-16
3.87058e-17
5.75985e-18
8.09849e-19
1.07369e-19
1.33688e-20
1.55617e-21
1.68477e-22
1.68664e-23
1.55082e-24
1.29932e-25
9.82624e-27
6.62974e-28
3.93601e-29
2.0219e-30
8.7983e-32
3.15255e-33
8.92902e-35
1.8705e-36
2.5771e-38
1.75197e-40
1
1
1
1
1
1
1
1
1
1
1
1
1
1
1
1
1
1
1
1
1
1
1
1
1
1
1
1
1
1
1
1
1
1
1
1
1
1
0.999997
0.999987
0.99995
0.999805
0.99925
0.997172
0.989529
0.961847
0.863336
0.63581
0.429674
0.273033
0.163798
0.09308
0.0502425
0.0258215
0.0126604
0.00593193
0.00265971
0.00114253
0.000470681
0.000186109
7.06772e-05
2.57926e-05
9.0489e-06
3.05288e-06
9.90657e-07
3.09223e-07
9.28428e-08
2.68104e-08
7.44458e-09
1.98712e-09
5.09646e-10
1.25529e-10
2.96737e-11
6.72705e-12
1.46123e-12
3.03815e-13
6.03921e-14
1.14601e-14
2.07261e-15
3.56553e-16
5.81954e-17
8.98397e-18
1.30421e-18
1.77414e-19
2.25417e-20
2.6648e-21
2.91761e-22
2.9425e-23
2.7162e-24
2.27771e-25
1.72629e-26
1.17549e-27
7.08728e-29
3.7189e-30
1.66191e-31
6.14064e-33
1.79691e-34
3.89245e-36
5.53932e-38
3.88233e-40
1
1
1
1
1
1
1
1
1
1
1
1
1
1
1
1
1
1
1
1
1
1
1
1
1
1
1
1
1
1
1
1
1
1
1
1
1
1
0.999997
0.999988
0.999952
0.999812
0.999277
0.997272
0.989886
0.963169
0.868312
0.644855
0.439218
0.281538
0.170378
0.097632
0.0531184
0.0275055
0.0135837
0.00640935
0.00289371
0.00125166
0.000519233
0.000206757
7.90832e-05
2.90723e-05
1.02762e-05
3.49368e-06
1.14264e-06
3.59541e-07
1.08841e-07
3.16945e-08
8.87597e-09
2.38967e-09
6.18232e-10
1.53604e-10
3.66258e-11
8.37422e-12
1.83425e-12
3.84462e-13
7.7019e-14
1.47262e-14
2.68335e-15
4.65338e-16
7.67311e-17
1.20165e-17
1.78291e-18
2.49581e-19
3.28184e-20
4.03431e-21
4.61146e-22
4.87158e-23
4.72271e-24
4.1667e-25
3.30656e-26
2.32935e-27
1.43882e-28
7.66954e-30
3.45432e-31
1.28358e-32
3.80882e-34
8.42235e-36
1.22918e-37
8.85697e-40
1
1
1
1
1
1
1
1
1
1
1
1
1
1
1
1
1
1
1
1
1
1
1
1
1
1
1
1
1
1
1
1
1
1
1
1
1
1
0.999997
0.999989
0.999957
0.999831
0.999346
0.997506
0.990651
0.965623
0.876251
0.656456
0.448994
0.289484
0.176369
0.101809
0.0558193
0.0291336
0.014504
0.00689965
0.00314097
0.00137009
0.000573266
0.000230287
8.88824e-05
3.29802e-05
1.17702e-05
4.04168e-06
1.33562e-06
4.24816e-07
1.30053e-07
3.83177e-08
1.08628e-08
2.9622e-09
7.76642e-10
1.95666e-10
4.73354e-11
1.09865e-11
2.44393e-12
5.20394e-13
1.05911e-13
2.05652e-14
3.80145e-15
6.67328e-16
1.10941e-16
1.74143e-17
2.5866e-18
3.63337e-19
4.8086e-20
5.9686e-21
6.91228e-22
7.42483e-23
7.34641e-24
6.6417e-25
5.43337e-26
3.97374e-27
2.56209e-28
1.43157e-29
6.78208e-31
2.64543e-32
8.1482e-34
1.86175e-35
2.80346e-37
2.08474e-39
1
1
1
1
1
1
1
1
1
1
1
1
1
1
1
1
1
1
1
1
1
1
1
1
1
1
1
1
1
1
1
1
1
1
1
1
1
1
0.999997
0.999989
0.999959
0.999841
0.999387
0.997672
0.991288
0.967976
0.884641
0.66974
0.459614
0.297638
0.182242
0.105784
0.0583513
0.0306544
0.0153673
0.00736392
0.00337805
0.00148532
0.00062665
0.000253906
9.88747e-05
3.70271e-05
1.33409e-05
4.62628e-06
1.54445e-06
4.96441e-07
1.5365e-07
4.57871e-08
1.3135e-08
3.62644e-09
9.63249e-10
2.46039e-10
6.03996e-11
1.42409e-11
3.22242e-12
6.99184e-13
1.45332e-13
2.89121e-14
5.49822e-15
9.969e-16
1.71872e-16
2.80946e-17
4.32814e-18
6.26104e-19