/*--------------------------------*- C++ -*----------------------------------*\
| =========                 |                                                 |
| \\      /  F ield         | OpenFOAM: The Open Source CFD Toolbox           |
|  \\    /   O peration     | Version:  4.1                                   |
|   \\  /    A nd           | Web:      www.OpenFOAM.org                      |
|    \\/     M anipulation  |                                                 |
\*---------------------------------------------------------------------------*/
FoamFile
{
    version     2.0;
    format      ascii;
    class       volScalarField;
    location    "0.101";
    object      s_0;
}
// * * * * * * * * * * * * * * * * * * * * * * * * * * * * * * * * * * * * * //

dimensions      [0 0 0 0 0 0 0];

internalField   nonuniform List<scalar> 
43750
(
1
1
1
1
1
1
1
1
1
1
1
1
1
1
1
1
1
1
1
1
1
1
1
1
1
1
1
1
1
1
1
1
1
1
1
1
0.999999
0.999995
0.999978
0.9999
0.999559
0.998088
0.991929
0.967217
0.87321
0.629834
0.404497
0.242846
0.136849
0.0726555
0.0364405
0.0173016
0.00778892
0.00332929
0.00135268
0.000522891
0.000192458
6.74894e-05
2.25584e-05
7.18936e-06
2.18507e-06
6.33385e-07
1.75095e-07
4.61541e-08
1.15973e-08
2.77685e-09
6.33243e-10
1.37452e-10
2.83781e-11
5.56803e-12
1.03727e-12
1.83269e-13
3.06738e-14
4.85676e-15
7.26417e-16
1.02466e-16
1.36068e-17
1.69773e-18
1.98606e-19
2.17329e-20
2.21895e-21
2.10805e-22
1.85783e-23
1.51385e-24
1.1364e-25
7.827e-27
4.92412e-28
2.81538e-29
1.45453e-30
6.74533e-32
2.78603e-33
1.01531e-34
3.22719e-36
8.81623e-38
2.03034e-39
3.83778e-41
5.7252e-43
6.33036e-45
4.62001e-47
1.67217e-49
1
1
1
1
1
1
1
1
1
1
1
1
1
1
1
1
1
1
1
1
1
1
1
1
1
1
1
1
1
1
1
1
1
1
1
1
1
0.999998
0.999993
0.999972
0.999886
0.999538
0.998185
0.993158
0.975357
0.915437
0.734746
0.510139
0.331388
0.20178
0.115489
0.0623123
0.0317786
0.0153543
0.00704249
0.00307153
0.00127562
0.000505048
0.000190815
6.8849e-05
2.37391e-05
7.82563e-06
2.46729e-06
7.4415e-07
2.1473e-07
5.92811e-08
1.56562e-08
3.95467e-09
9.55102e-10
2.20453e-10
4.86052e-11
1.02298e-11
2.05366e-12
3.9291e-13
7.15661e-14
1.23956e-14
2.03893e-15
3.18025e-16
4.69593e-17
6.55186e-18
8.61933e-19
1.06664e-19
1.23833e-20
1.34467e-21
1.36105e-22
1.27914e-23
1.11124e-24
8.87792e-26
6.48375e-27
4.29825e-28
2.56485e-29
1.36369e-30
6.37969e-32
2.58469e-33
8.88202e-35
2.51652e-36
5.64236e-38
9.38376e-40
1.02872e-41
5.56951e-44
1
1
1
1
1
1
1
1
1
1
1
1
1
1
1
1
1
1
1
1
1
1
1
1
1
1
1
1
1
1
1
1
1
1
1
1
1
0.999998
0.999991
0.999966
0.999862
0.999463
0.997942
0.992256
0.971404
0.896443
0.685794
0.46382
0.294172
0.175146
0.0981654
0.0519343
0.0259995
0.0123434
0.00556779
0.00238997
0.000977584
0.000381459
0.000142128
5.06031e-05
1.7227e-05
5.61025e-06
1.74843e-06
5.21569e-07
1.48946e-07
4.07201e-08
1.06566e-08
2.6692e-09
6.39702e-10
1.46636e-10
3.21338e-11
6.728e-12
1.34495e-12
2.56489e-13
4.66189e-14
8.06704e-15
1.32736e-15
2.07383e-16
3.07173e-17
4.30566e-18
5.69989e-19
7.10995e-20
8.3352e-21
9.15667e-22
9.39446e-23
8.96709e-24
7.9278e-25
6.4587e-26
4.81974e-27
3.27102e-28
2.00081e-29
1.09179e-30
5.24756e-32
2.18613e-33
7.72977e-35
2.25421e-36
5.20238e-38
8.90234e-40
1.00333e-41
5.57791e-44
1
1
1
1
1
1
1
1
1
1
1
1
1
1
1
1
1
1
1
1
1
1
1
1
1
1
1
1
1
1
1
1
1
1
1
1
1
0.999998
0.999991
0.99996
0.999835
0.999331
0.997347
0.989739
0.961331
0.85847
0.622854
0.413135
0.256584
0.149742
0.0823466
0.0427773
0.0210384
0.00981503
0.004351
0.00183543
0.000737686
0.000282779
0.000103477
3.61714e-05
1.20854e-05
3.86123e-06
1.18003e-06
3.45033e-07
9.65323e-08
2.58424e-08
6.61908e-09
1.62177e-09
3.80001e-10
8.51185e-11
1.82179e-11
3.72355e-12
7.26285e-13
1.35083e-13
2.39357e-14
4.03635e-15
6.47013e-16
9.84548e-17
1.42004e-17
1.93803e-18
2.49788e-19
3.03372e-20
3.4633e-21
3.70574e-22
3.70436e-23
3.44646e-24
2.97148e-25
2.36221e-26
1.7212e-27
1.14164e-28
6.84596e-30
3.67335e-31
1.74137e-32
7.17601e-34
2.51671e-35
7.298e-37
1.67848e-38
2.86774e-40
3.23194e-42
1.79863e-44
1
1
1
1
1
1
1
1
1
1
1
1
1
1
1
1
1
1
1
1
1
1
1
1
1
1
1
1
1
1
1
1
1
1
1
1
1
0.999998
0.99999
0.999957
0.999821
0.999275
0.997129
0.988922
0.95836
0.847909
0.609305
0.402496
0.248851
0.144563
0.0791252
0.0409061
0.0200192
0.00929288
0.00409841
0.00171974
0.000687413
0.000262009
9.53059e-05
3.31067e-05
1.09885e-05
3.48622e-06
1.05752e-06
3.06767e-07
8.51022e-08
2.2577e-08
5.72694e-09
1.38869e-09
3.21784e-10
7.12221e-11
1.50495e-11
3.03396e-12
5.83116e-13
1.06755e-13
1.85986e-14
3.08004e-15
4.84258e-16
7.21831e-17
1.01848e-17
1.35788e-18
1.70729e-19
2.01989e-20
2.24301e-21
2.33121e-22
2.26036e-23
2.03708e-24
1.6991e-25
1.30511e-26
9.17842e-28
5.86926e-29
3.38462e-30
1.74254e-31
7.91013e-33
3.11612e-34
1.04334e-35
2.8858e-37
6.32754e-39
1.0306e-40
1.1077e-42
5.88393e-45
1
1
1
1
1
1
1
1
1
1
1
1
1
1
1
1
1
1
1
1
1
1
1
1
1
1
1
1
1
1
1
1
1
1
1
1
1
0.999998
0.99999
0.999958
0.999824
0.99929
0.997196
0.989168
0.959164
0.850397
0.611466
0.403516
0.249266
0.144707
0.0791662
0.040914
0.0200181
0.00929013
0.00409621
0.00171836
0.000686656
0.00026163
9.51293e-05
3.30298e-05
1.09569e-05
3.47398e-06
1.05301e-06
3.05192e-07
8.45785e-08
2.24111e-08
5.67692e-09
1.37432e-09
3.17853e-10
7.01976e-11
1.47953e-11
2.97397e-12
5.69652e-13
1.03885e-13
1.8018e-14
2.96871e-15
4.64045e-16
6.87135e-17
9.62268e-18
1.27209e-18
1.58418e-19
1.85417e-20
2.03432e-21
2.0861e-22
1.99273e-23
1.76647e-24
1.44692e-25
1.08976e-26
7.50189e-28
4.68774e-29
2.63708e-30
1.32216e-31
5.83505e-33
2.23119e-34
7.24048e-36
1.93838e-37
4.10908e-39
6.46459e-41
6.70694e-43
3.43793e-45
1
1
1
1
1
1
1
1
1
1
1
1
1
1
1
1
1
1
1
1
1
1
1
1
1
1
1
1
1
1
1
1
1
1
1
1
1
0.999998
0.99999
0.999959
0.999832
0.999329
0.997365
0.989854
0.961777
0.859742
0.622378
0.410608
0.253527
0.147066
0.0803944
0.0415221
0.0203065
0.00942147
0.00415371
0.00174256
0.000696422
0.00026541
9.65315e-05
3.3528e-05
1.11263e-05
3.52906e-06
1.07015e-06
3.10287e-07
8.60264e-08
2.28042e-08
5.77874e-09
1.39948e-09
3.23778e-10
7.15267e-11
1.5079e-11
3.03149e-12
5.80723e-13
1.05902e-13
1.83657e-14
3.02523e-15
4.72687e-16
6.99523e-17
9.78841e-18
1.29267e-18
1.60773e-19
1.87874e-20
2.0573e-21
2.10479e-22
2.0051e-23
1.77177e-24
1.44581e-25
1.08383e-26
7.41941e-28
4.60583e-29
2.57135e-30
1.27806e-31
5.58558e-33
2.11275e-34
6.775e-36
1.79054e-37
3.74375e-39
5.80477e-41
5.93181e-43
2.99369e-45
1
1
1
1
1
1
1
1
1
1
1
1
1
1
1
1
1
1
1
1
1
1
1
1
1
1
1
1
1
1
1
1
1
1
1
1
1
0.999998
0.999992
0.999967
0.999862
0.999436
0.997737
0.991109
0.965979
0.87385
0.641296
0.423493
0.261816
0.151986
0.0831123
0.0429324
0.0209989
0.00974484
0.00429783
0.00180399
0.000721489
0.000275207
0.000100199
3.48429e-05
1.15777e-05
3.67746e-06
1.11684e-06
3.24341e-07
9.00725e-08
2.39179e-08
6.07169e-09
1.47308e-09
3.41428e-10
7.5564e-11
1.59591e-11
3.21421e-12
6.16807e-13
1.12674e-13
1.95717e-14
3.22875e-15
5.0518e-16
7.48516e-17
1.04846e-17
1.3857e-18
1.72433e-19
2.01539e-20
2.20656e-21
2.25618e-22
2.14705e-23
1.89421e-24
1.54239e-25
1.15342e-26
7.87584e-28
4.87627e-29
2.71481e-30
1.34546e-31
5.86229e-33
2.21037e-34
7.06462e-36
1.86072e-37
3.87692e-39
5.99017e-41
6.09986e-43
3.06806e-45
1
1
1
1
1
1
1
1
1
1
1
1
1
1
1
1
1
1
1
1
1
1
1
1
1
1
1
1
1
1
1
1
1
1
1
1
1
0.999998
0.999992
0.999968
0.999865
0.999448
0.997772
0.991223
0.966349
0.875067
0.643236
0.425197
0.263233
0.153073
0.0838732
0.0434165
0.0212803
0.00989562
0.00437295
0.00183903
0.000736892
0.00028161
0.000102725
3.57902e-05
1.19161e-05
3.79263e-06
1.15425e-06
3.3594e-07
9.35055e-08
2.4888e-08
6.33344e-09
1.5405e-09
3.58e-10
7.94495e-11
1.68277e-11
3.39916e-12
6.543e-13
1.19902e-13
2.08955e-14
3.45883e-15
5.43072e-16
8.07559e-17
1.13536e-17
1.50625e-18
1.88164e-19
2.20803e-20
2.42732e-21
2.49221e-22
2.38165e-23
2.11015e-24
1.72564e-25
1.29583e-26
8.88049e-28
5.51542e-29
3.07854e-30
1.52881e-31
6.6709e-33
2.51757e-34
8.04955e-36
2.11987e-37
4.41417e-39
6.81312e-41
6.92792e-43
3.47852e-45
1
1
1
1
1
1
1
1
1
1
1
1
1
1
1
1
1
1
1
1
1
1
1
1
1
1
1
1
1
1
1
1
1
1
1
1
1
0.999998
0.999992
0.999968
0.999866
0.999454
0.99781
0.991412
0.96716
0.878188
0.648282
0.429048
0.266015
0.154909
0.0849922
0.0440532
0.0216212
0.0100684
0.00445622
0.0018773
0.000753606
0.000288548
0.000105463
3.68192e-05
1.22845e-05
3.91845e-06
1.19523e-06
3.4868e-07
9.7286e-08
2.59589e-08
6.62302e-09
1.61522e-09
3.76397e-10
8.37694e-11
1.77946e-11
3.60532e-12
6.96139e-13
1.27977e-13
2.23762e-14
3.71646e-15
5.85557e-16
8.73855e-17
1.23309e-17
1.64211e-18
2.05934e-19
2.4262e-20
2.67811e-21
2.76129e-22
2.65022e-23
2.35853e-24
1.93753e-25
1.46175e-26
1.00673e-27
6.28517e-29
3.52739e-30
1.76167e-31
7.73221e-33
2.93577e-34
9.44481e-36
2.50299e-37
5.24519e-39
8.14776e-41
8.33842e-43
4.21364e-45
1
1
1
1
1
1
1
1
1
1
1
1
1
1
1
1
1
1
1
1
1
1
1
1
1
1
1
1
1
1
1
1
1
1
1
1
1
0.999998
0.999992
0.999968
0.99987
0.999481
0.99795
0.992044
0.969737
0.887884
0.664528
0.440821
0.273903
0.159763
0.0877685
0.045545
0.0223791
0.0104336
0.00462322
0.00194978
0.000783623
0.000300432
0.000109965
3.84516e-05
1.28511e-05
4.10668e-06
1.25508e-06
3.66898e-07
1.02592e-07
2.74374e-08
7.01701e-09
1.71561e-09
4.0084e-10
8.94525e-11
1.90556e-11
3.87214e-12
7.4993e-13
1.38299e-13
2.42593e-14
4.04265e-15
6.39131e-16
9.57157e-17
1.3555e-17
1.81179e-18
2.28072e-19
2.69741e-20
2.98923e-21
3.09451e-22
2.98227e-23
2.6652e-24
2.19888e-25
1.66619e-26
1.15267e-27
7.22926e-29
4.07618e-30
2.04545e-31
9.0214e-33
3.44219e-34
1.11297e-35
2.96448e-37
6.24412e-39
9.7494e-41
1.00289e-42
5.09395e-45
1
1
1
1
1
1
1
1
1
1
1
1
1
1
1
1
1
1
1
1
1
1
1
1
1
1
1
1
1
1
1
1
1
1
1
1
1
0.999998
0.999992
0.999968
0.99987
0.999478
0.997951
0.992107
0.970199
0.8902
0.66986
0.446113
0.278361
0.162994
0.0898443
0.0467571
0.0230337
0.0107645
0.00478111
0.00202127
0.000814375
0.000313018
0.000114872
4.02753e-05
1.34979e-05
4.32566e-06
1.32589e-06
3.88764e-07
1.09043e-07
2.92556e-08
7.50648e-09
1.84143e-09
4.31716e-10
9.66829e-11
2.06705e-11
4.21596e-12
8.19647e-13
1.51751e-13
2.67265e-14
4.47232e-15
7.10084e-16
1.06808e-16
1.51941e-17
2.04026e-18
2.58052e-19
3.06684e-20
3.41559e-21
3.55395e-22
3.44298e-23
3.09341e-24
2.56615e-25
1.95538e-26
1.36047e-27
8.58226e-29
4.86786e-30
2.45752e-31
1.09055e-32
4.18704e-34
1.36234e-35
3.65176e-37
7.74081e-39
1.21634e-40
1.25915e-42
6.43592e-45
1
1
1
1
1
1
1
1
1
1
1
1
1
1
1
1
1
1
1
1
1
1
1
1
1
1
1
1
1
1
1
1
1
1
1
1
1
0.999998
0.999991
0.999965
0.999857
0.999432
0.997803
0.991678
0.969029
0.887093
0.666151
0.444903
0.278266
0.163425
0.0904054
0.0472502
0.0233767
0.0109702
0.00489192
0.00207603
0.000839517
0.000323835
0.000119258
4.19588e-05
1.4111e-05
4.53796e-06
1.39589e-06
4.1076e-07
1.15634e-07
3.11391e-08
8.02001e-09
1.97499e-09
4.64846e-10
1.04519e-10
2.24366e-11
4.59508e-12
8.97109e-13
1.66803e-13
2.95052e-14
4.95918e-15
7.90937e-16
1.19517e-16
1.70817e-17
2.30471e-18
2.92923e-19
3.49862e-20
3.91633e-21
4.09621e-22
3.98946e-23
3.60398e-24
3.0064e-25
2.30397e-26
1.61242e-27
1.02329e-28
5.83989e-30
2.96688e-31
1.32511e-32
5.12128e-34
1.67758e-35
4.52776e-37
9.66497e-39
1.52949e-40
1.5947e-42
8.21015e-45
1
1
1
1
1
1
1
1
1
1
1
1
1
1
1
1
1
1
1
1
1
1
1
1
1
1
1
1
1
1
1
1
1
1
1
1
1
0.999998
0.999991
0.999963
0.999846
0.999383
0.997579
0.990746
0.965578
0.87527
0.650047
0.436721
0.274771
0.162208
0.0901084
0.0472429
0.0234591
0.0110506
0.00494707
0.00210786
0.000855835
0.000331463
0.000122558
4.32915e-05
1.46169e-05
4.71929e-06
1.45744e-06
4.30598e-07
1.21714e-07
3.29136e-08
8.51339e-09
2.10572e-09
4.97863e-10
1.12464e-10
2.4258e-11
4.99255e-12
9.79618e-13
1.83082e-13
3.25553e-14
5.50112e-15
8.82147e-16
1.34037e-16
1.92643e-17
2.61393e-18
3.34128e-19
4.01388e-20
4.51936e-21
4.7548e-22
4.65837e-23
4.23342e-24
3.55272e-25
2.73913e-26
1.92863e-27
1.23146e-28
7.07119e-30
3.61463e-31
1.62444e-32
6.31721e-34
2.08224e-35
5.65504e-37
1.21467e-38
1.93421e-40
2.02922e-42
1.05122e-44
1
1
1
1
1
1
1
1
1
1
1
1
1
1
1
1
1
1
1
1
1
1
1
1
1
1
1
1
1
1
1
1
1
1
1
1
1
0.999998
0.999991
0.999963
0.999848
0.999385
0.997561
0.990565
0.964494
0.870258
0.641679
0.430412
0.270836
0.16026
0.0893923
0.0471053
0.0234892
0.0111087
0.00499262
0.00213564
0.000870587
0.000338561
0.000125711
4.45984e-05
1.51253e-05
4.9057e-06
1.52204e-06
4.51802e-07
1.28317e-07
3.48666e-08
9.0625e-09
2.2526e-09
5.3525e-10
1.21522e-10
2.63468e-11
5.45088e-12
1.07527e-12
2.02058e-13
3.61302e-14
6.14014e-15
9.90383e-16
1.51384e-16
2.18906e-17
2.98885e-18
3.84493e-19
4.64897e-20
5.2691e-21
5.58089e-22
5.50505e-23
5.03746e-24
4.25705e-25
3.30533e-26
2.34384e-27
1.50728e-28
8.717e-30
4.48789e-31
2.03131e-32
7.9557e-34
2.64081e-35
7.22202e-37
1.56188e-38
2.50376e-40
2.64385e-42
1.37824e-44
1
1
1
1
1
1
1
1
1
1
1
1
1
1
1
1
1
1
1
1
1
1
1
1
1
1
1
1
1
1
1
1
1
1
1
1
1
0.999998
0.999992
0.999965
0.999854
0.999403
0.997621
0.990759
0.96507
0.871886
0.643375
0.431218
0.271285
0.160576
0.0896354
0.0472876
0.0236327
0.0112101
0.00505475
0.00216969
0.000887617
0.000346436
0.000129109
4.59758e-05
1.56525e-05
5.09682e-06
1.58783e-06
4.73339e-07
1.35031e-07
3.68603e-08
9.62676e-09
2.4048e-09
5.74372e-10
1.31104e-10
2.85815e-11
5.94702e-12
1.18005e-12
2.2309e-13
4.01394e-14
6.86509e-15
1.11458e-15
1.71513e-16
2.49723e-17
3.43371e-18
4.44914e-19
5.41935e-20
6.18878e-21
6.60579e-22
6.56766e-23
6.05845e-24
5.16219e-25
4.04191e-26
2.89078e-27
1.87525e-28
1.09413e-29
5.68382e-31
2.59607e-32
1.02613e-33
3.43781e-35
9.48961e-37
2.07158e-38
3.35219e-40
3.57328e-42
1.88052e-44
1
1
1
1
1
1
1
1
1
1
1
1
1
1
1
1
1
1
1
1
1
1
1
1
1
1
1
1
1
1
1
1
1
1
1
1
1
0.999998
0.999993
0.999969
0.99987
0.999468
0.997871
0.991651
0.968066
0.88155
0.655536
0.437956
0.275039
0.162647
0.0907824
0.0479296
0.0239887
0.0113988
0.00514921
0.00221457
0.000907993
0.000355292
0.000132791
4.74374e-05
1.62054e-05
5.29608e-06
1.65621e-06
4.95693e-07
1.41993e-07
3.89269e-08
1.02117e-08
2.56267e-09
6.14997e-10
1.41069e-10
3.09107e-11
6.46557e-12
1.28993e-12
2.4523e-13
4.43779e-14
7.63505e-15
1.24714e-15
1.93113e-16
2.82976e-17
3.91647e-18
5.10869e-19
6.26538e-20
7.20498e-21
7.74536e-22
7.75674e-23
7.20857e-24
6.18886e-25
4.8835e-26
3.52058e-27
2.30255e-28
1.3548e-29
7.09927e-31
3.27177e-32
1.30525e-33
4.41511e-35
1.23086e-36
2.71436e-38
4.43797e-40
4.7805e-42
2.54251e-44
1
1
1
1
1
1
1
1
1
1
1
1
1
1
1
1
1
1
1
1
1
1
1
1
1
1
1
1
1
1
1
1
1
1
1
1
1
0.999998
0.999993
0.99997
0.999876
0.999502
0.998046
0.992458
0.971425
0.894357
0.677854
0.453424
0.28474
0.168245
0.0938382
0.0495366
0.0248038
0.0117998
0.00534081
0.00230279
0.000946831
0.0003716
0.000139321
4.99328e-05
1.71167e-05
5.61428e-06
1.76249e-06
5.29651e-07
1.5237e-07
4.19597e-08
1.1059e-08
2.78888e-09
6.72686e-10
1.55115e-10
3.41744e-11
7.1886e-12
1.44255e-12
2.75898e-13
5.02376e-14
8.69843e-15
1.43017e-15
2.22945e-16
3.28942e-17
4.58464e-18
6.02302e-19
7.44023e-20
8.61848e-21
9.33266e-22
9.41435e-23
8.81167e-24
7.61785e-25
6.05129e-26
4.39015e-27
2.88835e-28
1.70882e-29
8.99888e-31
4.16549e-32
1.66807e-33
5.65985e-35
1.5832e-36
3.50428e-38
5.75253e-40
6.2232e-42
3.32511e-44
1
1
1
1
1
1
1
1
1
1
1
1
1
1
1
1
1
1
1
1
1
1
1
1
1
1
1
1
1
1
1
1
1
1
1
1
1
0.999998
0.999993
0.999972
0.999889
0.999559
0.998279
0.993372
0.974912
0.907205
0.703431
0.473151
0.298552
0.177061
0.0990202
0.0523704
0.0262579
0.0125057
0.00566696
0.0024467
0.00100764
0.000396217
0.000148873
5.34864e-05
1.83839e-05
6.04748e-06
1.90446e-06
5.74242e-07
1.65793e-07
4.58308e-08
1.21282e-08
3.07163e-09
7.4424e-10
1.72434e-10
3.81808e-11
8.07379e-12
1.62918e-12
3.13411e-13
5.74184e-14
1.00059e-14
1.65631e-15
2.60043e-16
3.86568e-17
5.43073e-18
7.19471e-19
8.96708e-20
1.04859e-20
1.14702e-21
1.16965e-22
1.1076e-23
9.69674e-25
7.80702e-26
5.7449e-27
3.83619e-28
2.3049e-29
1.23335e-30
5.80396e-32
2.36391e-33
8.16121e-35
2.32002e-36
5.21254e-38
8.67609e-40
9.50752e-42
5.14127e-44
1
1
1
1
1
1
1
1
1
1
1
1
1
1
1
1
1
1
1
1
1
1
1
1
1
1
1
1
1
1
1
1
1
1
1
1
1
0.999998
0.999994
0.999974
0.999897
0.999589
0.998387
0.993792
0.976584
0.913695
0.718724
0.486865
0.309173
0.184397
0.103623
0.0550322
0.0276934
0.0132338
0.00601629
0.0026059
0.00107672
0.000424819
0.000160185
5.77624e-05
1.99297e-05
6.58196e-06
2.08127e-06
6.30206e-07
1.82741e-07
5.07416e-08
1.34894e-08
3.43241e-09
8.35645e-10
1.94558e-10
4.32942e-11
9.20143e-12
1.86625e-12
3.60878e-13
6.64597e-14
1.16422e-14
1.93725e-15
3.05734e-16
4.56826e-17
6.45004e-18
8.58677e-19
1.0752e-19
1.26283e-20
1.38693e-21
1.41934e-22
1.34806e-23
1.18291e-24
9.54829e-26
7.05192e-27
4.73034e-28
2.8571e-29
1.53784e-30
7.28329e-32
2.98692e-33
1.03878e-34
2.97747e-36
6.75026e-38
1.1344e-39
1.25565e-41
6.86084e-44
1
1
1
1
1
1
1
1
1
1
1
1
1
1
1
1
1
1
1
1
1
1
1
1
1
1
1
1
1
1
1
1
1
1
1
1
1
0.999998
0.999994
0.999975
0.9999
0.9996
0.99843
0.993951
0.977179
0.91596
0.724703
0.49354
0.315282
0.189224
0.106998
0.0571651
0.0289304
0.0138997
0.00635173
0.00276504
0.00114815
0.00045525
0.00017252
6.25276e-05
2.16865e-05
7.20062e-06
2.28949e-06
6.97215e-07
2.03364e-07
5.68123e-08
1.51983e-08
3.8924e-09
9.54004e-10
2.23657e-10
5.01257e-11
1.07321e-11
2.19327e-12
4.2745e-13
7.93583e-14
1.4018e-14
2.35276e-15
3.74623e-16
5.64925e-17
8.05249e-18
1.08262e-18
1.36955e-19
1.62576e-20
1.80543e-21
1.86916e-22
1.797e-23
1.59709e-24
1.30476e-25
9.73679e-27
6.59279e-28
4.01744e-29
2.18129e-30
1.04223e-31
4.31348e-33
1.51456e-34
4.38551e-36
1.00501e-37
1.70823e-39
1.91329e-41
1.05823e-43
1
1
1
1
1
1
1
1
1
1
1
1
1
1
1
1
1
1
1
1
1
1
1
1
1
1
1
1
1
1
1
1
1
1
1
1
1
0.999999
0.999995
0.999976
0.999903
0.999614
0.998476
0.994106
0.977692
0.917661
0.728612
0.497121
0.318381
0.191734
0.108856
0.0584203
0.0297085
0.0143456
0.00658987
0.00288415
0.00120421
0.000480169
0.000183008
6.67179e-05
2.32782e-05
7.7764e-06
2.48804e-06
7.62532e-07
2.23879e-07
6.29647e-08
1.69608e-08
4.3747e-09
1.08004e-09
2.55107e-10
5.76146e-11
1.24328e-11
2.56143e-12
5.03334e-13
9.42376e-14
1.67902e-14
2.84286e-15
4.56722e-16
6.95011e-17
9.9985e-18
1.35687e-18
1.73281e-19
2.07677e-20
2.3287e-21
2.43458e-22
2.36378e-23
2.12179e-24
1.75154e-25
1.32158e-26
9.04917e-28
5.57531e-29
3.05918e-30
1.47607e-31
6.16328e-33
2.18091e-34
6.35652e-36
1.4645e-37
2.4997e-39
2.80871e-41
1.55718e-43
1
1
1
1
1
1
1
1
1
1
1
1
1
1
1
1
1
1
1
1
1
1
1
1
1
1
1
1
1
1
1
1
1
1
1
1
1
0.999999
0.999995
0.999977
0.999908
0.999633
0.99856
0.994437
0.978894
0.921791
0.737941
0.504636
0.323858
0.195497
0.111303
0.0599248
0.0305814
0.0148236
0.00683704
0.00300512
0.00126034
0.0005049
0.000193375
7.08572e-05
2.4854e-05
8.34877e-06
2.68655e-06
8.28302e-07
2.44701e-07
6.92661e-08
1.87834e-08
4.87857e-09
1.21315e-09
2.88691e-10
6.57055e-11
1.42927e-11
2.96903e-12
5.88426e-13
1.11141e-13
1.99816e-14
3.4147e-15
5.53806e-16
8.50919e-17
1.23619e-17
1.6943e-18
2.18538e-19
2.64539e-20
2.99585e-21
3.1629e-22
3.10068e-23
2.80974e-24
2.34129e-25
1.78328e-26
1.23281e-27
7.67108e-29
4.25299e-30
2.07481e-31
8.7666e-33
3.14245e-34
9.29032e-36
2.17417e-37
3.774e-39
4.31689e-41
2.43852e-43
1
1
1
1
1
1
1
1
1
1
1
1
1
1
1
1
1
1
1
1
1
1
1
1
1
1
1
1
1
1
1
1
1
1
1
1
1
0.999999
0.999995
0.999978
0.999909
0.999636
0.998578
0.994555
0.979556
0.924868
0.746703
0.512951
0.330452
0.200212
0.114403
0.0618224
0.031671
0.0154132
0.00713865
0.00315134
0.00132766
0.000534398
0.000205691
7.57616e-05
2.67188e-05
9.0263e-06
2.92187e-06
9.06463e-07
2.69531e-07
7.68116e-08
2.09768e-08
5.48832e-09
1.37523e-09
3.29874e-10
7.57023e-11
1.66098e-11
3.48148e-12
6.96473e-13
1.32839e-13
2.41269e-14
4.16717e-15
6.83402e-16
1.06232e-16
1.56218e-17
2.16849e-18
2.83443e-19
3.47896e-20
3.99705e-21
4.28332e-22
4.26367e-23
3.92357e-24
3.31945e-25
2.56548e-26
1.79802e-27
1.13288e-28
6.35064e-30
3.12717e-31
1.33108e-32
4.79593e-34
1.42163e-35
3.33533e-37
5.81096e-39
6.67875e-41
3.79485e-43
1
1
1
1
1
1
1
1
1
1
1
1
1
1
1
1
1
1
1
1
1
1
1
1
1
1
1
1
1
1
1
1
1
1
1
1
1
0.999999
0.999995
0.999978
0.99991
0.999644
0.998611
0.994688
0.980086
0.926902
0.752345
0.519096
0.335969
0.204539
0.11744
0.0637646
0.032819
0.0160464
0.00746666
0.0033117
0.00140191
0.000567031
0.000219336
8.11985e-05
2.87857e-05
9.77672e-06
3.18224e-06
9.92857e-07
2.96953e-07
8.51396e-08
2.33968e-08
6.16114e-09
1.55415e-09
3.75366e-10
8.67567e-11
1.91753e-11
4.04967e-12
8.16462e-13
1.56974e-13
2.87457e-14
5.00699e-15
8.28274e-16
1.29903e-16
1.92787e-17
2.70159e-18
3.56615e-19
4.42241e-20
5.13688e-21
5.57025e-22
5.61782e-23
5.24766e-24
4.51866e-25
3.56432e-26
2.55551e-27
1.65047e-28
9.50044e-30
4.81114e-31
2.1089e-32
7.83401e-34
2.39654e-35
5.78559e-37
1.03262e-38
1.21118e-40
6.99955e-43
1
1
1
1
1
1
1
1
1
1
1
1
1
1
1
1
1
1
1
1
1
1
1
1
1
1
1
1
1
1
1
1
1
1
1
1
1
0.999999
0.999995
0.999979
0.999917
0.99967
0.998712
0.995059
0.981393
0.931424
0.76403
0.529206
0.343562
0.209876
0.120962
0.0659482
0.0340924
0.0167466
0.00783063
0.00349094
0.00148573
0.000604311
0.000235129
8.75779e-05
3.12451e-05
1.06823e-05
3.50089e-06
1.10004e-06
3.31435e-07
9.5748e-08
2.65184e-08
7.03959e-09
1.79052e-09
4.36161e-10
1.01696e-10
2.26804e-11
4.83441e-12
9.83955e-13
1.91021e-13
3.53292e-14
6.21633e-15
1.03897e-15
1.64659e-16
2.46954e-17
3.49724e-18
4.66463e-19
5.8431e-20
6.8513e-21
7.49126e-22
7.60451e-23
7.12988e-24
6.13758e-25
4.83561e-26
3.47249e-27
2.25157e-28
1.3038e-29
6.65393e-31
2.94392e-32
1.10537e-33
3.42218e-35
8.38028e-37
1.52053e-38
1.81568e-40
1.06941e-42
1
1
1
1
1
1
1
1
1
1
1
1
1
1
1
1
1
1
1
1
1
1
1
1
1
1
1
1
1
1
1
1
1
1
1
1
1
0.999999
0.999995
0.99998
0.999922
0.99969
0.998793
0.995386
0.982678
0.936251
0.777602
0.541485
0.352855
0.216343
0.125164
0.0685145
0.035571
0.017552
0.00824615
0.00369439
0.00158039
0.000646252
0.000252842
9.47182e-05
3.39952e-05
1.16951e-05
3.85776e-06
1.22042e-06
3.70312e-07
1.07771e-07
3.00789e-08
8.04904e-09
2.06444e-09
5.07272e-10
1.19347e-10
2.68673e-11
5.78262e-12
1.18879e-12
2.33187e-13
4.35906e-14
7.75479e-15
1.31089e-15
2.10199e-16
3.19102e-17
4.5765e-18
6.186e-19
7.85998e-20
9.36072e-21
1.04156e-21
1.07897e-22
1.03643e-23
9.18667e-25
7.45107e-26
5.47709e-27
3.61882e-28
2.12807e-29
1.10017e-30
4.92187e-32
1.86621e-33
5.82904e-35
1.43942e-36
2.63364e-38
3.17205e-40
1.88492e-42
1
1
1
1
1
1
1
1
1
1
1
1
1
1
1
1
1
1
1
1
1
1
1
1
1
1
1
1
1
1
1
1
1
1
1
1
1
0.999999
0.999996
0.999981
0.999924
0.999698
0.998825
0.995528
0.983307
0.938935
0.786457
0.551453
0.361483
0.222837
0.129564
0.0712566
0.0371636
0.0184216
0.00869516
0.00391439
0.00168296
0.000691821
0.000272162
0.000102544
3.70259e-05
1.2818e-05
4.256e-06
1.35566e-06
4.14305e-07
1.21481e-07
3.41726e-08
9.22001e-09
2.38525e-09
5.91428e-10
1.40474e-10
3.19402e-11
6.94669e-12
1.44384e-12
2.8648e-13
5.4197e-14
9.76231e-15
1.67161e-15
2.71607e-16
4.17912e-17
6.07524e-18
8.32235e-19
1.07114e-19
1.29088e-20
1.45104e-21
1.5146e-22
1.4607e-23
1.29461e-24
1.04964e-25
7.75275e-27
5.17625e-28
3.08654e-29
1.62132e-30
7.38219e-32
2.85202e-33
9.08264e-35
2.28723e-36
4.26655e-38
5.23611e-40
3.16816e-42
1
1
1
1
1
1
1
1
1
1
1
1
1
1
1
1
1
1
1
1
1
1
1
1
1
1
1
1
1
1
1
1
1
1
1
1
1
0.999999
0.999996
0.999981
0.999924
0.999699
0.99883
0.995554
0.983451
0.939675
0.789527
0.556675
0.367202
0.227856
0.133361
0.0738221
0.0387469
0.0193268
0.00917898
0.00415772
0.00179863
0.000743963
0.000294513
0.000111671
4.05816e-05
1.41413e-05
4.72684e-06
1.51594e-06
4.66521e-07
1.37768e-07
3.90367e-08
1.06111e-08
2.76618e-09
6.91288e-10
1.65528e-10
3.79534e-11
8.32673e-12
1.74649e-12
3.4986e-13
6.68588e-14
1.21728e-14
2.10831e-15
3.46772e-16
5.40589e-17
7.96959e-18
1.1083e-18
1.4498e-19
1.7784e-20
2.03833e-21
2.17404e-22
2.14757e-23
1.9537e-24
1.62525e-25
1.22567e-26
8.30504e-28
5.00819e-29
2.65424e-30
1.2173e-31
4.74367e-33
1.52582e-34
3.8866e-36
7.34482e-38
9.14609e-40
5.62388e-42
1
1
1
1
1
1
1
1
1
1
1
1
1
1
1
1
1
1
1
1
1
1
1
1
1
1
1
1
1
1
1
1
1
1
1
1
1
0.999999
0.999996
0.999981
0.999925
0.999703
0.998847
0.995619
0.983688
0.940514
0.792094
0.560379
0.371369
0.231777
0.136535
0.0760948
0.0402184
0.0202021
0.00966291
0.00440844
0.00192105
0.000800542
0.000319334
0.000122032
4.47036e-05
1.57061e-05
5.29434e-06
1.71268e-06
5.31757e-07
1.58462e-07
4.53175e-08
1.2435e-08
3.27281e-09
8.2586e-10
1.99696e-10
4.62408e-11
1.02457e-11
2.1704e-12
4.39128e-13
8.47651e-14
1.55917e-14
2.72922e-15
4.53951e-16
7.16292e-17
1.07025e-17
1.51037e-18
2.00737e-19
2.50441e-20
2.92237e-21
3.17646e-22
3.20114e-23
2.97491e-24
2.53311e-25
1.96116e-26
1.36831e-27
8.51239e-29
4.66064e-30
2.20799e-31
8.84835e-33
2.91536e-34
7.57805e-36
1.45621e-37
1.83774e-39
1.14175e-41
1
1
1
1
1
1
1
1
1
1
1
1
1
1
1
1
1
1
1
1
1
1
1
1
1
1
1
1
1
1
1
1
1
1
1
1
1
0.999999
0.999996
0.999982
0.999928
0.999714
0.998889
0.995767
0.984191
0.942203
0.796966
0.565119
0.3754
0.235058
0.139056
0.0778965
0.0414093
0.0209313
0.0100786
0.00463028
0.00203241
0.000853338
0.000343056
0.00013216
4.88211e-05
1.73026e-05
5.88548e-06
1.92189e-06
6.02572e-07
1.81399e-07
5.24279e-08
1.45447e-08
3.87185e-09
9.8857e-10
2.41948e-10
5.67218e-11
1.27267e-11
2.73003e-12
5.59214e-13
1.09224e-13
2.03083e-14
3.5881e-15
6.01236e-16
9.5338e-17
1.42787e-17
2.02283e-18
2.70191e-19
3.39171e-20
3.98663e-21
4.3694e-22
4.44448e-23
4.17317e-24
3.59442e-25
2.81896e-26
1.99539e-27
1.26138e-28
7.0286e-30
3.39572e-31
1.39201e-32
4.70267e-34
1.25581e-35
2.48303e-37
3.22843e-39
2.06843e-41
1
1
1
1
1
1
1
1
1
1
1
1
1
1
1
1
1
1
1
1
1
1
1
1
1
1
1
1
1
1
1
1
1
1
1
1
1
0.999999
0.999996
0.999984
0.999935
0.999744
0.998997
0.996137
0.985395
0.946002
0.807424
0.574215
0.381964
0.239591
0.142114
0.0798824
0.0426391
0.0216541
0.0104808
0.00484215
0.00213821
0.000903514
0.000365688
0.000141883
5.28062e-05
1.88627e-05
6.46934e-06
2.13098e-06
6.74277e-07
2.04958e-07
5.98473e-08
1.67847e-08
4.52034e-09
1.1686e-09
2.89871e-10
6.89519e-11
1.57183e-11
3.43119e-12
7.16598e-13
1.43041e-13
2.72554e-14
4.94808e-15
8.54007e-16
1.39808e-16
2.16482e-17
3.15456e-18
4.31577e-19
5.52681e-20
6.60182e-21
7.32579e-22
7.51647e-23
7.09279e-24
6.11832e-25
4.79167e-26
3.38431e-27
2.14521e-28
1.20337e-29
5.87351e-31
2.43997e-32
8.37188e-34
2.27342e-35
4.57454e-37
6.05779e-39
3.95734e-41
1
1
1
1
1
1
1
1
1
1
1
1
1
1
1
1
1
1
1
1
1
1
1
1
1
1
1
1
1
1
1
1
1
1
1
1
1
1
0.999997
0.999986
0.999945
0.999781
0.999142
0.996689
0.987407
0.953068
0.82964
0.59409
0.396033
0.248874
0.147928
0.0833695
0.0446457
0.0227605
0.0110645
0.00513655
0.00228013
0.000968893
0.000394485
0.000154015
5.76969e-05
2.07501e-05
7.16685e-06
2.37791e-06
7.58025e-07
2.32171e-07
6.83179e-08
1.93103e-08
5.24132e-09
1.36557e-09
3.41339e-10
8.18051e-11
1.87831e-11
4.12823e-12
8.67623e-13
1.74164e-13
3.33555e-14
6.0928e-15
1.06064e-15
1.75637e-16
2.76059e-17
4.10798e-18
5.77002e-19
7.62063e-20
9.42563e-21
1.08689e-21
1.16252e-22
1.14664e-23
1.03588e-24
8.50308e-26
6.27817e-27
4.11363e-28
2.36217e-29
1.16905e-30
4.8795e-32
1.67032e-33
4.51403e-35
9.11438e-37
1.22022e-38
8.0908e-41
1
1
1
1
1
1
1
1
1
1
1
1
1
1
1
1
1
1
1
1
1
1
1
1
1
1
1
1
1
1
1
1
1
1
1
1
1
1
0.999997
0.999987
0.999949
0.999798
0.99922
0.997031
0.988846
0.958746
0.850622
0.6167
0.412919
0.260215
0.155042
0.0876027
0.0470521
0.0240719
0.0117507
0.00548119
0.00244625
0.00104571
0.00042856
0.000168513
6.36147e-05
2.30677e-05
8.0378e-06
2.69199e-06
8.66734e-07
2.68282e-07
7.98296e-08
2.28311e-08
6.2742e-09
1.65608e-09
4.19632e-10
1.02008e-10
2.37703e-11
5.30455e-12
1.13236e-12
2.30922e-13
4.49163e-14
8.31552e-15
1.46223e-15
2.43749e-16
3.84367e-17
5.71921e-18
8.0402e-19
1.06582e-19
1.32691e-20
1.54436e-21
1.67179e-22
1.67343e-23
1.5385e-24
1.28885e-25
9.74595e-27
6.57486e-28
3.90302e-29
2.00475e-30
8.72289e-32
3.1253e-33
8.85121e-35
1.85406e-36
2.55424e-38
1.73627e-40
1
1
1
1
1
1
1
1
1
1
1
1
1
1
1
1
1
1
1
1
1
1
1
1
1
1
1
1
1
1
1
1
1
1
1
1
1
1
0.999997
0.999987
0.999949
0.999804
0.999245
0.997156
0.98947
0.961633
0.862579
0.634791
0.428885
0.272462
0.163416
0.0928417
0.0501029
0.0257444
0.0126201
0.00591189
0.00265022
0.00113825
0.000468835
0.000185347
7.03761e-05
2.56785e-05
9.00743e-06
3.03842e-06
9.85811e-07
3.07664e-07
9.2361e-08
2.66673e-08
7.4038e-09
1.97596e-09
5.06713e-10
1.2479e-10
2.94949e-11
6.68562e-12
1.45204e-12
3.01866e-13
5.99971e-14
1.13837e-14
2.05854e-15
3.54092e-16
5.77869e-17
8.91991e-18
1.2948e-18
1.76119e-19
2.23751e-20
2.64487e-21
2.89553e-22
2.91998e-23
2.69517e-24
2.25988e-25
1.71251e-26
1.16594e-27
7.02883e-29
3.68781e-30
1.64787e-31
6.08827e-33
1.78144e-34
3.85857e-36
5.49056e-38
3.84777e-40
1
1
1
1
1
1
1
1
1
1
1
1
1
1
1
1
1
1
1
1
1
1
1
1
1
1
1
1
1
1
1
1
1
1
1
1
1
1
0.999997
0.999988
0.999952
0.999811
0.999273
0.997256
0.989828
0.962961
0.867578
0.64383
0.43842
0.280954
0.169983
0.0973833
0.0529715
0.0274237
0.0135406
0.00638778
0.00288344
0.00124699
0.000517207
0.000205914
7.87481e-05
2.89444e-05
1.02294e-05
3.47722e-06
1.13708e-06
3.5774e-07
1.0828e-07
3.15266e-08
8.8277e-09
2.37634e-09
6.14699e-10
1.52706e-10
3.64066e-11
8.323e-12
1.82279e-12
3.8201e-13
7.65176e-14
1.46284e-14
2.66517e-15
4.62124e-16
7.61911e-17
1.19303e-17
1.76991e-18
2.47731e-19
3.25711e-20
4.00345e-21
4.57567e-22
4.83326e-23
4.68507e-24
4.13306e-25
3.27964e-26
2.31019e-27
1.42686e-28
7.6051e-30
3.42498e-31
1.27259e-32
3.7759e-34
8.34886e-36
1.21835e-37
8.77812e-40
1
1
1
1
1
1
1
1
1
1
1
1
1
1
1
1
1
1
1
1
1
1
1
1
1
1
1
1
1
1
1
1
1
1
1
1
1
1
0.999997
0.999989
0.999957
0.99983
0.999342
0.997492
0.990597
0.965427
0.875559
0.655416
0.448185
0.288888
0.175963
0.101551
0.0556657
0.0290473
0.0144581
0.00687649
0.00312984
0.001365
0.000571033
0.000229351
8.85065e-05
3.28355e-05
1.17167e-05
4.02269e-06
1.32914e-06
4.22695e-07
1.29385e-07
3.81154e-08
1.0804e-08
2.94576e-09
7.72227e-10
1.94528e-10
4.7054e-11
1.09199e-11
2.4288e-12
5.17108e-13
1.0523e-13
2.04306e-14
3.77615e-15
6.62816e-16
1.10179e-16
1.72929e-17
2.56818e-18
3.60699e-19
4.77304e-20
5.92369e-21
6.85941e-22
7.36714e-23
7.28847e-24
6.58857e-25
5.38934e-26
3.94115e-27
2.54084e-28
1.41956e-29
6.72453e-31
2.62274e-32
8.07761e-34
1.84546e-35
2.77872e-37
2.06617e-39
1
1
1
1
1
1
1
1
1
1
1
1
1
1
1
1
1
1
1
1
1
1
1
1
1
1
1
1
1
1
1
1
1
1
1
1
1
1
0.999997
0.999989
0.999959
0.99984
0.999384
0.997658
0.991238
0.967793
0.883993
0.668684
0.45879
0.297029
0.181825
0.105518
0.0581915
0.030564
0.0153189
0.00733929
0.00336612
0.00147981
0.000624216
0.000252877
9.84577e-05
3.6865e-05
1.32804e-05
4.6046e-06
1.53698e-06
4.93967e-07
1.52862e-07
4.55458e-08
1.30639e-08
3.60633e-09
9.57777e-10
2.44609e-10
6.00405e-11
1.41544e-11
3.20243e-12
6.94758e-13
1.44393e-13
2.87218e-14
5.46133e-15
9.9009e-16
1.70677e-16
2.78962e-17