/*--------------------------------*- C++ -*----------------------------------*\
| =========                 |                                                 |
| \\      /  F ield         | OpenFOAM: The Open Source CFD Toolbox           |
|  \\    /   O peration     | Version:  4.1                                   |
|   \\  /    A nd           | Web:      www.OpenFOAM.org                      |
|    \\/     M anipulation  |                                                 |
\*---------------------------------------------------------------------------*/
FoamFile
{
    version     2.0;
    format      ascii;
    class       volVectorField;
    location    "0.101";
    object      U;
}
// * * * * * * * * * * * * * * * * * * * * * * * * * * * * * * * * * * * * * //

dimensions      [0 1 -1 0 0 0 0];

internalField   nonuniform List<vector> 
43750
(
(10.0661 0.118792 0)
(10.0365 0.104002 0)
(9.93516 0.0766347 0)
(9.85994 0.0391605 0)
(9.8369 0.00543672 0)
(9.84267 -0.00549483 0)
(9.85469 0.00447205 0)
(9.86451 0.0153732 0)
(9.86877 0.0154074 0)
(9.86358 0.0072234 0)
(9.84521 -0.00116983 0)
(9.81437 -0.00415586 0)
(9.77979 -0.000937112 0)
(9.75269 0.00553917 0)
(9.73737 0.0125002 0)
(9.727 0.0190319 0)
(9.70855 0.0240395 0)
(9.6739 0.0250343 0)
(9.62743 0.0199872 0)
(9.58113 0.0103677 0)
(9.54247 0.00187731 0)
(9.50876 2.55756e-05 0)
(9.47229 0.00434047 0)
(9.42951 0.00908375 0)
(9.3844 0.0100238 0)
(9.34278 0.0100325 0)
(9.30512 0.0163101 0)
(9.26564 0.0313899 0)
(9.21839 0.0484311 0)
(9.1636 0.0564233 0)
(9.10715 0.0508958 0)
(9.05375 0.0392477 0)
(9.00158 0.034704 0)
(8.94367 0.0443007 0)
(8.87447 0.0624056 0)
(8.79578 0.0757829 0)
(8.71555 0.0748897 0)
(8.64119 0.0618677 0)
(8.57339 0.0484386 0)
(8.50475 0.0463722 0)
(8.42405 0.0591881 0)
(8.32279 0.0806162 0)
(8.20001 0.0998228 0)
(8.06215 0.108716 0)
(7.91915 0.105857 0)
(7.77946 0.0951738 0)
(7.64739 0.0823237 0)
(7.52324 0.0715481 0)
(7.40481 0.06451 0)
(7.28926 0.060992 0)
(7.17422 0.0599387 0)
(7.05817 0.0602625 0)
(6.94038 0.0611864 0)
(6.82046 0.0623392 0)
(6.69833 0.0635709 0)
(6.57396 0.0648068 0)
(6.44737 0.0660642 0)
(6.31851 0.0673091 0)
(6.18736 0.0685761 0)
(6.05396 0.0698394 0)
(5.91825 0.0710894 0)
(5.78021 0.0723298 0)
(5.63985 0.0735618 0)
(5.49717 0.0747553 0)
(5.35218 0.0759209 0)
(5.20488 0.0770499 0)
(5.05535 0.0781176 0)
(4.90354 0.0790983 0)
(4.74955 0.0799933 0)
(4.59347 0.0808026 0)
(4.43536 0.0815005 0)
(4.27532 0.0820694 0)
(4.11348 0.0824929 0)
(3.95002 0.0827439 0)
(3.78509 0.0828258 0)
(3.6189 0.082699 0)
(3.45167 0.082347 0)
(3.28369 0.0817499 0)
(3.11525 0.0808879 0)
(2.94667 0.0797399 0)
(2.7783 0.0782945 0)
(2.61053 0.076539 0)
(2.44376 0.0744654 0)
(2.27842 0.0720739 0)
(2.11492 0.0693698 0)
(1.9537 0.066374 0)
(1.79519 0.0631138 0)
(1.63974 0.0596277 0)
(1.48774 0.0559658 0)
(1.33945 0.0521935 0)
(1.19508 0.0483763 0)
(1.05478 0.0445996 0)
(0.918576 0.0409484 0)
(0.786369 0.037513 0)
(0.65796 0.0343801 0)
(0.533023 0.0316314 0)
(0.411133 0.0293427 0)
(0.291714 0.0275529 0)
(0.174244 0.0262309 0)
(0.0578351 0.025728 0)
(9.93509 0.176248 0)
(9.90171 0.106024 0)
(9.92732 0.0634184 0)
(9.95992 0.0354225 0)
(9.96523 0.0107413 0)
(9.94192 -0.0124836 0)
(9.91619 -0.027548 0)
(9.90855 -0.0294271 0)
(9.91373 -0.0145505 0)
(9.91503 0.0154043 0)
(9.90362 0.0491904 0)
(9.88212 0.0690823 0)
(9.85599 0.063298 0)
(9.82947 0.037552 0)
(9.80836 0.0128269 0)
(9.8003 0.00877153 0)
(9.80859 0.0280036 0)
(9.82516 0.0554208 0)
(9.83182 0.072976 0)
(9.81343 0.0751163 0)
(9.77107 0.0703324 0)
(9.7205 0.0694546 0)
(9.67706 0.0744546 0)
(9.6429 0.0790787 0)
(9.60887 0.0772479 0)
(9.56739 0.0692349 0)
(9.52171 0.0601469 0)
(9.48229 0.0544502 0)
(9.45505 0.0529966 0)
(9.43397 0.0545866 0)
(9.40603 0.0587152 0)
(9.36343 0.0656006 0)
(9.31101 0.0742421 0)
(9.26163 0.0816405 0)
(9.22423 0.0847159 0)
(9.19546 0.0830799 0)
(9.16216 0.0798259 0)
(9.11229 0.0798938 0)
(9.04483 0.0868827 0)
(8.9706 0.101231 0)
(8.90448 0.120655 0)
(8.85555 0.14127 0)
(8.82248 0.158967 0)
(8.79591 0.170738 0)
(8.76409 0.175886 0)
(8.71811 0.175844 0)
(8.65445 0.173241 0)
(8.5742 0.17047 0)
(8.48096 0.168973 0)
(8.37893 0.169187 0)
(8.27135 0.170811 0)
(8.16027 0.17334 0)
(8.04679 0.176329 0)
(7.93144 0.179488 0)
(7.81428 0.182716 0)
(7.69533 0.185963 0)
(7.57456 0.189221 0)
(7.45194 0.192505 0)
(7.32741 0.195856 0)
(7.20091 0.19924 0)
(7.07238 0.20266 0)
(6.94178 0.206107 0)
(6.80901 0.209609 0)
(6.67403 0.213133 0)
(6.53682 0.216667 0)
(6.39726 0.220221 0)
(6.25531 0.223756 0)
(6.11087 0.227263 0)
(5.96392 0.23072 0)
(5.8144 0.234125 0)
(5.66223 0.23746 0)
(5.50735 0.24068 0)
(5.34969 0.243755 0)
(5.18926 0.246689 0)
(5.026 0.249408 0)
(4.85981 0.251894 0)
(4.6907 0.254106 0)
(4.51865 0.256006 0)
(4.34363 0.257546 0)
(4.16566 0.258687 0)
(3.98473 0.25939 0)
(3.80088 0.259614 0)
(3.61411 0.259332 0)
(3.42451 0.258517 0)
(3.23214 0.257149 0)
(3.03708 0.255227 0)
(2.83945 0.252759 0)
(2.63934 0.249778 0)
(2.4369 0.246331 0)
(2.23229 0.242488 0)
(2.02567 0.238331 0)
(1.81724 0.233976 0)
(1.60716 0.229548 0)
(1.39565 0.225189 0)
(1.1829 0.221044 0)
(0.969143 0.21727 0)
(0.754554 0.214025 0)
(0.539365 0.211417 0)
(0.323747 0.209661 0)
(0.107509 0.208422 0)
(9.98081 0.0335667 0)
(9.94901 0.0830605 0)
(9.97975 0.047895 0)
(9.9925 0.0170529 0)
(9.97723 0.0276497 0)
(9.94759 0.0446923 0)
(9.92214 0.0359929 0)
(9.90153 0.0155677 0)
(9.87957 0.00893825 0)
(9.85766 0.0194844 0)
(9.8452 0.0342088 0)
(9.84485 0.0446658 0)
(9.84379 0.0511683 0)
(9.82465 0.0523853 0)
(9.78427 0.0420749 0)
(9.73821 0.0200672 0)
(9.70587 0.000784224 0)
(9.69413 0.00318667 0)
(9.69507 0.0318097 0)
(9.69493 0.0701515 0)
(9.68488 0.0944357 0)
(9.66515 0.0948565 0)
(9.64091 0.0828459 0)
(9.61546 0.0771702 0)
(9.58639 0.0848824 0)
(9.54768 0.0972588 0)
(9.49522 0.102533 0)
(9.43064 0.0996959 0)
(9.36094 0.0982788 0)
(9.29482 0.106568 0)
(9.23871 0.122355 0)
(9.1944 0.135498 0)
(9.15912 0.138302 0)
(9.12681 0.133093 0)
(9.08994 0.130243 0)
(9.04219 0.13882 0)
(8.98117 0.158653 0)
(8.90986 0.18023 0)
(8.83567 0.192093 0)
(8.76689 0.18962 0)
(8.70883 0.177752 0)
(8.66186 0.166215 0)
(8.62185 0.162844 0)
(8.58194 0.170133 0)
(8.53514 0.18603 0)
(8.47645 0.206378 0)
(8.40408 0.227114 0)
(8.31909 0.245305 0)
(8.22421 0.259726 0)
(8.12244 0.270468 0)
(8.01614 0.278357 0)
(7.90701 0.284452 0)
(7.79589 0.289636 0)
(7.68316 0.294452 0)
(7.56894 0.299163 0)
(7.45318 0.303951 0)
(7.33586 0.308811 0)
(7.21697 0.313777 0)
(7.09644 0.318844 0)
(6.97422 0.32401 0)
(6.8503 0.329277 0)
(6.72464 0.334621 0)
(6.59721 0.34007 0)
(6.46796 0.345621 0)
(6.33686 0.351232 0)
(6.20389 0.356931 0)
(6.06899 0.362693 0)
(5.93211 0.3685 0)
(5.79321 0.374376 0)
(5.6523 0.380261 0)
(5.50928 0.386162 0)
(5.36406 0.39204 0)
(5.21667 0.397872 0)
(5.06702 0.40366 0)
(4.915 0.409333 0)
(4.76058 0.414882 0)
(4.60367 0.420266 0)
(4.44418 0.425448 0)
(4.28201 0.430385 0)
(4.11705 0.435042 0)
(3.94921 0.439372 0)
(3.77836 0.443342 0)
(3.60437 0.446913 0)
(3.4271 0.450053 0)
(3.24646 0.452741 0)
(3.06228 0.454957 0)
(2.87447 0.456691 0)
(2.68294 0.45795 0)
(2.4876 0.458752 0)
(2.2884 0.459125 0)
(2.08534 0.459115 0)
(1.87846 0.458778 0)
(1.66788 0.458179 0)
(1.45376 0.457392 0)
(1.23633 0.456495 0)
(1.01593 0.455573 0)
(0.792948 0.454709 0)
(0.567848 0.453947 0)
(0.341262 0.453595 0)
(0.113377 0.452543 0)
(9.96442 0.0684173 0)
(9.94401 0.052524 0)
(9.94569 0.0249616 0)
(9.93386 0.0318351 0)
(9.92192 0.0502227 0)
(9.92172 0.0428065 0)
(9.92762 0.0198377 0)
(9.93122 0.0131948 0)
(9.92663 0.0286815 0)
(9.91622 0.0478707 0)
(9.90539 0.0589394 0)
(9.89787 0.0681632 0)
(9.89247 0.0829036 0)
(9.88381 0.097015 0)
(9.86551 0.0985487 0)
(9.83384 0.0860331 0)
(9.79043 0.0709076 0)
(9.7424 0.0654528 0)
(9.69832 0.0724748 0)
(9.66263 0.0863172 0)
(9.63353 0.100724 0)
(9.60591 0.113072 0)
(9.57641 0.123574 0)
(9.54516 0.133581 0)
(9.51281 0.145201 0)
(9.47694 0.159905 0)
(9.43313 0.175792 0)
(9.38019 0.186904 0)
(9.32299 0.187195 0)
(9.26885 0.175787 0)
(9.22157 0.158444 0)
(9.17906 0.144165 0)
(9.13623 0.140198 0)
(9.08988 0.148972 0)
(9.04081 0.167897 0)
(8.99182 0.191039 0)
(8.94445 0.211542 0)
(8.89748 0.22423 0)
(8.84772 0.227754 0)
(8.79253 0.225223 0)
(8.73166 0.222489 0)
(8.66695 0.225174 0)
(8.60008 0.236265 0)
(8.531 0.255462 0)
(8.45794 0.279918 0)
(8.37884 0.305851 0)
(8.29266 0.329891 0)
(8.19961 0.350066 0)
(8.10077 0.365849 0)
(7.99744 0.377792 0)
(7.89067 0.387019 0)
(7.78125 0.394595 0)
(7.66966 0.40133 0)
(7.55612 0.407738 0)
(7.44079 0.414076 0)
(7.3237 0.420473 0)
(7.20486 0.426977 0)
(7.08429 0.433584 0)
(6.96199 0.440287 0)
(6.83791 0.447129 0)
(6.71207 0.454087 0)
(6.58443 0.461145 0)
(6.45499 0.468307 0)
(6.32365 0.475585 0)
(6.19049 0.482952 0)
(6.05546 0.490408 0)
(5.91851 0.49794 0)
(5.77964 0.505516 0)
(5.63885 0.513176 0)
(5.49613 0.520864 0)
(5.35145 0.528563 0)
(5.20475 0.536256 0)
(5.0561 0.543941 0)
(4.90545 0.551568 0)
(4.75276 0.559149 0)
(4.598 0.566639 0)
(4.44116 0.574014 0)
(4.2822 0.581251 0)
(4.12105 0.588326 0)
(3.95768 0.595209 0)
(3.79202 0.601875 0)
(3.62398 0.608301 0)
(3.45347 0.614461 0)
(3.28039 0.620335 0)
(3.10464 0.625904 0)
(2.92608 0.631154 0)
(2.7446 0.636073 0)
(2.5601 0.640654 0)
(2.37242 0.644889 0)
(2.1815 0.648777 0)
(1.98726 0.652322 0)
(1.78968 0.65552 0)
(1.5888 0.658375 0)
(1.38472 0.660884 0)
(1.17758 0.663053 0)
(0.96766 0.664872 0)
(0.755308 0.666338 0)
(0.54089 0.667406 0)
(0.325072 0.668337 0)
(0.107995 0.667433 0)
(9.8671 -0.0242181 0)
(9.84474 0.0141275 0)
(9.87844 0.0403566 0)
(9.89947 0.0489876 0)
(9.93601 0.0488729 0)
(9.96226 0.0403412 0)
(9.95375 0.0245012 0)
(9.92192 0.0158828 0)
(9.89197 0.0255768 0)
(9.87332 0.0437495 0)
(9.86019 0.0554671 0)
(9.84654 0.0599142 0)
(9.83291 0.0669032 0)
(9.82059 0.0804791 0)
(9.80596 0.0930904 0)
(9.78354 0.0963374 0)
(9.752 0.0930682 0)
(9.71484 0.0953786 0)
(9.67666 0.110919 0)
(9.6407 0.13384 0)
(9.60923 0.150206 0)
(9.58398 0.151682 0)
(9.56515 0.143801 0)
(9.55015 0.14099 0)
(9.53452 0.15334 0)
(9.51398 0.177523 0)
(9.48599 0.200388 0)
(9.44966 0.211295 0)
(9.40506 0.210941 0)
(9.35284 0.208786 0)
(9.29508 0.212698 0)
(9.23538 0.221639 0)
(9.17778 0.228692 0)
(9.1251 0.230003 0)
(9.07746 0.229722 0)
(9.03195 0.23626 0)
(8.98383 0.253925 0)
(8.92849 0.278219 0)
(8.86387 0.298945 0)
(8.79184 0.308211 0)
(8.717 0.306157 0)
(8.64368 0.300536 0)
(8.57351 0.301265 0)
(8.50482 0.314514 0)
(8.43407 0.340211 0)
(8.35781 0.373446 0)
(8.27395 0.407769 0)
(8.18223 0.438214 0)
(8.08361 0.462515 0)
(7.97969 0.480785 0)
(7.8719 0.494459 0)
(7.76126 0.505212 0)
(7.64845 0.514384 0)
(7.53376 0.522846 0)
(7.41732 0.531081 0)
(7.29912 0.539287 0)
(7.17915 0.547576 0)
(7.05739 0.55599 0)
(6.93382 0.564528 0)
(6.80841 0.573197 0)
(6.68109 0.582007 0)
(6.55186 0.590962 0)
(6.42072 0.600042 0)
(6.28759 0.609254 0)
(6.15246 0.618583 0)
(6.01535 0.628014 0)
(5.87619 0.637542 0)
(5.73498 0.647155 0)
(5.59174 0.656819 0)
(5.44641 0.666542 0)
(5.29898 0.676295 0)
(5.14946 0.686051 0)
(4.99788 0.695809 0)
(4.84422 0.70552 0)
(4.68846 0.715183 0)
(4.53062 0.724767 0)
(4.37069 0.734254 0)
(4.20868 0.743615 0)
(4.0446 0.752838 0)
(3.87844 0.7619 0)
(3.7102 0.770782 0)
(3.53988 0.779469 0)
(3.36742 0.787949 0)
(3.19285 0.796213 0)
(3.01612 0.804248 0)
(2.83719 0.812049 0)
(2.65604 0.819611 0)
(2.47262 0.826921 0)
(2.28689 0.833974 0)
(2.09884 0.840751 0)
(1.90842 0.847226 0)
(1.71564 0.853362 0)
(1.52055 0.859109 0)
(1.32321 0.864404 0)
(1.12375 0.869176 0)
(0.922335 0.873335 0)
(0.719228 0.876809 0)
(0.514665 0.879454 0)
(0.30916 0.881529 0)
(0.102677 0.880754 0)
(9.93075 -0.118761 0)
(9.92686 -0.026143 0)
(9.92593 0.00132436 0)
(9.9298 -0.0155909 0)
(9.9289 -0.0142321 0)
(9.92996 0.0233144 0)
(9.92784 0.0606654 0)
(9.92148 0.074677 0)
(9.91488 0.0748496 0)
(9.90523 0.0761725 0)
(9.88435 0.0827031 0)
(9.84888 0.093118 0)
(9.80793 0.107103 0)
(9.7777 0.122676 0)
(9.76679 0.134549 0)
(9.76814 0.139222 0)
(9.76577 0.139386 0)
(9.7494 0.141333 0)
(9.72231 0.147725 0)
(9.69587 0.155136 0)
(9.6765 0.15873 0)
(9.65883 0.158053 0)
(9.63099 0.157807 0)
(9.5863 0.164193 0)
(9.52991 0.181044 0)
(9.47463 0.207747 0)
(9.43025 0.238986 0)
(9.39668 0.266594 0)
(9.36572 0.283081 0)
(9.32895 0.285204 0)
(9.28446 0.27547 0)
(9.23697 0.260816 0)
(9.19224 0.249466 0)
(9.15112 0.248033 0)
(9.10845 0.259756 0)
(9.05702 0.28357 0)
(8.99324 0.314102 0)
(8.91973 0.343089 0)
(8.84332 0.362779 0)
(8.77065 0.369967 0)
(8.70466 0.368189 0)
(8.64389 0.366076 0)
(8.58385 0.372553 0)
(8.5198 0.392394 0)
(8.44852 0.424586 0)
(8.36889 0.463831 0)
(8.28139 0.503609 0)
(8.18724 0.538846 0)
(8.08767 0.567171 0)
(7.98383 0.588678 0)
(7.87653 0.604877 0)
(7.76642 0.617701 0)
(7.65398 0.628667 0)
(7.53947 0.638811 0)
(7.42303 0.64872 0)
(7.30473 0.658646 0)
(7.18462 0.668699 0)
(7.06266 0.678915 0)
(6.93882 0.689322 0)
(6.8131 0.699886 0)
(6.68543 0.710631 0)
(6.5558 0.721553 0)
(6.42419 0.732636 0)
(6.29051 0.743877 0)
(6.15476 0.755266 0)
(6.01694 0.766768 0)
(5.87697 0.7784 0)
(5.73484 0.790146 0)
(5.59054 0.801958 0)
(5.44409 0.813836 0)
(5.2954 0.825742 0)
(5.14447 0.83769 0)
(4.99134 0.849612 0)
(4.83598 0.861501 0)
(4.67841 0.873338 0)
(4.5186 0.885088 0)
(4.35658 0.89673 0)
(4.19236 0.908236 0)
(4.02596 0.919582 0)
(3.8574 0.930748 0)
(3.6867 0.94172 0)
(3.5139 0.952473 0)
(3.33903 0.963 0)
(3.16211 0.973293 0)
(2.9832 0.98334 0)
(2.80231 0.993138 0)
(2.6195 1.00268 0)
(2.43481 1.01195 0)
(2.2483 1.02097 0)
(2.06 1.02967 0)
(1.86999 1.03802 0)
(1.67832 1.046 0)
(1.48509 1.05351 0)
(1.29041 1.06049 0)
(1.09437 1.06679 0)
(0.897111 1.07232 0)
(0.698835 1.07697 0)
(0.499669 1.08053 0)
(0.299995 1.08329 0)
(0.0996073 1.08241 0)
(10.03 -0.0581636 0)
(9.98801 -0.0721762 0)
(9.97834 0.00430926 0)
(9.97264 0.0452259 0)
(9.95132 0.050705 0)
(9.93029 0.0445833 0)
(9.9194 0.0352238 0)
(9.91384 0.032112 0)
(9.90724 0.045873 0)
(9.89772 0.0778194 0)
(9.88452 0.114959 0)
(9.86568 0.139088 0)
(9.84145 0.140182 0)
(9.81669 0.123003 0)
(9.7972 0.103265 0)
(9.78352 0.0972228 0)
(9.76985 0.111156 0)
(9.74915 0.137677 0)
(9.71927 0.162849 0)
(9.68443 0.177941 0)
(9.65092 0.1857 0)
(9.62215 0.195935 0)
(9.59634 0.215463 0)
(9.56804 0.241808 0)
(9.53196 0.265517 0)
(9.48715 0.278321 0)
(9.43832 0.279717 0)
(9.39294 0.277026 0)
(9.35556 0.2794 0)
(9.32353 0.290351 0)
(9.28869 0.304859 0)
(9.24368 0.31425 0)
(9.18793 0.315236 0)
(9.12715 0.314641 0)
(9.06741 0.324647 0)
(9.00987 0.352116 0)
(8.95091 0.391744 0)
(8.88682 0.428792 0)
(8.81808 0.449107 0)
(8.74919 0.448428 0)
(8.6851 0.434892 0)
(8.62759 0.423573 0)
(8.57389 0.427615 0)
(8.5184 0.452043 0)
(8.4555 0.493141 0)
(8.38185 0.542345 0)
(8.29717 0.590932 0)
(8.20324 0.633147 0)
(8.10254 0.66683 0)
(7.99726 0.692542 0)
(7.88885 0.712205 0)
(7.77807 0.727951 0)
(7.6653 0.741446 0)
(7.55072 0.753831 0)
(7.43437 0.765791 0)
(7.31621 0.777674 0)
(7.19624 0.789626 0)
(7.07443 0.801729 0)
(6.95077 0.814025 0)
(6.82519 0.826541 0)
(6.69767 0.839258 0)
(6.56814 0.852174 0)
(6.43661 0.865296 0)
(6.30298 0.878607 0)
(6.16724 0.892105 0)
(6.02939 0.905749 0)
(5.88937 0.91954 0)
(5.74711 0.933482 0)
(5.60264 0.947523 0)
(5.45592 0.961637 0)
(5.30691 0.975802 0)
(5.15559 0.990016 0)
(5.00195 1.0042 0)
(4.84603 1.01838 0)
(4.68776 1.03249 0)
(4.52715 1.04651 0)
(4.36424 1.06042 0)
(4.199 1.07417 0)
(4.03146 1.08773 0)
(3.86164 1.1011 0)
(3.6896 1.11422 0)
(3.51535 1.12708 0)
(3.33895 1.13968 0)
(3.16043 1.15199 0)
(2.97991 1.164 0)
(2.79741 1.17567 0)
(2.61306 1.18703 0)
(2.42693 1.19804 0)
(2.23912 1.20869 0)
(2.04975 1.21894 0)
(1.85895 1.22876 0)
(1.66682 1.23809 0)
(1.47352 1.24685 0)
(1.27916 1.25493 0)
(1.08387 1.26224 0)
(0.88781 1.26861 0)
(0.691124 1.27397 0)
(0.493898 1.27804 0)
(0.296422 1.2812 0)
(0.0984073 1.28011 0)
(9.96861 0.135039 0)
(9.92598 0.0842805 0)
(9.92995 0.049547 0)
(9.95938 0.0234929 0)
(9.96936 0.0265129 0)
(9.95594 0.0493337 0)
(9.93658 0.0720892 0)
(9.91684 0.0834775 0)
(9.89169 0.0875044 0)
(9.86541 0.0950035 0)
(9.85151 0.111186 0)
(9.85553 0.133218 0)
(9.8658 0.15377 0)
(9.8633 0.165683 0)
(9.83868 0.167773 0)
(9.79888 0.16743 0)
(9.75787 0.175105 0)
(9.72324 0.193605 0)
(9.69246 0.214441 0)
(9.66006 0.225627 0)
(9.62561 0.223008 0)
(9.59414 0.21425 0)
(9.57039 0.212871 0)
(9.55324 0.228597 0)
(9.53639 0.26102 0)
(9.51375 0.299979 0)
(9.48383 0.331833 0)
(9.44969 0.348454 0)
(9.41501 0.352185 0)
(9.38042 0.352248 0)
(9.3427 0.355691 0)
(9.29704 0.361858 0)
(9.24074 0.366197 0)
(9.17579 0.368774 0)
(9.10795 0.377281 0)
(9.04343 0.400224 0)
(8.98559 0.436999 0)
(8.93392 0.475388 0)
(8.88511 0.499608 0)
(8.83525 0.50198 0)
(8.78137 0.488768 0)
(8.72201 0.476245 0)
(8.65683 0.480691 0)
(8.58564 0.509763 0)
(8.50785 0.560132 0)
(8.42266 0.621205 0)
(8.32984 0.681394 0)
(8.23021 0.73283 0)
(8.12529 0.772738 0)
(8.01676 0.802174 0)
(7.90593 0.824023 0)
(7.79345 0.841228 0)
(7.6796 0.856019 0)
(7.56441 0.869814 0)
(7.4478 0.883279 0)
(7.32961 0.896794 0)
(7.20973 0.910479 0)
(7.08809 0.924398 0)
(6.96464 0.938567 0)
(6.83929 0.953001 0)
(6.712 0.967672 0)
(6.58272 0.982609 0)
(6.4514 0.997793 0)
(6.31801 1.0132 0)
(6.18246 1.02882 0)
(6.04479 1.04464 0)
(5.90493 1.06065 0)
(5.76282 1.07681 0)
(5.61843 1.09311 0)
(5.47176 1.10952 0)
(5.32278 1.126 0)
(5.17144 1.14253 0)
(5.01772 1.15908 0)
(4.86166 1.17561 0)
(4.70321 1.19209 0)
(4.54236 1.20847 0)
(4.3791 1.22473 0)
(4.21346 1.24083 0)
(4.04545 1.25673 0)
(3.87508 1.27238 0)
(3.70237 1.28778 0)
(3.5274 1.30286 0)
(3.35018 1.31763 0)
(3.17078 1.33203 0)
(2.98929 1.34606 0)
(2.80579 1.35968 0)
(2.62037 1.37285 0)
(2.43316 1.38557 0)
(2.24427 1.39781 0)
(2.05385 1.40954 0)
(1.86204 1.42066 0)
(1.66899 1.43117 0)
(1.4749 1.44095 0)
(1.27987 1.44991 0)
(1.0841 1.45794 0)
(0.887698 1.4649 0)
(0.690838 1.47072 0)
(0.493582 1.47512 0)
(0.296188 1.47855 0)
(0.0983265 1.47719 0)
(9.89275 -0.130111 0)
(9.86318 -0.105996 0)
(9.93173 -0.060823 0)
(9.96017 -0.00488781 0)
(9.95008 0.0541483 0)
(9.92523 0.0795712 0)
(9.90822 0.0766319 0)
(9.90131 0.0799387 0)
(9.89209 0.101246 0)
(9.8728 0.122252 0)
(9.85038 0.128718 0)
(9.83612 0.127961 0)
(9.82993 0.134669 0)
(9.82048 0.15109 0)
(9.79861 0.16726 0)
(9.76747 0.176751 0)
(9.73951 0.185068 0)
(9.72481 0.200985 0)
(9.72277 0.223604 0)
(9.72357 0.242335 0)
(9.71604 0.249348 0)
(9.69427 0.249407 0)
(9.659 0.255531 0)
(9.61541 0.275952 0)
(9.57054 0.305945 0)
(9.53081 0.332265 0)
(9.49981 0.345093 0)
(9.47602 0.346637 0)
(9.45236 0.348757 0)
(9.41972 0.362257 0)
(9.37261 0.387631 0)
(9.31234 0.41544 0)
(9.24544 0.435552 0)
(9.17906 0.446418 0)
(9.11722 0.456027 0)
(9.06038 0.47369 0)
(9.00729 0.500914 0)
(8.95654 0.529516 0)
(8.90668 0.548418 0)
(8.8558 0.552885 0)
(8.80147 0.548556 0)
(8.74121 0.548079 0)
(8.67327 0.56356 0)
(8.59726 0.600438 0)
(8.51395 0.655571 0)
(8.42452 0.71984 0)
(8.33005 0.782901 0)
(8.2313 0.837198 0)
(8.12884 0.879785 0)
(8.02321 0.911522 0)
(7.91497 0.935218 0)
(7.80443 0.953995 0)
(7.69194 0.970246 0)
(7.57766 0.985515 0)
(7.46165 1.00053 0)
(7.34392 1.01569 0)
(7.22441 1.03109 0)
(7.10314 1.04682 0)
(6.98001 1.06284 0)
(6.85495 1.07918 0)
(6.72796 1.09583 0)
(6.59898 1.11278 0)
(6.46794 1.13003 0)
(6.33479 1.14755 0)
(6.19951 1.16531 0)
(6.06207 1.18334 0)
(5.92242 1.20157 0)
(5.78049 1.21999 0)
(5.63626 1.23857 0)
(5.48973 1.25731 0)
(5.34083 1.27614 0)
(5.18956 1.29503 0)
(5.03589 1.31399 0)
(4.87982 1.33292 0)
(4.7213 1.35181 0)
(4.56035 1.37062 0)
(4.39694 1.3893 0)
(4.2311 1.40781 0)
(4.06283 1.4261 0)
(3.89216 1.44414 0)
(3.71908 1.46186 0)
(3.54367 1.47925 0)
(3.36596 1.49626 0)
(3.186 1.51284 0)
(3.00388 1.52896 0)
(2.81968 1.54456 0)
(2.6335 1.55964 0)
(2.44546 1.57413 0)
(2.25569 1.58799 0)
(2.06435 1.60118 0)
(1.87157 1.61363 0)
(1.67753 1.62526 0)
(1.48241 1.63602 0)
(1.28635 1.64581 0)
(1.08955 1.65451 0)
(0.892125 1.662 0)
(0.694255 1.6682 0)
(0.496009 1.67287 0)
(0.297638 1.67654 0)
(0.0988106 1.67485 0)
(10.07 -0.0575645 0)
(10.0388 -0.0293966 0)
(9.97231 -0.00491708 0)
(9.92171 0.0281972 0)
(9.91524 0.0679325 0)
(9.92902 0.0944357 0)
(9.93333 0.0979323 0)
(9.92001 0.0972804 0)
(9.89974 0.11143 0)
(9.88577 0.13235 0)
(9.88009 0.144279 0)
(9.87401 0.150805 0)
(9.86076 0.167366 0)
(9.84216 0.196327 0)
(9.82356 0.22155 0)
(9.80614 0.228261 0)
(9.78669 0.219884 0)
(9.76351 0.212718 0)
(9.73898 0.218349 0)
(9.71558 0.235173 0)
(9.69187 0.254883 0)
(9.66416 0.273087 0)
(9.63118 0.292314 0)
(9.59566 0.316566 0)
(9.5609 0.344581 0)
(9.52727 0.369422 0)
(9.49238 0.385393 0)
(9.45403 0.395018 0)
(9.41192 0.407928 0)
(9.3662 0.431643 0)
(9.3162 0.462833 0)
(9.26163 0.488882 0)
(9.20473 0.499553 0)
(9.15013 0.497345 0)
(9.10149 0.496462 0)
(9.05811 0.510633 0)
(9.01511 0.541233 0)
(8.96681 0.576279 0)
(8.91079 0.600502 0)
(8.84904 0.607345 0)
(8.7856 0.603755 0)
(8.7228 0.605137 0)
(8.65949 0.625568 0)
(8.59222 0.670198 0)
(8.51776 0.734026 0)
(8.4348 0.806181 0)
(8.34389 0.875591 0)
(8.24657 0.934863 0)
(8.14445 0.98146 0)
(8.03879 1.01659 0)
(7.93046 1.04321 0)
(7.81995 1.06451 0)
(7.70755 1.08299 0)
(7.59344 1.10023 0)
(7.47764 1.11714 0)
(7.36016 1.13409 0)
(7.24096 1.1513 0)
(7.11999 1.16887 0)
(6.99718 1.18678 0)
(6.87248 1.20504 0)
(6.74581 1.22368 0)
(6.61715 1.24266 0)
(6.48641 1.26197 0)
(6.35356 1.28162 0)
(6.21857 1.30155 0)
(6.08137 1.32179 0)
(5.94195 1.34227 0)
(5.80023 1.36298 0)
(5.6562 1.3839 0)
(5.50981 1.40496 0)
(5.36103 1.42617 0)
(5.20984 1.44749 0)
(5.05622 1.46886 0)
(4.90015 1.49025 0)
(4.7416 1.5116 0)
(4.58056 1.53287 0)
(4.41703 1.55401 0)
(4.25102 1.57498 0)
(4.08253 1.59571 0)
(3.91157 1.61617 0)
(3.73818 1.6363 0)
(3.56239 1.65604 0)
(3.38423 1.67534 0)
(3.20378 1.69416 0)
(3.02111 1.71242 0)
(2.83629 1.7301 0)
(2.64944 1.74712 0)
(2.46064 1.76344 0)
(2.27006 1.77899 0)
(2.07782 1.7937 0)
(1.88406 1.80753 0)
(1.68897 1.82039 0)
(1.49273 1.83219 0)
(1.29548 1.84284 0)
(1.09739 1.85223 0)
(0.898647 1.86027 0)
(0.69939 1.8669 0)
(0.49971 1.87186 0)
(0.299874 1.87575 0)
(0.0995589 1.87377 0)
(9.96776 0.0856212 0)
(9.91102 0.0264174 0)
(9.90918 -0.00271521 0)
(9.89996 0.0213218 0)
(9.90548 0.0406164 0)
(9.92425 0.0558164 0)
(9.93326 0.0818788 0)
(9.91801 0.115649 0)
(9.89412 0.140226 0)
(9.88087 0.146702 0)
(9.8773 0.14468 0)
(9.8703 0.150313 0)
(9.85582 0.168 0)
(9.84318 0.188302 0)
(9.84001 0.202177 0)
(9.8409 0.211679 0)
(9.83305 0.22519 0)
(9.80952 0.245987 0)
(9.77481 0.268806 0)
(9.73823 0.286622 0)
(9.70479 0.298116 0)
(9.67319 0.308189 0)
(9.6404 0.323344 0)
(9.60559 0.346724 0)
(9.56891 0.375569 0)
(9.52896 0.402319 0)
(9.48373 0.419849 0)
(9.43424 0.428493 0)
(9.38555 0.437802 0)
(9.34311 0.458957 0)
(9.30743 0.492979 0)
(9.27292 0.527595 0)
(9.23178 0.547705 0)
(9.17969 0.550293 0)
(9.11828 0.548383 0)
(9.05288 0.559962 0)
(8.98856 0.591728 0)
(8.92772 0.633094 0)
(8.87067 0.665316 0)
(8.81721 0.677236 0)
(8.76688 0.674129 0)
(8.71802 0.67358 0)
(8.66712 0.693487 0)
(8.60967 0.741399 0)
(8.54198 0.812167 0)
(8.46259 0.892943 0)
(8.37233 0.97046 0)
(8.27359 1.03611 0)
(8.16902 1.08716 0)
(8.0608 1.12522 0)
(7.95036 1.15387 0)
(7.83847 1.17674 0)
(7.72537 1.19667 0)
(7.61102 1.21536 0)
(7.4953 1.23377 0)
(7.37807 1.25233 0)
(7.25921 1.27126 0)
(7.13863 1.29059 0)
(7.01621 1.31037 0)
(6.89191 1.33055 0)
(6.76563 1.35116 0)
(6.63732 1.37219 0)
(6.50695 1.3936 0)
(6.37443 1.41537 0)
(6.23974 1.43752 0)
(6.10287 1.45998 0)
(5.96371 1.48273 0)
(5.82222 1.50576 0)
(5.67838 1.52903 0)
(5.53215 1.55248 0)
(5.38354 1.57611 0)
(5.23244 1.59987 0)
(5.07887 1.62372 0)
(4.92281 1.64758 0)
(4.76421 1.67143 0)
(4.6031 1.69522 0)
(4.43943 1.71887 0)
(4.27323 1.74234 0)
(4.10449 1.76559 0)
(3.93325 1.78852 0)
(3.75949 1.8111 0)
(3.58328 1.83324 0)
(3.40466 1.85491 0)
(3.22368 1.87601 0)
(3.0404 1.89649 0)
(2.85493 1.91628 0)
(2.66734 1.93532 0)
(2.47775 1.95353 0)
(2.28628 1.97084 0)
(2.09306 1.98718 0)
(1.89827 2.00248 0)
(1.70205 2.01663 0)
(1.50457 2.02954 0)
(1.30598 2.04114 0)
(1.10648 2.05134 0)
(0.906219 2.06002 0)
(0.705372 2.06712 0)
(0.504036 2.07241 0)
(0.302493 2.07659 0)
(0.100437 2.07433 0)
(10.0762 -0.023651 0)
(10.0552 0.00988506 0)
(10.0178 0.0422184 0)
(9.98609 0.0530116 0)
(9.97152 0.0542462 0)
(9.96015 0.0735188 0)
(9.94311 0.106578 0)
(9.93229 0.133289 0)
(9.93413 0.143316 0)
(9.9402 0.144504 0)
(9.93936 0.151225 0)
(9.92671 0.16941 0)
(9.90501 0.193 0)
(9.87798 0.212536 0)
(9.84728 0.225546 0)
(9.81416 0.237488 0)
(9.78153 0.25386 0)
(9.7527 0.273769 0)
(9.72808 0.292565 0)
(9.70386 0.308172 0)
(9.67448 0.322686 0)
(9.63702 0.339361 0)
(9.59375 0.360431 0)
(9.55088 0.387345 0)
(9.51427 0.419725 0)
(9.48591 0.452768 0)
(9.46275 0.478335 0)
(9.43851 0.491749 0)
(9.40739 0.498047 0)
(9.36715 0.509033 0)
(9.31998 0.53238 0)
(9.27049 0.563937 0)
(9.22259 0.592204 0)
(9.17733 0.610487 0)
(9.13211 0.623418 0)
(9.08236 0.64118 0)
(9.02472 0.667793 0)
(8.95942 0.695738 0)
(8.89045 0.712345 0)
(8.82356 0.71202 0)
(8.76315 0.70334 0)
(8.71007 0.704883 0)
(8.66077 0.733556 0)
(8.60881 0.794724 0)
(8.54791 0.880444 0)
(8.47445 0.975294 0)
(8.38824 1.06423 0)
(8.29158 1.13803 0)
(8.18769 1.1942 0)
(8.07948 1.2352 0)
(7.96886 1.26553 0)
(7.85689 1.28954 0)
(7.74385 1.3105 0)
(7.62974 1.33034 0)
(7.5144 1.35009 0)
(7.39761 1.37018 0)
(7.27921 1.39078 0)
(7.15909 1.41189 0)
(7.03713 1.43352 0)
(6.91328 1.45564 0)
(6.78745 1.47826 0)
(6.65958 1.50134 0)
(6.5296 1.52487 0)
(6.39748 1.5488 0)
(6.26317 1.57314 0)
(6.1266 1.59788 0)
(5.98774 1.62293 0)
(5.84654 1.6483 0)
(5.70293 1.67396 0)
(5.55693 1.69984 0)
(5.40847 1.72593 0)
(5.25749 1.75217 0)
(5.10398 1.77853 0)
(4.94794 1.80493 0)
(4.78931 1.83133 0)
(4.6281 1.85768 0)
(4.46429 1.88391 0)
(4.29788 1.90995 0)
(4.12888 1.93574 0)
(3.9573 1.96121 0)
(3.78315 1.98629 0)
(3.60647 2.01091 0)
(3.42731 2.03499 0)
(3.24572 2.05845 0)
(3.06178 2.08122 0)
(2.87554 2.10321 0)
(2.68712 2.12433 0)
(2.49661 2.14452 0)
(2.30414 2.16369 0)
(2.10987 2.18172 0)
(1.91389 2.19856 0)
(1.7164 2.21411 0)
(1.51753 2.22825 0)
(1.31749 2.24092 0)
(1.11643 2.25199 0)
(0.914503 2.26138 0)
(0.711914 2.26906 0)
(0.508764 2.27474 0)
(0.305352 2.27923 0)
(0.101395 2.27673 0)
(9.9238 0.00733353 0)
(9.86177 0.00962335 0)
(9.88193 0.0326046 0)
(9.89464 0.0467921 0)
(9.90087 0.0587051 0)
(9.90969 0.0816619 0)
(9.91155 0.108614 0)
(9.89693 0.127375 0)
(9.87485 0.137493 0)
(9.8603 0.146599 0)
(9.85809 0.162118 0)
(9.86214 0.187024 0)
(9.8625 0.217503 0)
(9.85171 0.245286 0)
(9.8283 0.264164 0)
(9.7977 0.274961 0)
(9.76811 0.283864 0)
(9.74373 0.296451 0)
(9.72237 0.314477 0)
(9.69933 0.337075 0)
(9.67312 0.362271 0)
(9.64603 0.387348 0)
(9.61991 0.409516 0)
(9.59308 0.427578 0)
(9.56206 0.44253 0)
(9.52585 0.455927 0)
(9.48732 0.469048 0)
(9.4501 0.485054 0)
(9.41445 0.509731 0)
(9.37659 0.546546 0)
(9.33216 0.589802 0)
(9.28056 0.62515 0)
(9.22614 0.640885 0)
(9.17504 0.640416 0)
(9.1304 0.642334 0)
(9.08953 0.665599 0)
(9.04504 0.71262 0)
(8.98981 0.765616 0)
(8.92177 0.800222 0)
(8.84534 0.804353 0)
(8.76865 0.787889 0)
(8.69868 0.776503 0)
(8.63756 0.795307 0)
(8.58179 0.854624 0)
(8.52445 0.946616 0)
(8.459 1.05243 0)
(8.38194 1.15301 0)
(8.29336 1.23628 0)
(8.19565 1.29894 0)
(8.09176 1.3438 0)
(7.98406 1.37628 0)
(7.874 1.40166 0)
(7.76235 1.42373 0)
(7.64927 1.44478 0)
(7.53474 1.46589 0)
(7.41866 1.48751 0)
(7.3009 1.50977 0)
(7.18137 1.53267 0)
(7.05997 1.55618 0)
(6.93664 1.58026 0)
(6.81132 1.60488 0)
(6.68393 1.63005 0)
(6.55441 1.6557 0)
(6.42273 1.68183 0)
(6.28883 1.70841 0)
(6.15264 1.73542 0)
(6.01412 1.76281 0)
(5.87323 1.79057 0)
(5.72992 1.81864 0)
(5.58415 1.847 0)
(5.43587 1.87559 0)
(5.28505 1.90436 0)
(5.13164 1.93327 0)
(4.97562 1.96228 0)
(4.81699 1.99129 0)
(4.65568 2.02025 0)
(4.49173 2.04912 0)
(4.3251 2.07779 0)
(4.15581 2.1062 0)
(3.98386 2.13428 0)
(3.80928 2.16195 0)
(3.63208 2.18911 0)
(3.45233 2.21568 0)
(3.27005 2.24158 0)
(3.08534 2.2667 0)
(2.89825 2.29097 0)
(2.70888 2.31428 0)
(2.51734 2.33653 0)
(2.32374 2.35763 0)
(2.12824 2.37748 0)
(1.93095 2.39597 0)
(1.73203 2.41299 0)
(1.53164 2.42846 0)
(1.32998 2.44227 0)
(1.12718 2.45433 0)
(0.923454 2.46452 0)
(0.718971 2.47284 0)
(0.513857 2.479 0)
(0.308433 2.48385 0)
(0.102425 2.48112 0)
(9.92374 -0.14552 0)
(9.90555 -0.00870853 0)
(9.94902 0.0463258 0)
(9.96327 0.049647 0)
(9.95638 0.042811 0)
(9.9367 0.0673349 0)
(9.92787 0.122387 0)
(9.94061 0.167412 0)
(9.96032 0.174611 0)
(9.96483 0.156537 0)
(9.94737 0.145966 0)
(9.91819 0.162995 0)
(9.89205 0.203175 0)
(9.87251 0.248031 0)
(9.85009 0.281709 0)
(9.81479 0.300393 0)
(9.76877 0.310879 0)
(9.7247 0.322709 0)
(9.69272 0.340264 0)
(9.67158 0.360532 0)
(9.65315 0.378354 0)
(9.63206 0.393501 0)
(9.60882 0.41273 0)
(9.58507 0.443374 0)
(9.55839 0.484563 0)
(9.52351 0.525198 0)
(9.47842 0.552336 0)
(9.42774 0.563616 0)
(9.37965 0.571138 0)
(9.33949 0.591234 0)
(9.30569 0.62843 0)
(9.27135 0.670119 0)
(9.22976 0.698199 0)
(9.17907 0.70712 0)
(9.12292 0.710234 0)
(9.06716 0.728083 0)
(9.0151 0.768984 0)
(8.96532 0.820101 0)
(8.91343 0.857414 0)
(8.85559 0.865524 0)
(8.79102 0.850564 0)
(8.72236 0.836877 0)
(8.65355 0.851664 0)
(8.58688 0.909197 0)
(8.52126 1.00453 0)
(8.45291 1.11879 0)
(8.3779 1.23048 0)
(8.29414 1.32464 0)
(8.20189 1.39602 0)
(8.10279 1.44697 0)
(7.99881 1.48336 0)
(7.89146 1.5113 0)
(7.78171 1.53528 0)
(7.67001 1.55796 0)
(7.55654 1.58072 0)
(7.44135 1.60403 0)
(7.32435 1.62807 0)
(7.2055 1.65283 0)
(7.08473 1.67824 0)
(6.96199 1.70433 0)
(6.83725 1.731 0)
(6.71039 1.75825 0)
(6.58138 1.78606 0)
(6.4502 1.8144 0)
(6.31677 1.84325 0)
(6.18101 1.87256 0)
(6.04289 1.90234 0)
(5.90236 1.93252 0)
(5.75937 1.96305 0)
(5.61389 1.99392 0)
(5.46583 2.02507 0)
(5.31517 2.05643 0)
(5.16189 2.08796 0)
(5.00595 2.11961 0)
(4.8473 2.1513 0)
(4.68594 2.18295 0)
(4.52184 2.21452 0)
(4.35498 2.2459 0)
(4.18539 2.27701 0)
(4.01305 2.30777 0)
(3.83799 2.33811 0)
(3.66023 2.3679 0)
(3.47982 2.39705 0)
(3.2968 2.42548 0)
(3.11122 2.45306 0)
(2.92319 2.47968 0)
(2.73277 2.50527 0)
(2.54007 2.52968 0)
(2.34522 2.55283 0)
(2.14834 2.57457 0)
(1.94956 2.5948 0)
(1.74906 2.61342 0)
(1.54699 2.63031 0)
(1.34352 2.64538 0)
(1.13884 2.65852 0)
(0.933132 2.66961 0)
(0.726589 2.67864 0)
(0.51935 2.68532 0)
(0.311749 2.69057 0)
(0.103537 2.68764 0)
(10.0336 -0.0763349 0)
(10.0372 -0.0845459 0)