/*--------------------------------*- C++ -*----------------------------------*\
| =========                 |                                                 |
| \\      /  F ield         | OpenFOAM: The Open Source CFD Toolbox           |
|  \\    /   O peration     | Version:  4.1                                   |
|   \\  /    A nd           | Web:      www.OpenFOAM.org                      |
|    \\/     M anipulation  |                                                 |
\*---------------------------------------------------------------------------*/
FoamFile
{
    version     2.0;
    format      ascii;
    class       volVectorField;
    location    "0.101";
    object      U_0;
}
// * * * * * * * * * * * * * * * * * * * * * * * * * * * * * * * * * * * * * //

dimensions      [0 1 -1 0 0 0 0];

internalField   nonuniform List<vector> 
43750
(
(10.0567 0.0804578 0)
(10.032 0.0907781 0)
(9.9474 0.0713576 0)
(9.87859 0.0367896 0)
(9.85824 0.00444524 0)
(9.86509 -0.00573531 0)
(9.87733 0.00458277 0)
(9.8869 0.0156004 0)
(9.89065 0.0156579 0)
(9.88482 0.00748752 0)
(9.86573 -0.000873232 0)
(9.83418 -0.00382025 0)
(9.79893 -0.000577074 0)
(9.77122 0.00589999 0)
(9.75531 0.0128449 0)
(9.74432 0.0193522 0)
(9.72524 0.0243279 0)
(9.68999 0.0252839 0)
(9.64297 0.0201997 0)
(9.5962 0.0105601 0)
(9.55712 0.0020758 0)
(9.52298 0.00024268 0)
(9.48607 0.00456227 0)
(9.44288 0.00928753 0)
(9.3974 0.0102062 0)
(9.35545 0.0102173 0)
(9.31747 0.0165212 0)
(9.27765 0.0316186 0)
(9.23006 0.0486365 0)
(9.17496 0.056569 0)
(9.11824 0.050988 0)
(9.06458 0.0393344 0)
(9.01216 0.0348334 0)
(8.95397 0.0444778 0)
(8.88449 0.0625886 0)
(8.80555 0.07592 0)
(8.72512 0.0749631 0)
(8.65059 0.0619074 0)
(8.5826 0.0484959 0)
(8.51375 0.0464803 0)
(8.43279 0.0593414 0)
(8.33128 0.0807791 0)
(8.20826 0.0999569 0)
(8.0702 0.108804 0)
(7.92704 0.105905 0)
(7.78722 0.095203 0)
(7.65503 0.0823535 0)
(7.53075 0.0715892 0)
(7.41219 0.064564 0)
(7.2965 0.0610558 0)
(7.18132 0.0600079 0)
(7.06512 0.0603337 0)
(6.94718 0.0612576 0)
(6.82713 0.0624096 0)
(6.70486 0.0636404 0)
(6.58035 0.0648753 0)
(6.45362 0.0661318 0)
(6.32462 0.0673759 0)
(6.19335 0.0686423 0)
(6.05981 0.069905 0)
(5.92397 0.0711545 0)
(5.7858 0.0723945 0)
(5.64531 0.0736262 0)
(5.5025 0.0748194 0)
(5.35738 0.0759848 0)
(5.20996 0.0771137 0)
(5.06029 0.0781814 0)
(4.90836 0.0791622 0)
(4.75424 0.0800573 0)
(4.59804 0.0808668 0)
(4.43979 0.0815649 0)
(4.27962 0.0821341 0)
(4.11765 0.082558 0)
(3.95406 0.0828094 0)
(3.789 0.0828918 0)
(3.62267 0.0827656 0)
(3.45531 0.0824143 0)
(3.2872 0.0818179 0)
(3.11862 0.0809567 0)
(2.9499 0.0798095 0)
(2.7814 0.0783651 0)
(2.61348 0.0766107 0)
(2.44657 0.0745381 0)
(2.28108 0.0721478 0)
(2.11744 0.0694449 0)
(1.95607 0.0664505 0)
(1.79741 0.0631916 0)
(1.64182 0.0597069 0)
(1.48965 0.0560464 0)
(1.34121 0.0522755 0)
(1.19668 0.0484598 0)
(1.05622 0.0446844 0)
(0.919851 0.0410345 0)
(0.787479 0.0376003 0)
(0.658903 0.0344684 0)
(0.533797 0.0317206 0)
(0.411736 0.0294326 0)
(0.292146 0.0276434 0)
(0.174504 0.0263219 0)
(0.0579216 0.0258191 0)
(9.95284 0.124944 0)
(9.93102 0.0856301 0)
(9.95098 0.0546989 0)
(9.98312 0.0314615 0)
(9.98849 0.00906568 0)
(9.96509 -0.0129826 0)
(9.93911 -0.0273287 0)
(9.93111 -0.0287535 0)
(9.93573 -0.0135798 0)
(9.93633 0.0165375 0)
(9.92417 0.0503484 0)
(9.90194 0.0701485 0)
(9.87511 0.0642293 0)
(9.84793 0.0383994 0)
(9.82623 0.013685 0)
(9.81763 0.00969435 0)
(9.82541 0.0289604 0)
(9.84142 0.0563282 0)
(9.84748 0.0737752 0)
(9.82848 0.0758166 0)
(9.78558 0.0709861 0)
(9.73458 0.0700974 0)
(9.69077 0.0750784 0)
(9.65624 0.0796549 0)
(9.62183 0.0777639 0)
(9.57997 0.0697058 0)
(9.53396 0.0605983 0)
(9.49426 0.0548968 0)
(9.46676 0.0534389 0)
(9.44539 0.0550221 0)
(9.41713 0.0591447 0)
(9.3742 0.0660232 0)
(9.32151 0.0746487 0)
(9.27192 0.0820175 0)
(9.23433 0.0850567 0)
(9.20535 0.0833929 0)
(9.17178 0.0801317 0)
(9.12163 0.0802122 0)
(9.05391 0.0872214 0)
(8.97949 0.101584 0)
(8.91324 0.121008 0)
(8.8642 0.141607 0)
(8.831 0.159275 0)
(8.80426 0.171011 0)
(8.77223 0.17613 0)
(8.72602 0.176068 0)
(8.66214 0.173457 0)
(8.58167 0.170685 0)
(8.48825 0.169191 0)
(8.38604 0.169407 0)
(8.2783 0.171031 0)
(8.16706 0.173558 0)
(8.05345 0.176544 0)
(7.93795 0.1797 0)
(7.82065 0.182925 0)
(7.70156 0.186169 0)
(7.58066 0.189424 0)
(7.45791 0.192705 0)
(7.33325 0.196054 0)
(7.20661 0.199436 0)
(7.07795 0.202856 0)
(6.94722 0.206301 0)
(6.81431 0.209802 0)
(6.67921 0.213326 0)
(6.54187 0.21686 0)
(6.40219 0.220413 0)
(6.2601 0.223948 0)
(6.11553 0.227456 0)
(5.96845 0.230913 0)
(5.81881 0.234318 0)
(5.66651 0.237654 0)
(5.51149 0.240874 0)
(5.35371 0.24395 0)
(5.19314 0.246886 0)
(5.02974 0.249606 0)
(4.86342 0.252093 0)
(4.69418 0.254308 0)
(4.522 0.256209 0)
(4.34684 0.257751 0)
(4.16874 0.258894 0)
(3.98767 0.259599 0)
(3.80367 0.259826 0)
(3.61676 0.259546 0)
(3.42702 0.258734 0)
(3.23451 0.257368 0)
(3.0393 0.255449 0)
(2.84152 0.252984 0)
(2.64126 0.250006 0)
(2.43868 0.246562 0)
(2.23392 0.242721 0)
(2.02715 0.238567 0)
(1.81856 0.234216 0)
(1.60834 0.229791 0)
(1.39667 0.225434 0)
(1.18377 0.221292 0)
(0.969851 0.21752 0)
(0.755106 0.214277 0)
(0.539759 0.21167 0)
(0.323984 0.209916 0)
(0.107588 0.208677 0)
(10.0051 0.0412103 0)
(9.98803 0.0768398 0)
(10.0087 0.042113 0)
(10.0184 0.0136636 0)
(10.0019 0.0263092 0)
(9.97163 0.0446511 0)
(9.94565 0.0366799 0)
(9.92437 0.0167545 0)
(9.90167 0.0104936 0)
(9.87902 0.0212444 0)
(9.86585 0.0360207 0)
(9.86479 0.0464476 0)
(9.86297 0.0528845 0)
(9.84304 0.0539985 0)
(9.80195 0.0435562 0)
(9.7553 0.0214451 0)
(9.72247 0.00214192 0)
(9.71027 0.00458696 0)
(9.71072 0.0332272 0)
(9.71007 0.0714894 0)
(9.69951 0.0956118 0)
(9.67932 0.095878 0)
(9.65466 0.0837947 0)
(9.62881 0.0781176 0)
(9.59935 0.0858295 0)
(9.56023 0.0981568 0)
(9.50738 0.103351 0)
(9.44245 0.100458 0)
(9.37244 0.0990322 0)
(9.30607 0.10733 0)
(9.24974 0.123099 0)
(9.20521 0.136181 0)
(9.16971 0.138912 0)
(9.13715 0.133663 0)
(9.10001 0.130822 0)
(9.05198 0.139431 0)
(8.99069 0.159276 0)
(8.91915 0.180815 0)
(8.84476 0.192604 0)
(8.77583 0.190058 0)
(8.71763 0.178152 0)
(8.67052 0.166617 0)
(8.63035 0.163272 0)
(8.59025 0.170592 0)
(8.54323 0.186507 0)
(8.48433 0.206857 0)
(8.41174 0.227579 0)
(8.32655 0.24575 0)
(8.23148 0.260146 0)
(8.12954 0.270866 0)
(8.02309 0.278738 0)
(7.9138 0.28482 0)
(7.80255 0.289995 0)
(7.68967 0.294804 0)
(7.57531 0.299509 0)
(7.45941 0.304292 0)
(7.34196 0.309149 0)
(7.22293 0.314111 0)
(7.10227 0.319174 0)
(6.97991 0.324339 0)
(6.85587 0.329603 0)
(6.73007 0.334946 0)
(6.60251 0.340393 0)
(6.47313 0.345943 0)
(6.3419 0.351553 0)
(6.2088 0.357252 0)
(6.07377 0.363014 0)
(5.93676 0.368822 0)
(5.79773 0.374699 0)
(5.65669 0.380584 0)
(5.51354 0.386486 0)
(5.36818 0.392366 0)
(5.22066 0.3982 0)
(5.07088 0.40399 0)
(4.91872 0.409666 0)
(4.76417 0.415216 0)
(4.60712 0.420603 0)
(4.44749 0.425788 0)
(4.28518 0.430728 0)
(4.12009 0.435388 0)
(3.9521 0.439721 0)
(3.78111 0.443695 0)
(3.60698 0.447269 0)
(3.42956 0.450413 0)
(3.24877 0.453105 0)
(3.06445 0.455324 0)
(2.8765 0.457062 0)
(2.68481 0.458324 0)
(2.48932 0.459131 0)
(2.28998 0.459507 0)
(2.08677 0.459501 0)
(1.87974 0.459167 0)
(1.66901 0.458571 0)
(1.45473 0.457788 0)
(1.23715 0.456894 0)
(1.0166 0.455974 0)
(0.793474 0.455113 0)
(0.568224 0.454352 0)
(0.341487 0.454001 0)
(0.113452 0.452949 0)
(9.96912 0.0580109 0)
(9.96142 0.0435301 0)
(9.97205 0.0198767 0)
(9.96108 0.0295352 0)
(9.94845 0.0497453 0)
(9.94722 0.0434971 0)
(9.95199 0.0213499 0)
(9.95457 0.0153203 0)
(9.94901 0.0311582 0)
(9.9377 0.0504588 0)
(9.92604 0.0615203 0)
(9.91775 0.0707109 0)
(9.9116 0.0853864 0)
(9.9022 0.0993636 0)
(9.88319 0.100715 0)
(9.85084 0.0880375 0)
(9.80681 0.0728138 0)
(9.75825 0.0673054 0)
(9.71369 0.0742721 0)
(9.67756 0.0880335 0)
(9.64803 0.102343 0)
(9.61999 0.114595 0)
(9.59008 0.125012 0)
(9.55843 0.13495 0)
(9.52571 0.146514 0)
(9.48947 0.161168 0)
(9.4453 0.17699 0)
(9.39201 0.188011 0)
(9.33451 0.188198 0)
(9.28012 0.176702 0)
(9.23259 0.159308 0)
(9.18983 0.145021 0)
(9.14674 0.14107 0)
(9.10014 0.149862 0)
(9.05083 0.168788 0)
(9.00162 0.191903 0)
(8.95405 0.212352 0)
(8.90687 0.224974 0)
(8.85689 0.228437 0)
(8.80149 0.225867 0)
(8.74041 0.223122 0)
(8.67551 0.225818 0)
(8.60845 0.236927 0)
(8.53919 0.256136 0)
(8.46594 0.280591 0)
(8.38666 0.306509 0)
(8.30029 0.330524 0)
(8.20707 0.350669 0)
(8.10806 0.366423 0)
(8.00456 0.37834 0)
(7.89764 0.387547 0)
(7.78807 0.395109 0)
(7.67634 0.401832 0)
(7.56265 0.408231 0)
(7.44718 0.414562 0)
(7.32995 0.420952 0)
(7.21098 0.42745 0)
(7.09028 0.434052 0)
(6.96784 0.440751 0)
(6.84363 0.44759 0)
(6.71766 0.454544 0)
(6.58989 0.4616 0)
(6.46031 0.468761 0)
(6.32884 0.476037 0)
(6.19555 0.483404 0)
(6.0604 0.49086 0)
(5.92332 0.498392 0)
(5.78432 0.505969 0)
(5.6434 0.51363 0)
(5.50055 0.52132 0)
(5.35573 0.529021 0)
(5.2089 0.536716 0)
(5.06011 0.544404 0)
(4.90933 0.552034 0)
(4.7565 0.559618 0)
(4.60161 0.567111 0)
(4.44463 0.57449 0)
(4.28553 0.58173 0)
(4.12425 0.58881 0)
(3.96073 0.595697 0)
(3.79493 0.602367 0)
(3.62675 0.608798 0)
(3.45609 0.614962 0)
(3.28287 0.62084 0)
(3.10697 0.626414 0)
(2.92827 0.631669 0)
(2.74664 0.636592 0)
(2.56198 0.641178 0)
(2.37416 0.645417 0)
(2.18308 0.64931 0)
(1.98869 0.652858 0)
(1.79096 0.65606 0)
(1.58993 0.658919 0)
(1.3857 0.66143 0)
(1.17841 0.663602 0)
(0.968336 0.665423 0)
(0.755834 0.666891 0)
(0.541266 0.667961 0)
(0.325297 0.668892 0)
(0.10807 0.667989 0)
(9.89328 -0.0319012 0)
(9.88882 0.0114092 0)
(9.91399 0.0389108 0)
(9.92998 0.0488062 0)
(9.96411 0.0499474 0)
(9.9886 0.0423368 0)
(9.9786 0.0271791 0)
(9.94549 0.0190431 0)
(9.91445 0.0290159 0)
(9.89484 0.0472527 0)
(9.88078 0.0588909 0)
(9.86629 0.0632204 0)
(9.85188 0.0700957 0)
(9.83884 0.0835336 0)
(9.82353 0.0959591 0)
(9.80045 0.0990048 0)
(9.76831 0.095577 0)
(9.7306 0.0977888 0)
(9.69192 0.113247 0)
(9.65551 0.136045 0)
(9.62363 0.152238 0)
(9.59799 0.153542 0)
(9.5788 0.145547 0)
(9.56343 0.142694 0)
(9.54742 0.155026 0)
(9.52652 0.179158 0)
(9.49817 0.201917 0)
(9.4615 0.212699 0)
(9.41656 0.212249 0)
(9.36403 0.210047 0)
(9.30599 0.213933 0)
(9.24603 0.222832 0)
(9.1882 0.229818 0)
(9.13531 0.231065 0)
(9.08746 0.230752 0)
(9.04173 0.237292 0)
(8.99338 0.254963 0)
(8.9378 0.279231 0)
(8.87294 0.299891 0)
(8.8007 0.309075 0)
(8.72567 0.306957 0)
(8.65219 0.301314 0)
(8.58186 0.302059 0)
(8.513 0.31534 0)
(8.44208 0.341061 0)
(8.36563 0.374296 0)
(8.28159 0.408596 0)
(8.18968 0.439004 0)
(8.09089 0.463263 0)
(7.98681 0.481497 0)
(7.87886 0.495142 0)
(7.76808 0.505874 0)
(7.65513 0.51503 0)
(7.54029 0.52348 0)
(7.42371 0.531704 0)
(7.30538 0.539902 0)
(7.18528 0.548184 0)
(7.06337 0.556591 0)
(6.93968 0.565124 0)
(6.81414 0.573788 0)
(6.68669 0.582595 0)
(6.55733 0.591547 0)
(6.42606 0.600625 0)
(6.2928 0.609836 0)
(6.15754 0.619165 0)
(6.0203 0.628595 0)
(5.88101 0.638123 0)
(5.73967 0.647737 0)
(5.5963 0.657404 0)
(5.45084 0.667129 0)
(5.30327 0.676884 0)
(5.15363 0.686643 0)
(5.00192 0.696405 0)
(4.84812 0.70612 0)
(4.69223 0.715787 0)
(4.53425 0.725376 0)
(4.37419 0.734868 0)
(4.21204 0.744234 0)
(4.04782 0.753462 0)
(3.88152 0.76253 0)
(3.71314 0.771417 0)
(3.54267 0.78011 0)
(3.37007 0.788595 0)
(3.19536 0.796865 0)
(3.01848 0.804906 0)
(2.8394 0.812713 0)
(2.6581 0.820279 0)
(2.47453 0.827595 0)
(2.28865 0.834653 0)
(2.10045 0.841434 0)
(1.90987 0.847914 0)
(1.71694 0.854053 0)
(1.52169 0.859804 0)
(1.3242 0.865102 0)
(1.12459 0.869876 0)
(0.923023 0.874037 0)
(0.719763 0.877513 0)
(0.515047 0.88016 0)
(0.309389 0.882235 0)
(0.102754 0.881461 0)
(9.93993 -0.12545 0)
(9.95055 -0.0295833 0)
(9.95503 0.000411092 0)
(9.95973 -0.0142577 0)
(9.95773 -0.0113466 0)
(9.95708 0.0272019 0)
(9.95327 0.0650038 0)
(9.94541 0.0791568 0)
(9.93752 0.0793541 0)
(9.92672 0.0806298 0)
(9.90477 0.0870406 0)
(9.86835 0.0972848 0)
(9.82662 0.111071 0)
(9.79573 0.126421 0)
(9.78425 0.138051 0)
(9.78501 0.142487 0)
(9.78203 0.142448 0)
(9.76508 0.14423 0)
(9.73748 0.150468 0)
(9.7106 0.157717 0)
(9.69082 0.161146 0)
(9.67272 0.160327 0)
(9.64443 0.159977 0)
(9.5993 0.166295 0)
(9.54255 0.183092 0)
(9.48696 0.209735 0)
(9.44232 0.240886 0)
(9.40848 0.268376 0)
(9.37722 0.284726 0)
(9.34014 0.286715 0)
(9.29536 0.276875 0)
(9.24763 0.262155 0)
(9.20267 0.250777 0)
(9.16132 0.249343 0)
(9.1184 0.261075 0)
(9.06671 0.284887 0)
(9.00266 0.315387 0)
(8.92892 0.344309 0)
(8.85232 0.363908 0)
(8.77949 0.371008 0)
(8.71335 0.369172 0)
(8.65242 0.367044 0)
(8.59221 0.37354 0)
(8.52796 0.393411 0)
(8.45649 0.425622 0)
(8.37668 0.464861 0)
(8.28899 0.504609 0)
(8.19466 0.539802 0)
(8.09493 0.568079 0)
(7.99093 0.589543 0)
(7.88348 0.605708 0)
(7.77323 0.618507 0)
(7.66065 0.629454 0)
(7.54599 0.639582 0)
(7.42942 0.649479 0)
(7.31098 0.659395 0)
(7.19074 0.66944 0)
(7.06864 0.679648 0)
(6.94468 0.690049 0)
(6.81882 0.700608 0)
(6.69103 0.711348 0)
(6.56127 0.722267 0)
(6.42953 0.733348 0)
(6.29572 0.744587 0)
(6.15984 0.755976 0)
(6.0219 0.767477 0)
(5.88179 0.77911 0)
(5.73953 0.790858 0)
(5.59511 0.802672 0)
(5.44853 0.814552 0)
(5.2997 0.826462 0)
(5.14865 0.838414 0)
(4.99539 0.85034 0)
(4.8399 0.862235 0)
(4.68219 0.874077 0)
(4.52225 0.885832 0)
(4.36009 0.89748 0)
(4.19574 0.908993 0)
(4.0292 0.920345 0)
(3.8605 0.931519 0)
(3.68966 0.942497 0)
(3.51671 0.953257 0)
(3.3417 0.963791 0)
(3.16463 0.974091 0)
(2.98557 0.984145 0)
(2.80454 0.99395 0)
(2.62158 1.0035 0)
(2.43674 1.01278 0)
(2.25007 1.0218 0)
(2.06163 1.0305 0)
(1.87146 1.03886 0)
(1.67964 1.04684 0)
(1.48626 1.05436 0)
(1.29142 1.06135 0)
(1.09522 1.06765 0)
(0.897812 1.07318 0)
(0.69938 1.07783 0)
(0.500059 1.08139 0)
(0.300229 1.08415 0)
(0.0996853 1.08327 0)
(10.0579 -0.0721104 0)
(10.0385 -0.0730911 0)
(10.0188 0.00789679 0)
(10.0067 0.0496325 0)
(9.98144 0.0557428 0)
(9.95791 0.0501656 0)
(9.94508 0.0410782 0)
(9.93785 0.0380421 0)
(9.9298 0.0517522 0)
(9.91904 0.0835268 0)
(9.90477 0.120368 0)
(9.88499 0.144105 0)
(9.85994 0.144792 0)
(9.83447 0.127269 0)
(9.81436 0.107282 0)
(9.8001 0.101069 0)
(9.78587 0.114849 0)
(9.76462 0.141181 0)
(9.73423 0.166124 0)
(9.69894 0.180987 0)
(9.66502 0.188564 0)
(9.63588 0.198673 0)
(9.6097 0.218101 0)
(9.58101 0.244328 0)
(9.54456 0.267885 0)
(9.4994 0.280522 0)
(9.45026 0.281776 0)
(9.40461 0.27899 0)
(9.36698 0.281307 0)
(9.33469 0.292206 0)
(9.29956 0.306635 0)
(9.25426 0.315923 0)
(9.19823 0.316817 0)
(9.13721 0.316178 0)
(9.07725 0.326189 0)
(9.0195 0.353672 0)
(8.96033 0.393271 0)
(8.89602 0.430227 0)
(8.82708 0.450409 0)
(8.75802 0.449607 0)
(8.69378 0.436004 0)
(8.63611 0.424685 0)
(8.58225 0.428771 0)
(8.52658 0.453249 0)
(8.46348 0.494372 0)
(8.38963 0.543565 0)
(8.30476 0.592113 0)
(8.21065 0.634274 0)
(8.10978 0.6679 0)
(8.00434 0.693563 0)
(7.89578 0.713187 0)
(7.78486 0.728902 0)
(7.67194 0.742374 0)
(7.55723 0.754741 0)
(7.44074 0.766686 0)
(7.32245 0.778558 0)
(7.20235 0.790499 0)
(7.08041 0.802594 0)
(6.95662 0.814882 0)
(6.83091 0.827392 0)
(6.70326 0.840104 0)
(6.5736 0.853016 0)
(6.44194 0.866135 0)
(6.30819 0.879445 0)
(6.17232 0.892942 0)
(6.03434 0.906585 0)
(5.8942 0.920378 0)
(5.75181 0.934322 0)
(5.60722 0.948366 0)
(5.46036 0.962483 0)
(5.31123 0.976651 0)
(5.15978 0.99087 0)
(5.00601 1.00506 0)
(4.84995 1.01925 0)
(4.69155 1.03336 0)
(4.53081 1.04739 0)
(4.36776 1.0613 0)
(4.20238 1.07506 0)
(4.0347 1.08863 0)
(3.86475 1.10201 0)
(3.69257 1.11514 0)
(3.51818 1.12801 0)
(3.34163 1.14061 0)
(3.16297 1.15293 0)
(2.9823 1.16495 0)
(2.79966 1.17663 0)
(2.61515 1.18799 0)
(2.42887 1.19902 0)
(2.24092 1.20967 0)
(2.05139 1.21993 0)
(1.86044 1.22976 0)
(1.66816 1.23909 0)
(1.4747 1.24785 0)
(1.28018 1.25594 0)
(1.08474 1.26326 0)
(0.888521 1.26963 0)
(0.691677 1.27498 0)
(0.494294 1.27906 0)
(0.29666 1.28222 0)
(0.0984864 1.28113 0)
(9.9919 0.156536 0)
(9.96711 0.0890998 0)
(9.96442 0.0524571 0)
(9.99121 0.0292331 0)
(9.99952 0.0339736 0)
(9.98382 0.0573218 0)
(9.96222 0.079996 0)
(9.94058 0.0910356 0)
(9.91387 0.0946462 0)
(9.88634 0.101733 0)
(9.87145 0.117507 0)
(9.87463 0.139123 0)
(9.8841 0.159249 0)
(9.88081 0.170748 0)
(9.85547 0.172469 0)
(9.81505 0.171832 0)
(9.77354 0.179275 0)
(9.73845 0.197557 0)
(9.70723 0.218144 0)
(9.67439 0.229061 0)
(9.63954 0.226199 0)
(9.60772 0.217267 0)
(9.58364 0.215786 0)
(9.56616 0.231448 0)
(9.54897 0.263793 0)
(9.52598 0.302626 0)
(9.49574 0.33431 0)
(9.4613 0.350754 0)
(9.42634 0.354343 0)
(9.39148 0.354311 0)
(9.35348 0.357683 0)
(9.30754 0.363772 0)
(9.25096 0.368027 0)
(9.18575 0.370539 0)
(9.1177 0.379024 0)
(9.05299 0.401967 0)
(8.99498 0.438718 0)
(8.94315 0.477023 0)
(8.89415 0.501106 0)
(8.8441 0.503342 0)
(8.79002 0.490049 0)
(8.73048 0.477523 0)
(8.6651 0.482022 0)
(8.59372 0.51116 0)
(8.51574 0.561565 0)
(8.43037 0.622629 0)
(8.33737 0.682768 0)
(8.23757 0.734134 0)
(8.13249 0.77397 0)
(8.0238 0.803346 0)
(7.91283 0.825148 0)
(7.80021 0.842318 0)
(7.68622 0.857083 0)
(7.5709 0.870858 0)
(7.45416 0.884308 0)
(7.33584 0.89781 0)
(7.21583 0.911482 0)
(7.09406 0.925391 0)
(6.97048 0.939552 0)
(6.84501 0.953979 0)
(6.71758 0.968645 0)
(6.58818 0.983578 0)
(6.45674 0.998759 0)
(6.32321 1.01416 0)
(6.18755 1.02979 0)
(6.04975 1.04561 0)
(5.90976 1.06162 0)
(5.76752 1.07778 0)
(5.623 1.09408 0)
(5.47621 1.1105 0)
(5.3271 1.12698 0)
(5.17563 1.14351 0)
(5.02178 1.16007 0)
(4.86559 1.17661 0)
(4.70701 1.19309 0)
(4.54602 1.20949 0)
(4.38262 1.22575 0)
(4.21685 1.24186 0)
(4.0487 1.25777 0)
(3.8782 1.27343 0)
(3.70535 1.28884 0)
(3.53023 1.30393 0)
(3.35288 1.31871 0)
(3.17333 1.33312 0)
(2.99169 1.34716 0)
(2.80805 1.36079 0)
(2.62248 1.37397 0)
(2.43511 1.3867 0)
(2.24607 1.39895 0)
(2.0555 1.41068 0)
(1.86354 1.42181 0)
(1.67034 1.43232 0)
(1.47609 1.44211 0)
(1.2809 1.45107 0)
(1.08498 1.45911 0)
(0.888416 1.46607 0)
(0.691397 1.4719 0)
(0.493982 1.4763 0)
(0.296428 1.47973 0)
(0.0984065 1.47836 0)
(9.90625 -0.145039 0)
(9.89597 -0.104745 0)
(9.97321 -0.0526151 0)
(9.99865 0.00603569 0)
(9.98229 0.065486 0)
(9.95324 0.0903506 0)
(9.93353 0.0866491 0)
(9.9246 0.0892538 0)
(9.91378 0.109864 0)
(9.89318 0.130138 0)
(9.86974 0.135913 0)
(9.85466 0.13459 0)
(9.84773 0.140841 0)
(9.83759 0.156841 0)
(9.81507 0.172594 0)
(9.78338 0.181707 0)
(9.75497 0.189718 0)
(9.73988 0.205385 0)
(9.73746 0.227754 0)
(9.73784 0.246213 0)
(9.72987 0.252965 0)
(9.70767 0.252827 0)
(9.67199 0.258825 0)
(9.62805 0.279145 0)
(9.58287 0.309003 0)
(9.54287 0.335139 0)
(9.51161 0.347774 0)
(9.48756 0.349167 0)
(9.46362 0.351205 0)
(9.43066 0.364659 0)
(9.38324 0.389974 0)
(9.32268 0.417681 0)
(9.25553 0.437666 0)
(9.18895 0.448422 0)
(9.12692 0.457969 0)
(9.0699 0.475601 0)
(9.01663 0.502784 0)
(8.9657 0.531305 0)
(8.91565 0.550091 0)
(8.86458 0.554449 0)
(8.81005 0.550056 0)
(8.74961 0.549575 0)
(8.68147 0.565095 0)
(8.60526 0.60202 0)
(8.52177 0.657175 0)
(8.43218 0.721426 0)
(8.33754 0.784432 0)
(8.23863 0.838654 0)
(8.13602 0.881166 0)
(8.03025 0.912837 0)
(7.92186 0.936483 0)
(7.81118 0.955221 0)
(7.69855 0.971444 0)
(7.58414 0.986692 0)
(7.468 1.00169 0)
(7.35013 1.01683 0)
(7.2305 1.03222 0)
(7.1091 1.04794 0)
(6.98584 1.06395 0)
(6.86066 1.08029 0)
(6.73354 1.09693 0)
(6.60444 1.11387 0)
(6.47328 1.13112 0)
(6.34 1.14864 0)
(6.20459 1.1664 0)
(6.06702 1.18443 0)
(5.92725 1.20266 0)
(5.78519 1.22108 0)
(5.64084 1.23967 0)
(5.49418 1.25841 0)
(5.34516 1.27725 0)
(5.19376 1.29615 0)
(5.03996 1.31511 0)
(4.88375 1.33405 0)
(4.72511 1.35295 0)
(4.56402 1.37176 0)
(4.40048 1.39046 0)
(4.2345 1.40898 0)
(4.0661 1.42727 0)
(3.89529 1.44533 0)
(3.72207 1.46306 0)
(3.54652 1.48046 0)
(3.36866 1.49748 0)
(3.18856 1.51407 0)
(3.00629 1.5302 0)
(2.82194 1.54582 0)
(2.63562 1.56091 0)
(2.44743 1.5754 0)
(2.25751 1.58928 0)
(2.06601 1.60247 0)
(1.87308 1.61493 0)
(1.67888 1.62657 0)
(1.48361 1.63733 0)
(1.28739 1.64713 0)
(1.09044 1.65583 0)
(0.892849 1.66333 0)
(0.694819 1.66954 0)
(0.496411 1.6742 0)
(0.29788 1.67787 0)
(0.0988912 1.67619 0)
(10.1081 -0.0697056 0)
(10.1031 -0.0144612 0)
(10.0159 0.0149182 0)
(9.95643 0.0459858 0)
(9.94551 0.0836593 0)
(9.95595 0.108314 0)
(9.95757 0.110213 0)
(9.94226 0.108275 0)
(9.92052 0.121364 0)
(9.90544 0.141324 0)
(9.89884 0.152397 0)
(9.89196 0.158235 0)
(9.878 0.174256 0)
(9.8588 0.202724 0)
(9.83966 0.227436 0)
(9.82176 0.233659 0)
(9.80184 0.22489 0)
(9.77822 0.217445 0)
(9.75329 0.222855 0)
(9.72951 0.23946 0)
(9.70542 0.258941 0)
(9.67734 0.276932 0)
(9.64401 0.29598 0)
(9.60817 0.320077 0)
(9.57312 0.347931 0)
(9.5392 0.372591 0)
(9.50401 0.388383 0)
(9.46537 0.397868 0)
(9.42297 0.41069 0)
(9.37699 0.434336 0)
(9.32673 0.465427 0)
(9.27191 0.491326 0)
(9.21479 0.501832 0)
(9.16 0.499503 0)
(9.11118 0.498573 0)
(9.06762 0.512739 0)
(9.02441 0.543316 0)
(8.97589 0.57828 0)
(8.91965 0.602374 0)
(8.85771 0.609091 0)
(8.7941 0.605429 0)
(8.73114 0.606808 0)
(8.66767 0.627285 0)
(8.60022 0.671965 0)
(8.52558 0.735811 0)
(8.44244 0.80794 0)
(8.35136 0.877287 0)
(8.25388 0.936477 0)
(8.1516 0.982992 0)
(8.0458 1.01805 0)
(7.93733 1.04462 0)
(7.82668 1.06587 0)
(7.71414 1.08433 0)
(7.5999 1.10154 0)
(7.48397 1.11843 0)
(7.36636 1.13536 0)
(7.24704 1.15256 0)
(7.12594 1.17012 0)
(7.003 1.18801 0)
(6.87818 1.20627 0)
(6.75138 1.2249 0)
(6.6226 1.24388 0)
(6.49174 1.26318 0)
(6.35877 1.28283 0)
(6.22365 1.30277 0)
(6.08633 1.32301 0)
(5.94678 1.34349 0)
(5.80494 1.3642 0)
(5.66079 1.38512 0)
(5.51426 1.40619 0)
(5.36536 1.42741 0)
(5.21404 1.44873 0)
(5.0603 1.47011 0)
(4.9041 1.49151 0)
(4.74541 1.51287 0)
(4.58424 1.53415 0)
(4.42058 1.5553 0)
(4.25443 1.57629 0)
(4.08581 1.59703 0)
(3.91471 1.6175 0)
(3.74118 1.63764 0)
(3.56524 1.65739 0)
(3.38694 1.67671 0)
(3.20635 1.69554 0)
(3.02354 1.71382 0)
(2.83857 1.73151 0)
(2.65157 1.74854 0)
(2.46262 1.76487 0)
(2.27188 1.78043 0)
(2.07949 1.79515 0)
(1.88558 1.80898 0)
(1.69034 1.82186 0)
(1.49394 1.83366 0)
(1.29653 1.84432 0)
(1.09828 1.85371 0)
(0.899375 1.86176 0)
(0.699957 1.8684 0)
(0.500116 1.87335 0)
(0.300117 1.87725 0)
(0.0996401 1.87527 0)
(10.0075 0.141969 0)
(9.97542 0.0616917 0)
(9.9532 0.0254018 0)
(9.93424 0.0448514 0)
(9.93403 0.0603998 0)
(9.94918 0.0726062 0)
(9.95578 0.0963614 0)
(9.9388 0.128282 0)
(9.9137 0.151316 0)
(9.89955 0.156531 0)
(9.89522 0.153531 0)
(9.88754 0.158409 0)
(9.87247 0.175456 0)
(9.85935 0.195168 0)
(9.85575 0.208513 0)
(9.8562 0.217579 0)
(9.84787 0.230739 0)
(9.82389 0.251226 0)
(9.78878 0.273736 0)
(9.75185 0.291251 0)
(9.71809 0.302477 0)
(9.68615 0.312333 0)
(9.65305 0.327315 0)
(9.61792 0.350539 0)
(9.58094 0.379219 0)
(9.54068 0.405779 0)
(9.49517 0.423113 0)
(9.4454 0.431593 0)
(9.39648 0.440797 0)
(9.35383 0.461887 0)
(9.31794 0.495826 0)
(9.28319 0.530301 0)
(9.24179 0.550232 0)
(9.18945 0.552671 0)
(9.12781 0.55069 0)
(9.06221 0.562264 0)
(8.9977 0.594021 0)
(8.9367 0.635313 0)
(8.87948 0.667394 0)
(8.82587 0.679162 0)
(8.77538 0.675959 0)
(8.72637 0.675401 0)
(8.6753 0.69536 0)
(8.61766 0.743335 0)
(8.54979 0.81413 0)
(8.4702 0.89488 0)
(8.37976 0.972327 0)
(8.28085 1.03789 0)
(8.17613 1.08884 0)
(8.06777 1.12682 0)
(7.95719 1.15541 0)
(7.84517 1.17824 0)
(7.73194 1.19814 0)
(7.61746 1.2168 0)
(7.50161 1.23519 0)
(7.38426 1.25373 0)
(7.26527 1.27265 0)
(7.14457 1.29196 0)
(7.02202 1.31173 0)
(6.8976 1.33191 0)
(6.7712 1.35251 0)
(6.64277 1.37353 0)
(6.51227 1.39494 0)
(6.37964 1.41671 0)
(6.24483 1.43885 0)
(6.10783 1.46131 0)
(5.96855 1.48407 0)
(5.82693 1.5071 0)
(5.68297 1.53038 0)
(5.53662 1.55384 0)
(5.38788 1.57747 0)
(5.23665 1.60124 0)
(5.08296 1.6251 0)
(4.92677 1.64897 0)
(4.76803 1.67283 0)
(4.60679 1.69663 0)
(4.44299 1.7203 0)
(4.27666 1.74378 0)
(4.10778 1.76704 0)
(3.9364 1.78998 0)
(3.76251 1.81258 0)
(3.58615 1.83474 0)
(3.40739 1.85642 0)
(3.22626 1.87753 0)
(3.04284 1.89803 0)
(2.85722 1.91783 0)
(2.66948 1.93688 0)
(2.47974 1.95511 0)
(2.28812 1.97243 0)
(2.09474 1.98878 0)
(1.8998 2.00409 0)
(1.70342 2.01825 0)
(1.50578 2.03117 0)
(1.30704 2.04278 0)
(1.10738 2.05299 0)
(0.906952 2.06167 0)
(0.705943 2.06878 0)
(0.504445 2.07407 0)
(0.302738 2.07825 0)
(0.100519 2.07599 0)
(10.0949 0.0485368 0)
(10.0914 0.0615449 0)
(10.0494 0.0803517 0)
(10.0124 0.082311 0)
(9.995 0.0774333 0)
(9.98159 0.0925759 0)
(9.96309 0.122618 0)
(9.95127 0.147007 0)
(9.95235 0.155236 0)
(9.95777 0.155059 0)
(9.95633 0.160742 0)
(9.94313 0.17809 0)
(9.92096 0.200951 0)
(9.89349 0.219841 0)
(9.86239 0.232303 0)
(9.82888 0.243797 0)
(9.7959 0.259791 0)
(9.76675 0.279352 0)
(9.74181 0.29782 0)
(9.71725 0.313132 0)
(9.68752 0.327391 0)
(9.64972 0.343848 0)
(9.60614 0.364726 0)
(9.563 0.391468 0)
(9.52615 0.423677 0)
(9.49755 0.45653 0)
(9.47415 0.481887 0)
(9.44964 0.495103 0)
(9.41824 0.501252 0)
(9.37773 0.512148 0)
(9.33031 0.535422 0)
(9.28059 0.566874 0)
(9.2325 0.594998 0)
(9.18704 0.613136 0)
(9.14161 0.625967 0)
(9.09166 0.643671 0)
(9.0338 0.670225 0)
(8.96829 0.698068 0)
(8.89915 0.714533 0)
(8.8321 0.714072 0)
(8.77156 0.705323 0)
(8.71835 0.706881 0)
(8.6689 0.735625 0)
(8.61677 0.796866 0)
(8.55568 0.88261 0)
(8.48203 0.977423 0)
(8.39564 1.06628 0)
(8.2988 1.13997 0)
(8.19477 1.19603 0)
(8.0864 1.23694 0)
(7.97566 1.26721 0)
(7.86356 1.29117 0)
(7.75039 1.31209 0)
(7.63616 1.33191 0)
(7.52069 1.35163 0)
(7.40378 1.37171 0)
(7.28525 1.39228 0)
(7.16502 1.41338 0)
(7.04294 1.43501 0)
(6.91897 1.45712 0)
(6.79301 1.47972 0)
(6.66502 1.5028 0)
(6.53493 1.52632 0)
(6.40268 1.55026 0)
(6.26825 1.5746 0)
(6.13156 1.59933 0)
(5.99258 1.62439 0)
(5.85126 1.64977 0)
(5.70753 1.67543 0)
(5.5614 1.70132 0)
(5.41281 1.72742 0)
(5.26171 1.75367 0)
(5.10808 1.78004 0)
(4.95191 1.80644 0)
(4.79315 1.83286 0)
(4.6318 1.85922 0)
(4.46787 1.88547 0)
(4.30132 1.91152 0)
(4.13219 1.93733 0)
(3.96046 1.96282 0)
(3.78617 1.98791 0)
(3.60936 2.01254 0)
(3.43005 2.03664 0)
(3.24832 2.06012 0)
(3.06423 2.0829 0)
(2.87784 2.10491 0)
(2.68927 2.12605 0)
(2.49861 2.14625 0)
(2.30599 2.16543 0)
(2.11156 2.18348 0)
(1.91543 2.20033 0)
(1.71778 2.21589 0)
(1.51876 2.23004 0)
(1.31855 2.24272 0)
(1.11733 2.2538 0)
(0.915241 2.26319 0)
(0.71249 2.27088 0)
(0.509175 2.27657 0)
(0.305599 2.28106 0)
(0.101478 2.27856 0)
(9.94293 0.0939271 0)
(9.89174 0.0680004 0)
(9.90386 0.0746266 0)
(9.91411 0.0783799 0)
(9.91905 0.0834545 0)
(9.92731 0.10176 0)
(9.92875 0.12539 0)
(9.91374 0.141682 0)
(9.89134 0.149946 0)
(9.87654 0.157649 0)
(9.87407 0.172084 0)
(9.87783 0.196118 0)
(9.87785 0.225855 0)
(9.86669 0.252979 0)
(9.84292 0.271278 0)
(9.812 0.281585 0)
(9.78212 0.290085 0)
(9.75746 0.302333 0)
(9.73581 0.320062 0)
(9.71246 0.342386 0)
(9.68594 0.367323 0)
(9.65857 0.392149 0)
(9.63218 0.414074 0)
(9.60507 0.43191 0)
(9.57376 0.446657 0)
(9.53728 0.459868 0)
(9.49849 0.472825 0)
(9.46103 0.488698 0)
(9.42515 0.513275 0)
(9.38705 0.549997 0)
(9.34236 0.593121 0)
(9.29053 0.62828 0)
(9.2359 0.643809 0)
(9.18463 0.643189 0)
(9.13982 0.645053 0)
(9.09877 0.668327 0)
(9.05407 0.715329 0)
(8.99862 0.768217 0)
(8.93037 0.802631 0)
(8.85376 0.806567 0)
(8.77692 0.789989 0)
(8.70683 0.778609 0)
(8.6456 0.797502 0)
(8.58968 0.856919 0)
(8.53218 0.948959 0)
(8.46655 1.05475 0)
(8.38932 1.15522 0)
(8.30056 1.23838 0)
(8.2027 1.30092 0)
(8.09867 1.34568 0)
(7.99083 1.37808 0)
(7.88065 1.40341 0)
(7.76886 1.42544 0)
(7.65566 1.44646 0)
(7.54101 1.46755 0)
(7.42482 1.48916 0)
(7.30693 1.5114 0)
(7.18728 1.53428 0)
(7.06577 1.55778 0)
(6.94231 1.58186 0)
(6.81688 1.60647 0)
(6.68937 1.63163 0)
(6.55973 1.65728 0)
(6.42793 1.68341 0)
(6.29392 1.70999 0)
(6.15761 1.737 0)
(6.01896 1.7644 0)
(5.87796 1.79216 0)
(5.73452 1.82023 0)
(5.58863 1.8486 0)
(5.44023 1.8772 0)
(5.28928 1.90599 0)
(5.13574 1.93491 0)
(4.9796 1.96392 0)
(4.82084 1.99295 0)
(4.6594 2.02193 0)
(4.49532 2.05081 0)
(4.32856 2.0795 0)
(4.15913 2.10793 0)
(3.98705 2.13603 0)
(3.81232 2.16371 0)
(3.63499 2.19089 0)
(3.45509 2.21748 0)
(3.27267 2.2434 0)
(3.08781 2.26854 0)
(2.90057 2.29282 0)
(2.71105 2.31615 0)
(2.51936 2.33841 0)
(2.32561 2.35953 0)
(2.12995 2.37939 0)
(1.9325 2.39789 0)
(1.73342 2.41493 0)
(1.53287 2.43041 0)
(1.33105 2.44423 0)
(1.12809 2.4563 0)
(0.924199 2.4665 0)
(0.719551 2.47482 0)
(0.514272 2.48099 0)
(0.308682 2.48584 0)
(0.102508 2.48312 0)
(9.91551 -0.0377207 0)
(9.89774 0.0565874 0)
(9.95406 0.0887728 0)
(9.97247 0.0804653 0)
(9.9683 0.0669384 0)
(9.95012 0.08719 0)
(9.9422 0.139181 0)
(9.95545 0.181793 0)
(9.97534 0.187083 0)
(9.97982 0.167601 0)
(9.96222 0.15604 0)
(9.93289 0.172321 0)
(9.90662 0.211843 0)
(9.88689 0.256065 0)
(9.86421 0.289149 0)
(9.8286 0.307317 0)
(9.78231 0.317383 0)
(9.73801 0.328872 0)
(9.70582 0.346125 0)
(9.68445 0.366099 0)
(9.66576 0.383639 0)
(9.64438 0.398538 0)
(9.62088 0.417575 0)
(9.59686 0.448059 0)
(9.5699 0.489077 0)
(9.53474 0.529493 0)
(9.48937 0.556383 0)
(9.43846 0.567446 0)
(9.39016 0.574829 0)
(9.34982 0.594846 0)
(9.31582 0.631955 0)
(9.28127 0.673492 0)
(9.23945 0.701371 0)
(9.18853 0.710113 0)
(9.13218 0.713134 0)
(9.07625 0.730967 0)
(9.02404 0.771847 0)
(8.97409 0.822865 0)
(8.92203 0.859991 0)
(8.86401 0.867899 0)
(8.79926 0.852809 0)
(8.73045 0.839114 0)
(8.66149 0.853991 0)
(8.59469 0.911638 0)
(8.52892 1.00703 0)
(8.46042 1.12127 0)
(8.38524 1.23287 0)
(8.30132 1.3269 0)
(8.20892 1.39815 0)
(8.10968 1.44899 0)
(8.00556 1.4853 0)
(7.89808 1.51318 0)
(7.7882 1.53712 0)
(7.67638 1.55977 0)
(7.5628 1.5825 0)
(7.44748 1.60579 0)
(7.33037 1.62982 0)
(7.2114 1.65456 0)
(7.09051 1.67996 0)
(6.96765 1.70604 0)
(6.8428 1.7327 0)
(6.71583 1.75995 0)
(6.5867 1.78775 0)
(6.4554 1.8161 0)
(6.32185 1.84495 0)
(6.18597 1.87426 0)
(6.04774 1.90404 0)
(5.90709 1.93423 0)
(5.76398 1.96476 0)
(5.61838 1.99564 0)
(5.4702 2.0268 0)
(5.31941 2.05817 0)
(5.16601 2.08972 0)
(5.00995 2.12138 0)
(4.85116 2.15309 0)
(4.68967 2.18476 0)
(4.52544 2.21634 0)
(4.35845 2.24774 0)
(4.18873 2.27887 0)
(4.01625 2.30965 0)
(3.84106 2.34001 0)
(3.66315 2.36982 0)
(3.4826 2.39899 0)
(3.29944 2.42744 0)
(3.11371 2.45504 0)
(2.92553 2.48168 0)
(2.73496 2.50728 0)
(2.54211 2.53172 0)
(2.3471 2.55488 0)
(2.15006 2.57664 0)
(1.95113 2.59688 0)
(1.75046 2.61552 0)
(1.54823 2.63243 0)
(1.3446 2.64751 0)
(1.13976 2.66065 0)
(0.933884 2.67176 0)
(0.727175 2.68079 0)
(0.519769 2.68748 0)
(0.312 2.69273 0)
(0.10362 2.6898 0)
(10.008 -0.0563822 0)
(10.0016 -0.0527022 0)