/*--------------------------------*- C++ -*----------------------------------*\
| =========                 |                                                 |
| \\      /  F ield         | OpenFOAM: The Open Source CFD Toolbox           |
|  \\    /   O peration     | Version:  4.1                                   |
|   \\  /    A nd           | Web:      www.OpenFOAM.org                      |
|    \\/     M anipulation  |                                                 |
\*---------------------------------------------------------------------------*/
FoamFile
{
    version     2.0;
    format      ascii;
    class       volVectorField;
    location    "0.101";
    object      UMean;
}
// * * * * * * * * * * * * * * * * * * * * * * * * * * * * * * * * * * * * * //

dimensions      [0 1 -1 0 0 0 0];

internalField   nonuniform List<vector> 
43750
(
(9.92641 0.00265035 0)
(10.0022 0.00445379 0)
(9.95419 0.00415828 0)
(9.95612 0.00429137 0)
(9.94894 0.00553943 0)
(9.93528 0.00742286 0)
(9.91947 0.00918719 0)
(9.90189 0.0105795 0)
(9.88186 0.0118221 0)
(9.85912 0.0131774 0)
(9.83384 0.01472 0)
(9.80641 0.0163684 0)
(9.77709 0.018002 0)
(9.74581 0.0195445 0)
(9.71231 0.0209754 0)
(9.6763 0.0222875 0)
(9.63782 0.0234694 0)
(9.59713 0.0245564 0)
(9.55459 0.0256694 0)
(9.51029 0.0269611 0)
(9.46408 0.0284947 0)
(9.41575 0.0301731 0)
(9.36525 0.031824 0)
(9.31268 0.033369 0)
(9.2581 0.0348777 0)
(9.20145 0.0364421 0)
(9.14259 0.0380036 0)
(9.08139 0.0393507 0)
(9.01795 0.0403213 0)
(8.95244 0.0409984 0)
(8.8849 0.0416825 0)
(8.81525 0.0426376 0)
(8.74335 0.0438443 0)
(8.66917 0.0450071 0)
(8.59291 0.0458154 0)
(8.51479 0.0462248 0)
(8.43487 0.0465042 0)
(8.35305 0.0470179 0)
(8.26906 0.0479293 0)
(8.18275 0.0490706 0)
(8.0942 0.0500631 0)
(8.0038 0.0505706 0)
(7.91206 0.0505001 0)
(7.81946 0.0500273 0)
(7.72624 0.0494652 0)
(7.6324 0.0490935 0)
(7.53774 0.049059 0)
(7.44199 0.0493725 0)
(7.3449 0.049962 0)
(7.24626 0.0507351 0)
(7.14596 0.0516149 0)
(7.04389 0.0525526 0)
(6.94001 0.0535223 0)
(6.83426 0.0545131 0)
(6.72659 0.0555212 0)
(6.61697 0.0565442 0)
(6.50536 0.0575814 0)
(6.39173 0.0586307 0)
(6.27604 0.0596909 0)
(6.15824 0.06076 0)
(6.03833 0.0618359 0)
(5.91626 0.0629164 0)
(5.792 0.0639995 0)
(5.66556 0.0650825 0)
(5.53689 0.0661623 0)
(5.40602 0.0672352 0)
(5.27291 0.0682957 0)
(5.13759 0.0693376 0)
(5.00006 0.070352 0)
(4.86034 0.0713287 0)
(4.71845 0.0722594 0)
(4.57442 0.0731375 0)
(4.4283 0.073957 0)
(4.28014 0.0747118 0)
(4.13 0.0753951 0)
(3.97796 0.0759998 0)
(3.82412 0.0765188 0)
(3.66855 0.0769455 0)
(3.5114 0.0772737 0)
(3.35276 0.0774979 0)
(3.19276 0.0776133 0)
(3.03156 0.0776168 0)
(2.86931 0.0775066 0)
(2.70616 0.0772832 0)
(2.54227 0.0769493 0)
(2.3778 0.07651 0)
(2.21292 0.0759736 0)
(2.04777 0.0753511 0)
(1.88252 0.0746565 0)
(1.71728 0.0739068 0)
(1.55219 0.0731212 0)
(1.38734 0.0723213 0)
(1.2228 0.0715305 0)
(1.05864 0.0707721 0)
(0.894864 0.0700705 0)
(0.731481 0.0694471 0)
(0.568463 0.0689238 0)
(0.405752 0.0685073 0)
(0.243313 0.0681927 0)
(0.0809993 0.0680807 0)
(9.96015 0.00817667 0)
(10.04 0.00922051 0)
(9.99638 0.0107821 0)
(10.0017 0.0130226 0)
(9.99678 0.0158601 0)
(9.98557 0.0192529 0)
(9.97321 0.0230909 0)
(9.96017 0.0271715 0)
(9.94546 0.031204 0)
(9.92857 0.0348188 0)
(9.9096 0.0377574 0)
(9.88887 0.0401071 0)
(9.86655 0.0423308 0)
(9.84273 0.0449796 0)
(9.81736 0.0482767 0)
(9.79024 0.051945 0)
(9.76099 0.0554453 0)
(9.72927 0.0584118 0)
(9.69502 0.0609016 0)
(9.65863 0.06325 0)
(9.62067 0.0657242 0)
(9.58146 0.0683308 0)
(9.54094 0.0709237 0)
(9.49886 0.0734337 0)
(9.45506 0.0759597 0)
(9.40966 0.0786692 0)
(9.36277 0.0816486 0)
(9.31436 0.0848603 0)
(9.26413 0.0882111 0)
(9.21178 0.0916274 0)
(9.15728 0.0950622 0)
(9.10084 0.0984637 0)
(9.04274 0.101776 0)
(8.983 0.104982 0)
(8.92136 0.108143 0)
(8.85748 0.111373 0)
(8.7912 0.114763 0)
(8.72277 0.118305 0)
(8.65255 0.121886 0)
(8.5808 0.125326 0)
(8.50741 0.128456 0)
(8.43196 0.131172 0)
(8.35391 0.133473 0)
(8.27291 0.135455 0)
(8.18882 0.137278 0)
(8.10181 0.139103 0)
(8.01224 0.141049 0)
(7.92044 0.143168 0)
(7.82667 0.14546 0)
(7.73115 0.147901 0)
(7.63394 0.150455 0)
(7.53507 0.153101 0)
(7.4345 0.155823 0)
(7.3322 0.158613 0)
(7.22811 0.161468 0)
(7.12217 0.164389 0)
(7.01432 0.167375 0)
(6.90452 0.170424 0)
(6.7927 0.173535 0)
(6.67882 0.176704 0)
(6.5628 0.179931 0)
(6.44459 0.183209 0)
(6.32415 0.186537 0)
(6.20139 0.189908 0)
(6.0763 0.193317 0)
(5.94879 0.196759 0)
(5.81883 0.200224 0)
(5.68635 0.203705 0)
(5.55132 0.20719 0)
(5.41369 0.210666 0)
(5.27341 0.214122 0)
(5.13046 0.217548 0)
(4.98479 0.22093 0)
(4.83637 0.224258 0)
(4.68518 0.227515 0)
(4.53121 0.230686 0)
(4.37442 0.233757 0)
(4.21483 0.236709 0)
(4.05242 0.239528 0)
(3.88721 0.242196 0)
(3.71921 0.244698 0)
(3.54845 0.247018 0)
(3.37496 0.249144 0)
(3.19879 0.251064 0)
(3.02001 0.252768 0)
(2.83867 0.254253 0)
(2.65486 0.255514 0)
(2.46867 0.256556 0)
(2.28023 0.257383 0)
(2.08964 0.258009 0)
(1.89705 0.258449 0)
(1.70258 0.258724 0)
(1.50642 0.25886 0)
(1.30873 0.258882 0)
(1.10969 0.258821 0)
(0.909495 0.258706 0)
(0.708342 0.258568 0)
(0.506448 0.258427 0)
(0.304018 0.258352 0)
(0.101128 0.258003 0)
(9.93966 -0.000770073 0)
(10.0204 0.00575101 0)
(9.97565 0.0116907 0)
(9.97851 0.0178639 0)
(9.97132 0.0236426 0)
(9.95822 0.0286997 0)
(9.944 0.0335822 0)
(9.92897 0.0388229 0)
(9.91237 0.0443306 0)
(9.89384 0.0497326 0)
(9.87322 0.0548488 0)
(9.85034 0.0597467 0)
(9.82511 0.0645141 0)
(9.79777 0.0692091 0)
(9.76878 0.0740087 0)
(9.73845 0.0792195 0)
(9.70662 0.0849974 0)
(9.67287 0.0910709 0)
(9.63678 0.0968583 0)
(9.59824 0.101925 0)
(9.55737 0.106344 0)
(9.51436 0.1106 0)
(9.46936 0.115134 0)
(9.42238 0.119984 0)
(9.3734 0.124872 0)
(9.32255 0.129574 0)
(9.27007 0.134159 0)
(9.21621 0.138855 0)
(9.16117 0.14376 0)
(9.1049 0.148722 0)
(9.04722 0.153509 0)
(8.98784 0.158061 0)
(8.92648 0.162556 0)
(8.86299 0.167239 0)
(8.79733 0.172187 0)
(8.72963 0.177225 0)
(8.66013 0.18206 0)
(8.58907 0.186529 0)
(8.51657 0.190745 0)
(8.44255 0.195018 0)
(8.36677 0.199647 0)
(8.28892 0.204729 0)
(8.20868 0.210141 0)
(8.1259 0.215641 0)
(8.04055 0.220996 0)
(7.95276 0.226066 0)
(7.86277 0.230814 0)
(7.7708 0.235291 0)
(7.67703 0.239586 0)
(7.58159 0.243803 0)
(7.48453 0.248025 0)
(7.38585 0.252311 0)
(7.28553 0.256696 0)
(7.18353 0.261195 0)
(7.0798 0.265817 0)
(6.9743 0.27056 0)
(6.86697 0.275427 0)
(6.75778 0.280413 0)
(6.64667 0.285519 0)
(6.53359 0.29074 0)
(6.4185 0.296072 0)
(6.30136 0.301513 0)
(6.18213 0.307057 0)
(6.06075 0.312699 0)
(5.93719 0.318431 0)
(5.81141 0.324246 0)
(5.68337 0.330137 0)
(5.55303 0.336096 0)
(5.42035 0.342113 0)
(5.28531 0.34818 0)
(5.14786 0.354284 0)
(5.00797 0.360412 0)
(4.86563 0.36655 0)
(4.7208 0.372682 0)
(4.57345 0.378788 0)
(4.42356 0.384853 0)
(4.2711 0.390855 0)
(4.11608 0.396774 0)
(3.95846 0.402588 0)
(3.79823 0.408276 0)
(3.6354 0.413814 0)
(3.46995 0.419182 0)
(3.30189 0.424357 0)
(3.13123 0.429316 0)
(2.95797 0.434042 0)
(2.78215 0.438513 0)
(2.60379 0.442715 0)
(2.42295 0.446632 0)
(2.23969 0.450252 0)
(2.05407 0.453567 0)
(1.8662 0.456571 0)
(1.67619 0.459259 0)
(1.48416 0.461632 0)
(1.2903 0.463691 0)
(1.09476 0.465437 0)
(0.897764 0.466876 0)
(0.699535 0.468014 0)
(0.500312 0.468853 0)
(0.300403 0.469497 0)
(0.0999243 0.46918 0)
(9.95151 0.00661788 0)
(10.0249 0.0141371 0)
(9.97674 0.0219694 0)
(9.97927 0.0296093 0)
(9.9729 0.0365957 0)
(9.9603 0.0434596 0)
(9.94583 0.0508551 0)
(9.93 0.0586915 0)
(9.91231 0.0663988 0)
(9.89251 0.0736951 0)
(9.87054 0.0807277 0)
(9.84638 0.0876441 0)
(9.82005 0.0943618 0)
(9.79154 0.100784 0)
(9.76093 0.107073 0)
(9.72849 0.113564 0)
(9.69442 0.120459 0)
(9.65892 0.127659 0)
(9.62195 0.134907 0)
(9.58335 0.142001 0)
(9.54292 0.148882 0)
(9.50055 0.155581 0)
(9.45623 0.162145 0)
(9.40997 0.168606 0)
(9.36177 0.174961 0)
(9.31163 0.181155 0)
(9.25965 0.187131 0)
(9.20599 0.19292 0)
(9.15079 0.198705 0)
(9.09404 0.204762 0)
(9.03557 0.211308 0)
(8.97519 0.218381 0)
(8.91282 0.225826 0)
(8.84845 0.233378 0)
(8.78214 0.240777 0)
(8.71385 0.247864 0)
(8.64351 0.254623 0)
(8.57104 0.261186 0)
(8.49642 0.267762 0)
(8.41969 0.274538 0)
(8.34093 0.281594 0)
(8.26019 0.288866 0)
(8.17745 0.296189 0)
(8.0927 0.303368 0)
(8.00592 0.310252 0)
(7.91715 0.316777 0)
(7.82648 0.322964 0)
(7.73401 0.328901 0)
(7.63982 0.334699 0)
(7.54394 0.340466 0)
(7.44639 0.346288 0)
(7.34716 0.352218 0)
(7.24623 0.358292 0)
(7.14357 0.364523 0)
(7.03912 0.370917 0)
(6.93285 0.377477 0)
(6.82471 0.384202 0)
(6.71466 0.391088 0)
(6.60266 0.398133 0)
(6.48866 0.405333 0)
(6.37261 0.412684 0)
(6.25448 0.420181 0)
(6.13424 0.427816 0)
(6.01182 0.435584 0)
(5.88722 0.443475 0)
(5.76038 0.45148 0)
(5.63128 0.459589 0)
(5.49988 0.46779 0)
(5.36617 0.476073 0)
(5.23011 0.484422 0)
(5.09169 0.492823 0)
(4.95089 0.501256 0)
(4.80768 0.509708 0)
(4.66208 0.518156 0)
(4.51405 0.526582 0)
(4.3636 0.534966 0)
(4.21074 0.543287 0)
(4.05544 0.551521 0)
(3.89773 0.559647 0)
(3.73762 0.56764 0)
(3.57511 0.575474 0)
(3.41023 0.583128 0)
(3.24299 0.590574 0)
(3.07342 0.597787 0)
(2.90154 0.604743 0)
(2.7274 0.611417 0)
(2.55103 0.617784 0)
(2.3725 0.623822 0)
(2.19186 0.629504 0)
(2.00917 0.634812 0)
(1.82453 0.639721 0)
(1.63805 0.644212 0)
(1.44982 0.648263 0)
(1.26 0.651857 0)
(1.06873 0.654975 0)
(0.876197 0.657603 0)
(0.682592 0.659725 0)
(0.488113 0.661316 0)
(0.293054 0.662482 0)
(0.0974803 0.662123 0)
(9.93593 0.0102322 0)
(10.0181 0.0173412 0)
(9.97442 0.026396 0)
(9.97886 0.0356112 0)
(9.97294 0.0446295 0)
(9.96004 0.0536016 0)
(9.94533 0.0629364 0)
(9.92984 0.0727088 0)
(9.91299 0.0825403 0)
(9.89417 0.0920714 0)
(9.87316 0.101332 0)
(9.85006 0.110538 0)
(9.82493 0.119733 0)
(9.79776 0.128762 0)
(9.7685 0.137549 0)
(9.73722 0.146245 0)
(9.70413 0.155079 0)
(9.66932 0.164074 0)
(9.63289 0.172993 0)
(9.59477 0.181575 0)
(9.55489 0.189821 0)
(9.51311 0.19801 0)
(9.46927 0.20645 0)
(9.42321 0.215192 0)
(9.37488 0.22398 0)
(9.32428 0.232484 0)
(9.27154 0.240589 0)
(9.21676 0.248482 0)
(9.16009 0.256465 0)
(9.10169 0.264697 0)
(9.04165 0.27311 0)
(8.98001 0.281561 0)
(8.91673 0.290022 0)
(8.85169 0.298618 0)
(8.78472 0.307461 0)
(8.71569 0.316494 0)
(8.64455 0.325487 0)
(8.57135 0.334217 0)
(8.49623 0.342653 0)
(8.41932 0.351005 0)
(8.34067 0.359574 0)
(8.26025 0.368552 0)
(8.1779 0.377902 0)
(8.09351 0.387384 0)
(8.00701 0.396691 0)
(7.91842 0.40559 0)
(7.82784 0.413994 0)
(7.73538 0.421961 0)
(7.64115 0.429634 0)
(7.5452 0.437175 0)
(7.44758 0.444724 0)
(7.34827 0.452377 0)
(7.24725 0.460192 0)
(7.14448 0.468199 0)
(7.03991 0.476412 0)
(6.9335 0.484834 0)
(6.82519 0.493466 0)
(6.71494 0.502305 0)
(6.60271 0.51135 0)
(6.48844 0.520594 0)
(6.3721 0.530033 0)
(6.25363 0.539659 0)
(6.133 0.549465 0)
(6.01017 0.559441 0)
(5.88509 0.569578 0)
(5.75773 0.579864 0)
(5.62807 0.590285 0)
(5.49607 0.600826 0)
(5.3617 0.611475 0)
(5.22493 0.622211 0)
(5.08575 0.633017 0)
(4.94415 0.643873 0)
(4.8001 0.654758 0)
(4.65362 0.665649 0)
(4.50468 0.676523 0)
(4.35329 0.687355 0)
(4.19947 0.698118 0)
(4.04321 0.708787 0)
(3.88456 0.719333 0)
(3.72352 0.729726 0)
(3.56012 0.73994 0)
(3.39441 0.749944 0)
(3.22641 0.759708 0)
(3.05619 0.7692 0)
(2.88378 0.77839 0)
(2.70926 0.787249 0)
(2.53268 0.795743 0)
(2.35412 0.803841 0)
(2.17366 0.811511 0)
(1.99139 0.818721 0)
(1.80742 0.825435 0)
(1.62183 0.831618 0)
(1.43476 0.837238 0)
(1.24634 0.842256 0)
(1.05671 0.846639 0)
(0.866027 0.850352 0)
(0.674468 0.853368 0)
(0.482193 0.85564 0)
(0.289457 0.857291 0)
(0.0962796 0.85689 0)
(9.94115 0.00232285 0)
(10.0221 0.0175925 0)
(9.97752 0.0298627 0)
(9.98065 0.0424075 0)
(9.97399 0.0556413 0)
(9.9612 0.0683704 0)
(9.94685 0.0800837 0)
(9.9314 0.0912407 0)
(9.91414 0.102342 0)
(9.89468 0.113493 0)
(9.87311 0.124595 0)
(9.84978 0.135574 0)
(9.825 0.146375 0)
(9.7987 0.156947 0)
(9.77051 0.167316 0)
(9.74003 0.177617 0)
(9.70712 0.187997 0)
(9.67203 0.198485 0)
(9.63502 0.208999 0)
(9.59618 0.219477 0)
(9.55536 0.229967 0)
(9.51239 0.240582 0)
(9.46734 0.251383 0)
(9.42052 0.262305 0)
(9.37222 0.273173 0)
(9.32252 0.283767 0)
(9.27123 0.293924 0)
(9.21804 0.303631 0)
(9.16274 0.313055 0)
(9.10536 0.322497 0)
(9.04602 0.332268 0)
(8.98484 0.342569 0)
(8.92176 0.353425 0)
(8.85663 0.36469 0)
(8.78937 0.376105 0)
(8.72002 0.387389 0)
(8.6488 0.398335 0)
(8.57591 0.408893 0)
(8.50146 0.419205 0)
(8.42534 0.429544 0)
(8.34737 0.440176 0)
(8.26734 0.451216 0)
(8.18513 0.462562 0)
(8.1007 0.473953 0)
(8.01415 0.485083 0)
(7.92558 0.495735 0)
(7.83513 0.505839 0)
(7.74288 0.515467 0)
(7.6489 0.524778 0)
(7.55323 0.533956 0)
(7.45587 0.543156 0)
(7.3568 0.552493 0)
(7.256 0.562032 0)
(7.15344 0.571812 0)
(7.04908 0.581847 0)
(6.94285 0.592142 0)
(6.83472 0.602697 0)
(6.72464 0.613509 0)
(6.61256 0.624573 0)
(6.49844 0.635885 0)
(6.38221 0.647437 0)
(6.26385 0.65922 0)
(6.14331 0.671226 0)
(6.02052 0.683443 0)
(5.89547 0.695858 0)
(5.76813 0.708458 0)
(5.63842 0.721226 0)
(5.50635 0.734147 0)
(5.37187 0.7472 0)
(5.23495 0.760366 0)
(5.09558 0.77362 0)
(4.95373 0.786941 0)
(4.8094 0.800302 0)
(4.66256 0.813675 0)
(4.51324 0.827032 0)
(4.36139 0.840342 0)
(4.20707 0.853573 0)
(4.05027 0.866692 0)
(3.891 0.879664 0)
(3.72931 0.892454 0)
(3.56523 0.905025 0)
(3.39878 0.917342 0)
(3.23005 0.929365 0)
(3.05906 0.941059 0)
(2.8859 0.952384 0)
(2.71063 0.963302 0)
(2.53333 0.973775 0)
(2.3541 0.983763 0)
(2.17304 0.993226 0)
(1.99025 1.00212 0)
(1.80584 1.01041 0)
(1.61994 1.01805 0)
(1.43268 1.02499 0)
(1.2442 1.0312 0)
(1.05463 1.03663 0)
(0.864127 1.04123 0)
(0.672862 1.04497 0)
(0.480977 1.04778 0)
(0.288701 1.04983 0)
(0.0960263 1.04935 0)
(9.95305 0.00753897 0)
(10.0261 0.02402 0)
(9.9787 0.0382685 0)
(9.98167 0.0514716 0)
(9.97517 0.0647296 0)
(9.96251 0.0782422 0)
(9.94841 0.0919977 0)
(9.93326 0.105948 0)
(9.91627 0.119881 0)
(9.89703 0.133426 0)
(9.87554 0.146318 0)
(9.85201 0.158644 0)
(9.82667 0.170812 0)
(9.79957 0.183296 0)
(9.77065 0.196332 0)
(9.73972 0.209788 0)
(9.70665 0.223275 0)
(9.67152 0.236427 0)
(9.6345 0.249146 0)
(9.59572 0.261609 0)
(9.55521 0.274044 0)
(9.51284 0.286509 0)
(9.46849 0.298856 0)
(9.4221 0.310887 0)
(9.37379 0.322561 0)
(9.32373 0.334055 0)
(9.27205 0.345652 0)
(9.21873 0.357545 0)
(9.16356 0.369714 0)
(9.10635 0.381979 0)
(9.04702 0.394192 0)
(8.98569 0.406397 0)
(8.92257 0.418802 0)
(8.8578 0.43157 0)
(8.79135 0.444612 0)
(8.7231 0.457581 0)
(8.65296 0.470103 0)
(8.58099 0.48206 0)
(8.50726 0.493711 0)
(8.43181 0.505539 0)
(8.35451 0.517977 0)
(8.27518 0.531153 0)
(8.1936 0.544843 0)
(8.10968 0.558608 0)
(8.02345 0.572002 0)
(7.93506 0.58475 0)
(7.84472 0.596792 0)
(7.75257 0.608247 0)
(7.65872 0.619321 0)
(7.56322 0.630232 0)
(7.46609 0.641163 0)
(7.36728 0.652242 0)
(7.26676 0.66355 0)
(7.16449 0.675131 0)
(7.06041 0.687006 0)
(6.95448 0.699187 0)
(6.84664 0.711673 0)
(6.73684 0.724466 0)
(6.62504 0.73756 0)
(6.51118 0.750948 0)
(6.39522 0.764624 0)
(6.2771 0.778578 0)
(6.15678 0.792798 0)
(6.03423 0.807272 0)
(5.90939 0.821986 0)
(5.78221 0.836923 0)
(5.65267 0.852065 0)
(5.52074 0.867391 0)
(5.38636 0.88288 0)
(5.24952 0.898506 0)
(5.11019 0.914244 0)
(4.96836 0.930066 0)
(4.82399 0.945942 0)
(4.67709 0.961837 0)
(4.52763 0.977717 0)
(4.37563 0.993547 0)
(4.22108 1.00929 0)
(4.06401 1.0249 0)
(3.90442 1.04033 0)
(3.74235 1.05556 0)
(3.57783 1.07053 0)
(3.4109 1.08519 0)
(3.24162 1.09951 0)
(3.07003 1.11343 0)
(2.89622 1.1269 0)
(2.72027 1.13989 0)
(2.54226 1.15234 0)
(2.36229 1.16421 0)
(2.18047 1.17544 0)
(1.99691 1.18599 0)
(1.81174 1.19581 0)
(1.62509 1.20485 0)
(1.43711 1.21306 0)
(1.24792 1.22038 0)
(1.05769 1.22677 0)
(0.866569 1.23218 0)
(0.674716 1.23658 0)
(0.482276 1.23989 0)
(0.289472 1.24229 0)
(0.0962831 1.24171 0)
(9.96866 0.0132519 0)
(10.0472 0.0275442 0)
(10.0021 0.0434884 0)
(10.0054 0.0599753 0)
(9.99856 0.0763553 0)
(9.9854 0.0924143 0)
(9.97087 0.108099 0)
(9.95547 0.123534 0)
(9.93865 0.138916 0)
(9.92012 0.154269 0)
(9.89964 0.169449 0)
(9.87687 0.184299 0)
(9.85154 0.198778 0)
(9.8238 0.213015 0)
(9.79404 0.227249 0)
(9.76267 0.241649 0)
(9.72979 0.256155 0)
(9.69528 0.270533 0)
(9.65902 0.284626 0)
(9.62095 0.298538 0)
(9.58114 0.312569 0)
(9.53957 0.326974 0)
(9.49608 0.341746 0)
(9.45046 0.356602 0)
(9.4026 0.371153 0)
(9.35253 0.385139 0)
(9.30038 0.39859 0)
(9.24624 0.411795 0)
(9.19014 0.425104 0)
(9.13202 0.438709 0)
(9.07187 0.452588 0)
(9.00976 0.466663 0)
(8.94585 0.480952 0)
(8.88033 0.495548 0)
(8.81326 0.510448 0)
(8.74462 0.525414 0)
(8.67419 0.540084 0)
(8.6018 0.554249 0)
(8.52728 0.568067 0)
(8.45056 0.582004 0)
(8.37167 0.596551 0)
(8.29067 0.611915 0)
(8.20762 0.627886 0)
(8.12258 0.643961 0)
(8.03561 0.659587 0)
(7.94681 0.674393 0)
(7.85626 0.688294 0)
(7.76405 0.701439 0)
(7.67026 0.714108 0)
(7.5749 0.726585 0)
(7.47796 0.739106 0)
(7.3794 0.751823 0)
(7.27917 0.764829 0)
(7.17721 0.778171 0)
(7.07346 0.791866 0)
(6.96785 0.805922 0)
(6.86034 0.820338 0)
(6.75088 0.835114 0)
(6.63941 0.850241 0)
(6.52587 0.865714 0)
(6.41022 0.881523 0)
(6.29241 0.897659 0)
(6.17239 0.914107 0)
(6.0501 0.930855 0)
(5.92552 0.947884 0)
(5.79858 0.965177 0)
(5.66926 0.982714 0)
(5.53753 1.00047 0)
(5.40332 1.01843 0)
(5.26663 1.03654 0)
(5.12741 1.05479 0)
(4.98565 1.07315 0)
(4.84134 1.09158 0)
(4.69443 1.11004 0)
(4.54494 1.12849 0)
(4.39286 1.14689 0)
(4.23819 1.16519 0)
(4.08093 1.18335 0)
(3.92112 1.20131 0)
(3.75876 1.21903 0)
(3.59389 1.23645 0)
(3.42657 1.25353 0)
(3.25682 1.27019 0)
(3.08471 1.2864 0)
(2.91033 1.30208 0)
(2.73374 1.3172 0)
(2.55504 1.33169 0)
(2.37431 1.34547 0)
(2.19169 1.35853 0)
(2.00729 1.37076 0)
(1.82123 1.38214 0)
(1.63365 1.3926 0)
(1.44472 1.40208 0)
(1.25454 1.41053 0)
(1.06333 1.41788 0)
(0.871187 1.42411 0)
(0.678316 1.42916 0)
(0.484852 1.43295 0)
(0.291019 1.4357 0)
(0.0967995 1.43502 0)
(9.9592 0.0106232 0)
(10.0401 0.0292489 0)
(9.99509 0.0486457 0)
(9.99817 0.0678639 0)
(9.99156 0.0859556 0)
(9.97926 0.103301 0)
(9.96576 0.120718 0)
(9.95121 0.138365 0)
(9.93481 0.155803 0)
(9.91631 0.172817 0)
(9.89589 0.189665 0)
(9.87358 0.206639 0)
(9.84923 0.223707 0)
(9.82275 0.240636 0)
(9.7943 0.257335 0)
(9.76413 0.27394 0)
(9.73228 0.290578 0)
(9.69853 0.307161 0)
(9.66256 0.323494 0)
(9.62418 0.339545 0)
(9.58344 0.355534 0)
(9.54058 0.371722 0)
(9.49586 0.388138 0)
(9.4495 0.404541 0)
(9.40156 0.420648 0)
(9.35195 0.436402 0)
(9.30048 0.45203 0)
(9.24691 0.467846 0)
(9.19111 0.483982 0)
(9.13313 0.500292 0)
(9.0732 0.516505 0)
(9.01159 0.532472 0)
(8.94847 0.548298 0)
(8.88385 0.564228 0)
(8.81761 0.580403 0)
(8.74961 0.596737 0)
(8.6797 0.612994 0)
(8.60778 0.629034 0)
(8.53375 0.644973 0)
(8.45754 0.661131 0)
(8.37912 0.677827 0)
(8.29854 0.695146 0)
(8.21588 0.712862 0)
(8.13127 0.730535 0)
(8.04484 0.747698 0)
(7.95666 0.764038 0)
(7.86681 0.779486 0)
(7.77531 0.794191 0)
(7.68217 0.808429 0)
(7.58741 0.822495 0)
(7.49101 0.836634 0)
(7.39293 0.851013 0)
(7.29314 0.865733 0)
(7.1916 0.88084 0)
(7.08825 0.896359 0)
(6.98305 0.912293 0)
(6.87594 0.928644 0)
(6.76685 0.945406 0)
(6.65576 0.962575 0)
(6.54259 0.98014 0)
(6.4273 0.998093 0)
(6.30983 1.01642 0)
(6.19014 1.03511 0)
(6.06818 1.05415 0)
(5.94389 1.07351 0)
(5.81724 1.09318 0)
(5.68818 1.11314 0)
(5.55666 1.13335 0)
(5.42266 1.15379 0)
(5.28614 1.17443 0)
(5.14706 1.19524 0)
(5.00541 1.21617 0)
(4.86115 1.23719 0)
(4.71427 1.25825 0)
(4.56476 1.27931 0)
(4.41261 1.30033 0)
(4.25781 1.32123 0)
(4.1004 1.34199 0)
(3.94035 1.36253 0)
(3.77771 1.38281 0)
(3.6125 1.40275 0)
(3.44477 1.42228 0)
(3.27455 1.44137 0)
(3.10191 1.45993 0)
(2.92693 1.4779 0)
(2.74967 1.49521 0)
(2.57023 1.51179 0)
(2.38871 1.52757 0)
(2.20522 1.54248 0)
(2.01988 1.55647 0)
(1.83283 1.56946 0)
(1.64421 1.58139 0)
(1.45416 1.59219 0)
(1.26285 1.6018 0)
(1.07042 1.61016 0)
(0.877048 1.61722 0)
(0.682908 1.62294 0)
(0.48815 1.62723 0)
(0.293006 1.63035 0)
(0.0974631 1.62957 0)
(9.95195 0.0114577 0)
(10.0319 0.0334062 0)
(9.98774 0.055005 0)
(9.99234 0.0760491 0)
(9.98712 0.0963774 0)
(9.97523 0.115943 0)
(9.96137 0.135253 0)
(9.94639 0.154715 0)
(9.92993 0.174147 0)
(9.91157 0.193245 0)
(9.89101 0.212092 0)
(9.86821 0.230933 0)
(9.84335 0.249713 0)
(9.8166 0.268128 0)
(9.78798 0.28607 0)
(9.75744 0.303843 0)
(9.72497 0.321877 0)
(9.69063 0.340327 0)
(9.65446 0.359009 0)
(9.61642 0.377649 0)
(9.57645 0.396121 0)
(9.53456 0.414461 0)
(9.49083 0.432708 0)
(9.44532 0.450799 0)
(9.39803 0.468624 0)
(9.34889 0.486179 0)
(9.29785 0.503631 0)
(9.24494 0.5212 0)
(9.19021 0.538945 0)
(9.13365 0.556696 0)
(9.0753 0.574227 0)
(9.01523 0.59151 0)
(8.95349 0.608827 0)
(8.89007 0.626556 0)
(8.8248 0.644849 0)
(8.75749 0.663496 0)
(8.68801 0.682095 0)
(8.61636 0.700398 0)
(8.54263 0.718518 0)
(8.46693 0.736849 0)
(8.38925 0.755773 0)
(8.30953 0.775369 0)
(8.22773 0.795345 0)
(8.1438 0.815174 0)
(8.05785 0.834341 0)
(7.97003 0.85254 0)
(7.88045 0.869742 0)
(7.78923 0.886145 0)
(7.6964 0.902056 0)
(7.60199 0.917794 0)
(7.50596 0.933618 0)
(7.40829 0.949707 0)
(7.30893 0.966171 0)
(7.20782 0.983066 0)
(7.10491 1.00042 0)
(7.00015 1.01824 0)
(6.89348 1.03653 0)
(6.78483 1.05529 0)
(6.67417 1.07451 0)
(6.56141 1.09418 0)
(6.44653 1.11429 0)
(6.32946 1.13482 0)
(6.21015 1.15578 0)
(6.08854 1.17712 0)
(5.96459 1.19883 0)
(5.83826 1.2209 0)
(5.70949 1.2433 0)
(5.57824 1.26599 0)
(5.44448 1.28896 0)
(5.30816 1.31215 0)
(5.16923 1.33555 0)
(5.02771 1.35909 0)
(4.88353 1.38275 0)
(4.73667 1.40645 0)
(4.58715 1.43018 0)
(4.43492 1.45386 0)
(4.28 1.47743 0)
(4.12239 1.50085 0)
(3.96211 1.52402 0)
(3.79916 1.54691 0)
(3.63357 1.56943 0)
(3.46539 1.59151 0)
(3.29465 1.61308 0)
(3.12143 1.63406 0)
(2.94577 1.65437 0)
(2.76778 1.67394 0)
(2.58752 1.69268 0)
(2.40512 1.71053 0)
(2.22066 1.7274 0)
(2.03429 1.7432 0)
(1.84612 1.75786 0)
(1.65633 1.77131 0)
(1.46502 1.78349 0)
(1.2724 1.79431 0)
(1.07861 1.80372 0)
(0.883821 1.81167 0)
(0.688223 1.8181 0)
(0.491972 1.82292 0)
(0.29531 1.8264 0)
(0.0982326 1.82554 0)
(9.95038 0.0102134 0)
(10.0302 0.0334701 0)
(9.98514 0.0576127 0)
(9.98949 0.0810579 0)
(9.98434 0.103827 0)
(9.97266 0.126369 0)
(9.95902 0.148572 0)
(9.94434 0.170148 0)
(9.92823 0.191148 0)
(9.91013 0.211964 0)
(9.88976 0.232931 0)
(9.86719 0.254032 0)
(9.8427 0.275006 0)
(9.81635 0.295701 0)
(9.78793 0.31621 0)
(9.7572 0.336698 0)
(9.72421 0.357173 0)
(9.68922 0.377501 0)
(9.65251 0.397586 0)
(9.61421 0.417495 0)
(9.57423 0.437388 0)
(9.5325 0.457372 0)
(9.48898 0.477414 0)
(9.44367 0.497371 0)
(9.39659 0.517089 0)
(9.34774 0.53654 0)
(9.29719 0.555878 0)
(9.24502 0.575359 0)
(9.19124 0.595114 0)
(9.13574 0.614998 0)
(9.07832 0.63469 0)
(9.01882 0.65402 0)
(8.95728 0.673182 0)
(8.89386 0.692621 0)
(8.82876 0.712657 0)
(8.76208 0.733189 0)
(8.69378 0.753794 0)
(8.62373 0.774098 0)
(8.55176 0.794115 0)
(8.47774 0.814248 0)
(8.40148 0.834972 0)
(8.32289 0.856454 0)
(8.24188 0.878409 0)
(8.15852 0.90024 0)
(8.07293 0.921338 0)
(7.98533 0.941339 0)
(7.89594 0.960208 0)
(7.80491 0.978183 0)
(7.71233 0.995626 0)
(7.61823 1.0129 0)
(7.52258 1.03031 0)
(7.42535 1.04803 0)
(7.32646 1.06619 0)
(7.22584 1.08484 0)
(7.12342 1.10402 0)
(7.01916 1.12373 0)
(6.91298 1.14396 0)
(6.80484 1.16472 0)
(6.69465 1.186 0)
(6.58237 1.20777 0)
(6.46795 1.23006 0)
(6.35132 1.25281 0)
(6.23244 1.27604 0)
(6.11125 1.29971 0)
(5.98768 1.3238 0)
(5.86171 1.3483 0)
(5.73328 1.37317 0)
(5.60233 1.39838 0)
(5.46884 1.4239 0)
(5.33274 1.44968 0)
(5.19402 1.4757 0)
(5.05263 1.50191 0)
(4.90855 1.52823 0)
(4.76174 1.55465 0)
(4.6122 1.58109 0)
(4.45991 1.6075 0)
(4.30486 1.63379 0)
(4.14704 1.65992 0)
(3.98649 1.68581 0)
(3.82318 1.71138 0)
(3.65718 1.73655 0)
(3.48851 1.76124 0)
(3.3172 1.78537 0)
(3.14332 1.80884 0)
(2.96692 1.83159 0)
(2.7881 1.8535 0)
(2.60694 1.87449 0)
(2.42353 1.89447 0)
(2.23799 1.91335 0)
(2.05046 1.93104 0)
(1.86105 1.94746 0)
(1.66992 1.96252 0)
(1.47723 1.97615 0)
(1.28313 1.98824 0)
(1.08781 1.99877 0)
(0.891433 2.00764 0)
(0.694196 2.01482 0)
(0.496269 2.02019 0)
(0.297899 2.02409 0)
(0.0990974 2.02314 0)
(9.95129 0.0131793 0)
(10.0291 0.0400426 0)
(9.98348 0.0649561 0)
(9.98633 0.0894967 0)
(9.97972 0.114169 0)
(9.96714 0.138652 0)
(9.95321 0.162568 0)
(9.93837 0.185883 0)
(9.92179 0.208915 0)
(9.90288 0.231981 0)
(9.88155 0.255121 0)
(9.85808 0.27814 0)
(9.83275 0.300856 0)
(9.80571 0.323285 0)
(9.77705 0.345592 0)
(9.7468 0.367884 0)
(9.71495 0.39012 0)
(9.68141 0.412209 0)
(9.64606 0.434142 0)
(9.60886 0.455996 0)
(9.5698 0.47784 0)
(9.52902 0.499683 0)
(9.48667 0.521477 0)
(9.44277 0.543134 0)
(9.39722 0.564537 0)
(9.34982 0.585609 0)
(9.30038 0.606431 0)
(9.24881 0.627257 0)
(9.1952 0.648356 0)
(9.13969 0.66978 0)
(9.08243 0.691324 0)
(9.02347 0.712743 0)
(8.96276 0.733996 0)
(8.90015 0.755287 0)
(8.83558 0.776837 0)
(8.76905 0.798665 0)
(8.70069 0.820598 0)
(8.63065 0.842518 0)
(8.559 0.864572 0)
(8.48572 0.887153 0)
(8.41058 0.910613 0)
(8.33332 0.934945 0)
(8.25369 0.959687 0)
(8.1716 0.984105 0)
(8.08712 1.00751 0)
(8.00041 1.02953 0)
(7.91176 1.05018 0)
(7.82135 1.06976 0)
(7.72935 1.08874 0)
(7.6358 1.10754 0)
(7.54071 1.1265 0)
(7.44403 1.14584 0)
(7.34569 1.16569 0)
(7.24564 1.18609 0)
(7.14379 1.20709 0)
(7.04009 1.22868 0)
(6.93447 1.25087 0)
(6.82687 1.27363 0)
(6.71723 1.29697 0)
(6.60547 1.32088 0)
(6.49157 1.34534 0)
(6.37544 1.37034 0)
(6.25704 1.39586 0)
(6.13631 1.42188 0)
(6.01319 1.44838 0)
(5.88763 1.47532 0)
(5.75957 1.50269 0)
(5.62897 1.53046 0)
(5.49578 1.55856 0)
(5.35996 1.58699 0)
(5.22146 1.61567 0)
(5.08024 1.64459 0)
(4.93628 1.67365 0)
(4.78953 1.70282 0)
(4.64 1.73203 0)
(4.48764 1.76123 0)
(4.33245 1.79032 0)
(4.17442 1.81924 0)
(4.01358 1.84791 0)
(3.84992 1.87624 0)
(3.68346 1.90414 0)
(3.51423 1.93153 0)
(3.3423 1.95831 0)
(3.16768 1.98438 0)
(2.99047 2.00962 0)
(2.81073 2.03397 0)
(2.62856 2.0573 0)
(2.44404 2.07951 0)
(2.25731 2.1005 0)
(2.06847 2.12017 0)
(1.87767 2.13843 0)
(1.68507 2.15517 0)
(1.49081 2.17031 0)
(1.29508 2.18377 0)
(1.09805 2.19545 0)
(0.899902 2.20531 0)
(0.700841 2.21328 0)
(0.501046 2.21925 0)
(0.300779 2.22357 0)
(0.100059 2.22258 0)
(9.93942 0.0133192 0)
(10.0157 0.0427813 0)
(9.97037 0.0701594 0)
(9.97514 0.0969671 0)
(9.97013 0.123842 0)
(9.95866 0.150371 0)
(9.94553 0.176267 0)
(9.93144 0.201722 0)
(9.91589 0.227037 0)
(9.89839 0.252333 0)
(9.87872 0.277538 0)
(9.85676 0.302474 0)
(9.83256 0.326979 0)
(9.80627 0.351044 0)
(9.77815 0.374837 0)
(9.74835 0.398577 0)
(9.71694 0.42239 0)
(9.6838 0.446255 0)
(9.64878 0.470081 0)
(9.61188 0.493777 0)
(9.57314 0.517288 0)
(9.53259 0.540605 0)
(9.49019 0.563779 0)
(9.44591 0.586909 0)
(9.39978 0.610089 0)
(9.3519 0.633386 0)
(9.30232 0.656841 0)
(9.25099 0.680459 0)
(9.19781 0.704142 0)
(9.14272 0.727658 0)
(9.08579 0.750794 0)
(9.02716 0.773576 0)
(8.96692 0.796377 0)
(8.905 0.819672 0)
(8.84124 0.84365 0)
(8.77542 0.868008 0)
(8.70747 0.892175 0)
(8.63754 0.915799 0)
(8.56585 0.939089 0)
(8.49263 0.962727 0)
(8.41794 0.987409 0)
(8.34162 1.01335 0)
(8.26338 1.04011 0)
(8.18292 1.06679 0)
(8.1001 1.09249 0)
(8.01496 1.11665 0)
(7.92765 1.13923 0)
(7.83838 1.16056 0)
(7.74733 1.18115 0)
(7.65461 1.20153 0)
(7.56027 1.22207 0)
(7.46429 1.24303 0)
(7.36662 1.26457 0)
(7.26722 1.28674 0)
(7.16601 1.30956 0)
(7.06294 1.33305 0)
(6.95793 1.35719 0)
(6.85094 1.38197 0)
(6.7419 1.40739 0)
(6.63074 1.43343 0)
(6.51741 1.46009 0)
(6.40184 1.48735 0)
(6.28398 1.51518 0)
(6.16376 1.54356 0)
(6.04113 1.57249 0)
(5.91604 1.60193 0)
(5.7884 1.63183 0)
(5.65821 1.66218 0)
(5.52537 1.69292 0)
(5.38985 1.72402 0)
(5.25161 1.75543 0)
(5.1106 1.7871 0)
(4.96678 1.81896 0)
(4.82013 1.85096 0)
(4.6706 1.88302 0)
(4.51819 1.91507 0)
(4.36287 1.94703 0)
(4.20463 1.97881 0)
(4.04348 2.01035 0)
(3.87943 2.04153 0)
(3.71248 2.07226 0)
(3.54267 2.10243 0)
(3.37005 2.13195 0)
(3.19465 2.16071 0)
(3.01654 2.18857 0)
(2.83579 2.21545 0)
(2.6525 2.24122 0)
(2.46676 2.26576 0)
(2.27869 2.28896 0)
(2.08841 2.31071 0)
(1.89608 2.3309 0)
(1.70184 2.34942 0)
(1.50586 2.36616 0)
(1.30831 2.38104 0)
(1.10939 2.39397 0)
(0.909278 2.40488 0)
(0.708197 2.41369 0)
(0.506335 2.4203 0)
(0.303967 2.42507 0)
(0.101124 2.42403 0)
(9.95022 0.0187025 0)
(10.0273 0.0469098 0)
(9.98188 0.0751048 0)
(9.98552 0.103328 0)
(9.97931 0.132035 0)
(9.96703 0.160892 0)
(9.95345 0.18897 0)
(9.93873 0.215983 0)
(9.92189 0.242561 0)
(9.90254 0.269498 0)
(9.88103 0.29698 0)
(9.85777 0.324577 0)
(9.8329 0.351714 0)
(9.80628 0.378118 0)
(9.77784 0.403911 0)
(9.74775 0.429431 0)
(9.71626 0.454962 0)
(9.68348 0.480583 0)
(9.6492 0.506202 0)
(9.61312 0.531725 0)
(9.57509 0.557174 0)
(9.5351 0.582653 0)
(9.4932 0.608186 0)
(9.44937 0.633609 0)
(9.40356 0.658664 0)
(9.35588 0.683248 0)
(9.30652 0.707566 0)
(9.25564 0.732026 0)
(9.20325 0.756898 0)
(9.14916 0.782076 0)
(9.09317 0.807169 0)
(9.03516 0.831905 0)
(8.97518 0.856436 0)
(8.91341 0.881234 0)
(8.84999 0.906665 0)
(8.7849 0.932637 0)
(8.71803 0.958658 0)
(8.64923 0.984298 0)
(8.57843 1.00962 0)
(8.5057 1.03521 0)
(8.43114 1.06177 0)
(8.35485 1.08966 0)
(8.27682 1.11852 0)
(8.19692 1.14748 0)
(8.115 1.17555 0)
(8.03097 1.20204 0)
(7.94483 1.22679 0)
(7.8567 1.2501 0)
(7.76668 1.27251 0)
(7.6749 1.29461 0)
(7.5814 1.31683 0)
(7.4862 1.33949 0)
(7.38928 1.36276 0)
(7.29059 1.38671 0)
(7.19009 1.41138 0)
(7.08771 1.43675 0)
(6.98339 1.46286 0)
(6.87707 1.48966 0)
(6.76869 1.51717 0)
(6.65818 1.54537 0)
(6.54548 1.57424 0)
(6.43054 1.60377 0)
(6.31327 1.63394 0)
(6.19363 1.66473 0)
(6.07154 1.6961 0)
(5.94697 1.72806 0)
(5.81983 1.76053 0)
(5.69007 1.7935 0)
(5.55763 1.82693 0)
(5.42247 1.86076 0)
(5.28453 1.89495 0)
(5.14377 1.92942 0)
(5.00013 1.96414 0)
(4.85359 1.99902 0)
(4.7041 2.034 0)
(4.55165 2.06899 0)
(4.3962 2.1039 0)
(4.23775 2.13865 0)
(4.07629 2.17315 0)
(3.91183 2.20727 0)
(3.74436 2.24093 0)
(3.57393 2.274 0)
(3.40056 2.30637 0)
(3.22431 2.33792 0)
(3.04522 2.36852 0)
(2.86338 2.39804 0)
(2.67887 2.42636 0)
(2.49179 2.45334 0)
(2.30227 2.47887 0)
(2.11041 2.50281 0)
(1.91639 2.52504 0)
(1.72035 2.54543 0)
(1.52246 2.56388 0)
(1.32291 2.58027 0)
(1.1219 2.59452 0)
(0.919622 2.60653 0)
(0.716312 2.61625 0)
(0.51217 2.62353 0)
(0.307483 2.62879 0)
(0.102298 2.62771 0)
(9.94597 0.0173892 0)
(10.0251 0.0501453 0)
(9.97963 0.0821235 0)