/*--------------------------------*- C++ -*----------------------------------*\
| =========                 |                                                 |
| \\      /  F ield         | OpenFOAM: The Open Source CFD Toolbox           |
|  \\    /   O peration     | Version:  4.1                                   |
|   \\  /    A nd           | Web:      www.OpenFOAM.org                      |
|    \\/     M anipulation  |                                                 |
\*---------------------------------------------------------------------------*/
FoamFile
{
    version     2.0;
    format      ascii;
    class       volSymmTensorField;
    location    "0.101";
    object      UPrime2Mean;
}
// * * * * * * * * * * * * * * * * * * * * * * * * * * * * * * * * * * * * * //

dimensions      [0 2 -2 0 0 0 0];

internalField   nonuniform List<symmTensor> 
43750
(
(0.0744667 0.00244483 0 0.00988821 0 0)
(0.0336908 0.00307453 0 0.00327968 0 0)
(0.0113971 0.000685932 0 0.00138356 0 0)
(0.00415804 0.000279636 0 0.000747364 0 0)
(0.00324373 7.35549e-05 0 0.000467397 0 0)
(0.00356199 -7.87699e-05 0 0.000360557 0 0)
(0.00416146 -0.000134054 0 0.000342609 0 0)
(0.00475915 -0.000157635 0 0.000349029 0 0)
(0.00556925 -0.000210266 0 0.000346091 0 0)
(0.00673443 -0.000279171 0 0.000334149 0 0)
(0.00824694 -0.000328905 0 0.000318958 0 0)
(0.0100238 -0.00034774 0 0.000304105 0 0)
(0.0119991 -0.00034857 0 0.000293002 0 0)
(0.014146 -0.000345602 0 0.000286675 0 0)
(0.0164439 -0.000341084 0 0.000283409 0 0)
(0.0188442 -0.000329525 0 0.000281929 0 0)
(0.02129 -0.00030791 0 0.000282058 0 0)
(0.0237704 -0.000275533 0 0.000283358 0 0)
(0.026307 -0.000226791 0 0.000285112 0 0)
(0.0288901 -0.000152772 0 0.000284364 0 0)
(0.0314629 -4.49952e-05 0 0.00027553 0 0)
(0.0339519 9.99254e-05 0 0.000259178 0 0)
(0.0363022 0.000272556 0 0.000244089 0 0)
(0.0384923 0.000460656 0 0.000234719 0 0)
(0.0405029 0.000665788 0 0.000227234 0 0)
(0.0422774 0.00089559 0 0.000216912 0 0)
(0.0437291 0.00113814 0 0.000206632 0 0)
(0.04479 0.00134952 0 0.000204917 0 0)
(0.0454552 0.00148495 0 0.000209479 0 0)
(0.0457628 0.00155439 0 0.000211372 0 0)
(0.0457166 0.00162722 0 0.000214181 0 0)
(0.0452455 0.00177027 0 0.000222189 0 0)
(0.0442519 0.00198339 0 0.000230811 0 0)
(0.0427073 0.00218367 0 0.000241536 0 0)
(0.0407036 0.00226849 0 0.000252636 0 0)
(0.03839 0.00221659 0 0.000252019 0 0)
(0.0358432 0.00211053 0 0.000244487 0 0)
(0.033007 0.00206007 0 0.000249006 0 0)
(0.02975 0.00211619 0 0.000266558 0 0)
(0.0259886 0.00223067 0 0.000287843 0 0)
(0.0218173 0.00227403 0 0.000311067 0 0)
(0.0175522 0.0021247 0 0.000324487 0 0)
(0.0136122 0.00177201 0 0.000302486 0 0)
(0.0103128 0.00132314 0 0.000238595 0 0)
(0.00774809 0.000909814 0 0.000158714 0 0)
(0.00582753 0.0006032 0 9.36736e-05 0 0)
(0.00439182 0.00040499 0 5.49122e-05 0 0)
(0.00330075 0.000283494 0 3.68557e-05 0 0)
(0.00246257 0.00020532 0 2.99604e-05 0 0)
(0.00182847 0.000147589 0 2.78289e-05 0 0)
(0.00137672 9.7702e-05 0 2.74781e-05 0 0)
(0.00109965 4.98381e-05 0 2.77427e-05 0 0)
(0.000995333 1.81544e-06 0 2.81846e-05 0 0)
(0.00106351 -4.69141e-05 0 2.8647e-05 0 0)
(0.00130391 -9.63298e-05 0 2.90774e-05 0 0)
(0.00171577 -0.000146252 0 2.94543e-05 0 0)
(0.00229772 -0.000196466 0 2.97738e-05 0 0)
(0.00304786 -0.000246724 0 3.00218e-05 0 0)
(0.00396365 -0.000296764 0 3.01952e-05 0 0)
(0.00504187 -0.000346253 0 3.02786e-05 0 0)
(0.00627873 -0.000394835 0 3.02604e-05 0 0)
(0.00766945 -0.000442113 0 3.01315e-05 0 0)
(0.00920833 -0.000487654 0 2.98834e-05 0 0)
(0.0108884 -0.00053091 0 2.94976e-05 0 0)
(0.0127014 -0.000571243 0 2.89552e-05 0 0)
(0.0146375 -0.000607789 0 2.82201e-05 0 0)
(0.016685 -0.000639424 0 2.7249e-05 0 0)
(0.0188316 -0.000664805 0 2.59992e-05 0 0)
(0.021062 -0.000682639 0 2.44634e-05 0 0)
(0.0233593 -0.000691793 0 2.26631e-05 0 0)
(0.0257029 -0.000690992 0 2.06168e-05 0 0)
(0.0280695 -0.000678839 0 1.83459e-05 0 0)
(0.0304328 -0.000653839 0 1.5882e-05 0 0)
(0.0327625 -0.000614439 0 1.32759e-05 0 0)
(0.035025 -0.000559157 0 1.06064e-05 0 0)
(0.0371833 -0.000486441 0 7.97601e-06 0 0)
(0.0391961 -0.000394924 0 5.52674e-06 0 0)
(0.0410187 -0.00028348 0 3.44237e-06 0 0)
(0.0426038 -0.000151359 0 1.95475e-06 0 0)
(0.0439014 1.6763e-06 0 1.34749e-06 0 0)
(0.044861 0.00017516 0 1.95753e-06 0 0)
(0.0454324 0.000367777 0 4.17215e-06 0 0)
(0.0455678 0.000577152 0 8.42156e-06 0 0)
(0.0452244 0.00079965 0 1.51632e-05 0 0)
(0.044368 0.00103026 0 2.48575e-05 0 0)
(0.0429751 0.00126249 0 3.79327e-05 0 0)
(0.0410375 0.00148844 0 5.47441e-05 0 0)
(0.0385658 0.00169898 0 7.55238e-05 0 0)
(0.0355915 0.00188398 0 0.000100329 0 0)
(0.0321706 0.00203279 0 0.00012899 0 0)
(0.0283843 0.00213492 0 0.000161072 0 0)
(0.0243386 0.00218068 0 0.000195843 0 0)
(0.0201624 0.00216204 0 0.000232278 0 0)
(0.0160033 0.00207352 0 0.000269091 0 0)
(0.0120213 0.00191276 0 0.000304776 0 0)
(0.00838054 0.00168136 0 0.000337763 0 0)
(0.00523919 0.0013847 0 0.000366424 0 0)
(0.0027416 0.00103289 0 0.000389602 0 0)
(0.00100336 0.000638622 0 0.00040695 0 0)
(0.000113026 0.000216047 0 0.000413428 0 0)
(0.0802562 0.000915943 0 0.0131349 0 0)
(0.0291662 0.00400335 0 0.0042176 0 0)
(0.0114432 0.000461529 0 0.0017667 0 0)
(0.00409267 0.000529275 0 0.00117269 0 0)
(0.00341376 0.000256118 0 0.00101034 0 0)
(0.00412911 -0.000134373 0 0.00096147 0 0)
(0.00508362 -0.000446113 0 0.000910593 0 0)
(0.00604526 -0.000689101 0 0.000834366 0 0)
(0.00729643 -0.000883023 0 0.000764157 0 0)
(0.00896461 -0.0010488 0 0.000733088 0 0)
(0.011033 -0.00121605 0 0.00072779 0 0)
(0.0134507 -0.00139246 0 0.000711428 0 0)
(0.0161881 -0.0015635 0 0.000687558 0 0)
(0.0192386 -0.00171419 0 0.00067637 0 0)
(0.0226013 -0.00183784 0 0.00065506 0 0)
(0.026269 -0.00192732 0 0.000608796 0 0)
(0.0301996 -0.00198091 0 0.000571241 0 0)
(0.034281 -0.00203024 0 0.000557636 0 0)
(0.0383893 -0.00211067 0 0.000547682 0 0)
(0.0425343 -0.00219791 0 0.000534947 0 0)
(0.0468648 -0.00224248 0 0.000524864 0 0)
(0.0514912 -0.00224056 0 0.000516457 0 0)
(0.0563906 -0.00221944 0 0.000507908 0 0)
(0.0614715 -0.00219236 0 0.000498477 0 0)
(0.0666705 -0.0021432 0 0.000488969 0 0)
(0.0719958 -0.00203898 0 0.000479603 0 0)
(0.0774744 -0.00186055 0 0.000465646 0 0)
(0.0830637 -0.00161092 0 0.000442856 0 0)
(0.0886311 -0.00129607 0 0.000412663 0 0)
(0.0940206 -0.000916818 0 0.000378929 0 0)
(0.0991673 -0.000480232 0 0.000345239 0 0)
(0.104162 -9.9294e-06 0 0.000315775 0 0)
(0.109141 0.00046506 0 0.000294319 0 0)
(0.11411 0.000934549 0 0.000281214 0 0)
(0.118889 0.00141868 0 0.000273051 0 0)
(0.123211 0.00196015 0 0.000264636 0 0)
(0.126922 0.00259848 0 0.00025085 0 0)
(0.130126 0.00333231 0 0.000230987 0 0)
(0.13312 0.0041022 0 0.00021323 0 0)
(0.136119 0.00482104 0 0.000209754 0 0)
(0.139055 0.00541437 0 0.000224806 0 0)
(0.141575 0.00582898 0 0.000249 0 0)
(0.143178 0.00602941 0 0.000266001 0 0)
(0.143397 0.0060107 0 0.000265482 0 0)
(0.141973 0.00581636 0 0.00024972 0 0)
(0.138956 0.00552766 0 0.000228426 0 0)
(0.134672 0.00522804 0 0.00021001 0 0)
(0.129569 0.00496965 0 0.000197592 0 0)
(0.124062 0.00476683 0 0.00019048 0 0)
(0.118453 0.00460942 0 0.000186793 0 0)
(0.112923 0.00447934 0 0.000184864 0 0)
(0.107558 0.00436173 0 0.000183618 0 0)
(0.102393 0.00424786 0 0.000182464 0 0)
(0.0974372 0.00413406 0 0.000181145 0 0)
(0.0926869 0.00401966 0 0.000179604 0 0)
(0.0881374 0.00390498 0 0.000177841 0 0)
(0.0837822 0.00379054 0 0.000175886 0 0)
(0.079615 0.0036768 0 0.000173764 0 0)
(0.0756288 0.00356418 0 0.000171505 0 0)
(0.0718165 0.00345253 0 0.000169092 0 0)
(0.0681712 0.00334188 0 0.000166525 0 0)
(0.0646856 0.00323208 0 0.000163792 0 0)
(0.061352 0.00312311 0 0.000160892 0 0)
(0.0581633 0.00301452 0 0.000157785 0 0)
(0.0551115 0.00290576 0 0.000154421 0 0)
(0.0521891 0.00279625 0 0.00015074 0 0)
(0.0493881 0.00268514 0 0.000146657 0 0)
(0.0467018 0.0025718 0 0.0001421 0 0)
(0.0441244 0.0024559 0 0.000137032 0 0)
(0.0416491 0.00233742 0 0.000131454 0 0)
(0.0392685 0.00221599 0 0.00012534 0 0)
(0.0369759 0.00209093 0 0.000118629 0 0)
(0.0347652 0.0019616 0 0.000111273 0 0)
(0.0326306 0.00182758 0 0.000103253 0 0)
(0.0305667 0.00168817 0 9.45354e-05 0 0)
(0.0285679 0.00154307 0 8.51496e-05 0 0)
(0.0266306 0.001392 0 7.51548e-05 0 0)
(0.0247506 0.00123492 0 6.46735e-05 0 0)
(0.0229249 0.001072 0 5.39011e-05 0 0)
(0.0211515 0.000903787 0 4.31273e-05 0 0)
(0.0194287 0.000731146 0 3.27489e-05 0 0)
(0.017756 0.000555362 0 2.32816e-05 0 0)
(0.0161336 0.000378181 0 1.53698e-05 0 0)
(0.0145631 0.000201835 0 9.78147e-06 0 0)
(0.0130463 2.90416e-05 0 7.39242e-06 0 0)
(0.0115864 -0.000136978 0 9.15197e-06 0 0)
(0.0101876 -0.000292613 0 1.60211e-05 0 0)
(0.0088541 -0.000433945 0 2.88903e-05 0 0)
(0.00759138 -0.000556927 0 4.84754e-05 0 0)
(0.00640519 -0.000657577 0 7.51973e-05 0 0)
(0.0053016 -0.00073222 0 0.00010906 0 0)
(0.00428689 -0.000777735 0 0.000149533 0 0)
(0.00336716 -0.000791834 0 0.000195478 0 0)
(0.00254841 -0.000773332 0 0.000245122 0 0)
(0.00183607 -0.000722312 0 0.000296103 0 0)
(0.0012353 -0.000640376 0 0.000345622 0 0)
(0.000749865 -0.000530328 0 0.00039047 0 0)
(0.000383601 -0.000397015 0 0.000427915 0 0)
(0.000138145 -0.000245312 0 0.000453845 0 0)
(1.44171e-05 -8.06066e-05 0 0.000470473 0 0)
(0.0791315 0.000100602 0 0.0158512 0 0)
(0.0310047 0.00470403 0 0.00638091 0 0)
(0.0123366 0.000460575 0 0.00314499 0 0)
(0.00482002 0.000711989 0 0.00212142 0 0)
(0.00392767 0.000331271 0 0.00173497 0 0)
(0.00429551 -0.000384975 0 0.00160189 0 0)
(0.00497284 -0.000942533 0 0.00158957 0 0)
(0.00573151 -0.00130783 0 0.00163539 0 0)
(0.0067624 -0.00160978 0 0.00168152 0 0)
(0.00818082 -0.00194361 0 0.00171284 0 0)
(0.00998524 -0.00232178 0 0.00173569 0 0)
(0.0121046 -0.00270517 0 0.00175574 0 0)
(0.0144626 -0.00305678 0 0.00177832 0 0)
(0.0170373 -0.00336729 0 0.00180168 0 0)
(0.0198665 -0.00364344 0 0.0018131 0 0)
(0.0229666 -0.00389356 0 0.00178204 0 0)
(0.0263048 -0.00411523 0 0.00166858 0 0)
(0.0298315 -0.00427495 0 0.00149329 0 0)
(0.0334708 -0.0043545 0 0.00135239 0 0)
(0.0371288 -0.00440441 0 0.00129359 0 0)
(0.0407469 -0.00447508 0 0.00127523 0 0)
(0.0443116 -0.00453333 0 0.00125911 0 0)
(0.0478053 -0.00450498 0 0.00123073 0 0)
(0.0511778 -0.00436478 0 0.00118238 0 0)
(0.0543774 -0.00415785 0 0.00113057 0 0)
(0.0574131 -0.0039412 0 0.00109216 0 0)
(0.0603802 -0.00371555 0 0.00106054 0 0)
(0.0634083 -0.00343995 0 0.00102028 0 0)
(0.0665756 -0.00310491 0 0.000963162 0 0)
(0.0698671 -0.00275106 0 0.000901003 0 0)
(0.0731912 -0.00242214 0 0.000853362 0 0)
(0.0764153 -0.00212221 0 0.000821734 0 0)
(0.0793938 -0.00180682 0 0.00079452 0 0)
(0.0819977 -0.00140839 0 0.000759646 0 0)
(0.0841607 -0.000895022 0 0.000710025 0 0)
(0.0859204 -0.000320756 0 0.000657049 0 0)
(0.087414 0.000201633 0 0.000621889 0 0)
(0.0888079 0.000597463 0 0.000605822 0 0)
(0.0902002 0.000896186 0 0.00059511 0 0)
(0.0915606 0.00120312 0 0.000584696 0 0)
(0.0927345 0.00162437 0 0.000570902 0 0)
(0.093486 0.00221295 0 0.000541976 0 0)
(0.0935562 0.00295001 0 0.000495617 0 0)
(0.0927348 0.00375217 0 0.000448831 0 0)
(0.0909365 0.00450363 0 0.000421517 0 0)
(0.0882373 0.00510145 0 0.000419154 0 0)
(0.0848481 0.005491 0 0.000432672 0 0)
(0.0810361 0.00567321 0 0.000448993 0 0)
(0.0770479 0.00568917 0 0.000459563 0 0)
(0.0730639 0.0055936 0 0.000462181 0 0)
(0.0691921 0.00543504 0 0.000458456 0 0)
(0.0654872 0.00524757 0 0.000450915 0 0)
(0.0619689 0.00505097 0 0.000441499 0 0)
(0.0586398 0.00485471 0 0.000431269 0 0)
(0.0554962 0.00466268 0 0.000420686 0 0)
(0.0525315 0.00447653 0 0.000409968 0 0)
(0.04974 0.00429649 0 0.00039914 0 0)
(0.0471157 0.00412285 0 0.000388246 0 0)
(0.0446527 0.00395569 0 0.000377302 0 0)
(0.0423445 0.00379509 0 0.000366332 0 0)
(0.0401859 0.00364109 0 0.000355352 0 0)
(0.0381701 0.00349359 0 0.000344359 0 0)
(0.0362913 0.00335257 0 0.000333377 0 0)
(0.0345428 0.00321789 0 0.000322401 0 0)
(0.0329183 0.00308923 0 0.000311412 0 0)
(0.0314111 0.00296662 0 0.000300446 0 0)
(0.0300151 0.00284981 0 0.00028951 0 0)
(0.0287231 0.00273861 0 0.000278619 0 0)
(0.0275291 0.00263266 0 0.000267779 0 0)
(0.0264257 0.00253114 0 0.000256908 0 0)
(0.0254052 0.00243335 0 0.000245966 0 0)
(0.0244594 0.00233847 0 0.00023489 0 0)
(0.0235812 0.00224578 0 0.000223629 0 0)
(0.0227618 0.00215448 0 0.000212147 0 0)
(0.0219926 0.00206351 0 0.000200362 0 0)
(0.0212643 0.00197195 0 0.000188233 0 0)
(0.0205675 0.00187875 0 0.000175709 0 0)
(0.0198912 0.00178285 0 0.000162755 0 0)
(0.0192252 0.00168321 0 0.00014936 0 0)
(0.0185578 0.00157891 0 0.000135545 0 0)
(0.0178773 0.00146916 0 0.000121367 0 0)
(0.0171721 0.00135341 0 0.000106938 0 0)
(0.0164301 0.00123139 0 9.24208e-05 0 0)
(0.0156405 0.00110325 0 7.80421e-05 0 0)
(0.0147936 0.000969679 0 6.40897e-05 0 0)
(0.0138811 0.000831913 0 5.0905e-05 0 0)
(0.0128982 0.00069183 0 3.88659e-05 0 0)
(0.011843 0.000551965 0 2.83636e-05 0 0)
(0.0107185 0.000415435 0 1.97648e-05 0 0)
(0.00953323 0.000285825 0 1.33722e-05 0 0)
(0.00830131 0.00016702 0 9.38376e-06 0 0)
(0.00704348 6.29124e-05 0 7.8516e-06 0 0)
(0.00578694 -2.29187e-05 0 8.6546e-06 0 0)
(0.00456405 -8.75464e-05 0 1.14861e-05 0 0)
(0.00341187 -0.000129112 0 1.58652e-05 0 0)
(0.00236959 -0.000147078 0 2.11722e-05 0 0)
(0.00147696 -0.000142384 0 2.66858e-05 0 0)
(0.00077013 -0.000117857 0 3.17389e-05 0 0)
(0.000281137 -7.64425e-05 0 3.48965e-05 0 0)
(3.01285e-05 -2.662e-05 0 3.93106e-05 0 0)
(0.078134 -0.00233656 0 0.0149138 0 0)
(0.0302767 0.00440005 0 0.00651211 0 0)
(0.0104953 -0.000634698 0 0.00343777 0 0)
(0.00411847 0.000310848 0 0.00262972 0 0)
(0.00363629 0.000125754 0 0.00251041 0 0)
(0.00422232 -0.000591016 0 0.00254491 0 0)
(0.0049717 -0.00124898 0 0.00257842 0 0)
(0.00570573 -0.00175005 0 0.00259691 0 0)
(0.00669111 -0.00218451 0 0.00264045 0 0)
(0.00804014 -0.00262967 0 0.00271408 0 0)
(0.0097108 -0.00309649 0 0.00278276 0 0)
(0.0116165 -0.00355965 0 0.00283136 0 0)
(0.0136971 -0.00400218 0 0.00286796 0 0)
(0.0159259 -0.00442495 0 0.00289966 0 0)
(0.0183021 -0.00481277 0 0.00292451 0 0)
(0.0208543 -0.00512455 0 0.00293471 0 0)
(0.0236267 -0.00534037 0 0.00290925 0 0)
(0.0266402 -0.00548639 0 0.00283859 0 0)
(0.0298707 -0.00559686 0 0.0027451 0 0)
(0.0332592 -0.00568054 0 0.00265537 0 0)
(0.0367352 -0.00572857 0 0.00257776 0 0)
(0.0402378 -0.00573247 0 0.00250933 0 0)
(0.0437282 -0.00568939 0 0.0024457 0 0)
(0.0471775 -0.00560015 0 0.00238435 0 0)
(0.0505503 -0.00547141 0 0.00232587 0 0)
(0.0538144 -0.00532172 0 0.00227336 0 0)
(0.0569732 -0.00517584 0 0.00222772 0 0)
(0.0600712 -0.00503949 0 0.00218513 0 0)
(0.0631455 -0.00488074 0 0.00214171 0 0)
(0.0661742 -0.00464375 0 0.00209097 0 0)
(0.0690793 -0.00427534 0 0.00201275 0 0)
(0.0717676 -0.00374583 0 0.0018832 0 0)
(0.0741743 -0.00306751 0 0.00170441 0 0)
(0.0762768 -0.00229778 0 0.00151243 0 0)
(0.0780675 -0.00151329 0 0.00135075 0 0)
(0.0795133 -0.000774276 0 0.0012403 0 0)
(0.0805451 -0.000102236 0 0.00117386 0 0)
(0.0810857 0.000526137 0 0.00113159 0 0)
(0.0810913 0.00116939 0 0.00109518 0 0)
(0.0805747 0.00189203 0 0.00105004 0 0)
(0.0795845 0.00272501 0 0.00098686 0 0)
(0.078159 0.00364351 0 0.000909491 0 0)
(0.0762983 0.00457488 0 0.000837271 0 0)
(0.0739842 0.00542505 0 0.000792523 0 0)
(0.0712232 0.006108 0 0.000784183 0 0)
(0.0680756 0.0065708 0 0.000803114 0 0)
(0.0646501 0.00680477 0 0.000831096 0 0)
(0.0610745 0.00684049 0 0.000852743 0 0)
(0.0574647 0.00672925 0 0.000861241 0 0)
(0.0539078 0.00652404 0 0.000857013 0 0)
(0.0504595 0.00626756 0 0.000843717 0 0)
(0.0471521 0.0059881 0 0.000825018 0 0)
(0.0440022 0.00570201 0 0.00080344 0 0)
(0.0410159 0.00541761 0 0.000780373 0 0)
(0.0381953 0.00513871 0 0.000756459 0 0)
(0.0355387 0.00486707 0 0.00073198 0 0)
(0.0330431 0.00460349 0 0.000707068 0 0)
(0.0307042 0.00434843 0 0.000681781 0 0)
(0.0285177 0.0041022 0 0.000656168 0 0)
(0.0264783 0.00386526 0 0.000630324 0 0)
(0.0245808 0.00363773 0 0.00060428 0 0)
(0.0228193 0.00341977 0 0.000578079 0 0)
(0.0211883 0.00321153 0 0.000551785 0 0)
(0.0196815 0.00301313 0 0.000525466 0 0)
(0.0182938 0.00282462 0 0.000499172 0 0)
(0.0170185 0.00264603 0 0.000472978 0 0)
(0.0158498 0.00247726 0 0.000446946 0 0)
(0.0147817 0.00231813 0 0.00042112 0 0)
(0.0138081 0.00216855 0 0.000395587 0 0)
(0.012923 0.00202808 0 0.000370356 0 0)
(0.01212 0.00189639 0 0.000345488 0 0)
(0.0113929 0.00177319 0 0.000321065 0 0)
(0.0107361 0.00165815 0 0.000297176 0 0)
(0.0101431 0.00155072 0 0.00027389 0 0)
(0.00960785 0.00145046 0 0.000251316 0 0)
(0.009124 0.00135674 0 0.000229531 0 0)
(0.00868539 0.00126895 0 0.000208624 0 0)
(0.00828576 0.00118643 0 0.000188687 0 0)
(0.00791851 0.00110846 0 0.0001698 0 0)
(0.00757699 0.00103437 0 0.000152041 0 0)
(0.00725449 0.000963489 0 0.000135484 0 0)
(0.00694375 0.000895179 0 0.000120197 0 0)
(0.00663764 0.000828899 0 0.000106237 0 0)
(0.00632879 0.000764206 0 9.36512e-05 0 0)
(0.00601003 0.000700808 0 8.24736e-05 0 0)
(0.00567436 0.000638553 0 7.27196e-05 0 0)
(0.00531565 0.00057746 0 6.43829e-05 0 0)
(0.004929 0.000517716 0 5.74326e-05 0 0)
(0.00451114 0.00045963 0 5.18082e-05 0 0)
(0.00406137 0.000403623 0 4.74213e-05 0 0)
(0.003582 0.000350159 0 4.41557e-05 0 0)
(0.00307898 0.000299689 0 4.18715e-05 0 0)
(0.00256226 0.000252588 0 4.04108e-05 0 0)
(0.00204565 0.000209093 0 3.96062e-05 0 0)
(0.00154658 0.000169274 0 3.92894e-05 0 0)
(0.00108486 0.000132949 0 3.92946e-05 0 0)
(0.000681949 9.98293e-05 0 3.94839e-05 0 0)
(0.000357612 6.91328e-05 0 3.96949e-05 0 0)
(0.000131151 4.12798e-05 0 3.99182e-05 0 0)
(1.39725e-05 1.29803e-05 0 4.16876e-05 0 0)
(0.0785943 -0.00232488 0 0.0152383 0 0)
(0.029009 0.00526875 0 0.00681039 0 0)
(0.0107083 -0.00124813 0 0.00408239 0 0)
(0.00356029 0.0001835 0 0.00343791 0 0)
(0.00307867 -5.97806e-05 0 0.00333423 0 0)
(0.00372101 -0.00106845 0 0.00338954 0 0)
(0.00449124 -0.00193346 0 0.00350872 0 0)
(0.00524147 -0.002553 0 0.00364505 0 0)
(0.00623897 -0.00308317 0 0.00378844 0 0)
(0.00763444 -0.00363873 0 0.00392919 0 0)
(0.00941537 -0.00424796 0 0.00403188 0 0)
(0.0114959 -0.00487254 0 0.00407937 0 0)
(0.0138176 -0.00545688 0 0.00409236 0 0)
(0.0163584 -0.00597205 0 0.00410386 0 0)
(0.0191057 -0.00642317 0 0.00411995 0 0)
(0.0220536 -0.00681995 0 0.00411638 0 0)
(0.0252037 -0.00715856 0 0.00406593 0 0)
(0.0285488 -0.00743731 0 0.00396665 0 0)
(0.032066 -0.00766635 0 0.00385575 0 0)
(0.0357262 -0.00785656 0 0.00377016 0 0)
(0.0394959 -0.00800593 0 0.00370573 0 0)
(0.0433298 -0.00809293 0 0.00363485 0 0)
(0.0471605 -0.0080799 0 0.00352917 0 0)
(0.0508986 -0.0079369 0 0.00337793 0 0)
(0.0544503 -0.00767906 0 0.00321376 0 0)
(0.0577445 -0.00736858 0 0.00308382 0 0)
(0.060749 -0.00705717 0 0.00299515 0 0)
(0.0634702 -0.00673231 0 0.00292275 0 0)
(0.0659446 -0.00633695 0 0.00284234 0 0)
(0.0682268 -0.00583815 0 0.0027403 0 0)
(0.0703692 -0.00525983 0 0.00262194 0 0)
(0.0723923 -0.00464445 0 0.00250443 0 0)
(0.0742658 -0.0039963 0 0.0023923 0 0)
(0.0759086 -0.00327305 0 0.00227174 0 0)
(0.0772091 -0.00242988 0 0.00212705 0 0)
(0.0780595 -0.00147507 0 0.00196504 0 0)
(0.078399 -0.000488343 0 0.00182147 0 0)
(0.0782454 0.000427724 0 0.00172704 0 0)
(0.0776902 0.00123185 0 0.00167739 0 0)
(0.0768439 0.0019828 0 0.00164671 0 0)
(0.0757644 0.00279093 0 0.00160851 0 0)
(0.0744243 0.00373405 0 0.00154069 0 0)
(0.0727367 0.00480509 0 0.00144092 0 0)
(0.0706096 0.00591151 0 0.00134009 0 0)
(0.0680015 0.00691401 0 0.00128092 0 0)
(0.0649483 0.00768452 0 0.00127995 0 0)
(0.0615558 0.00815474 0 0.00131788 0 0)
(0.0579649 0.00833062 0 0.00136162 0 0)
(0.0543118 0.00827087 0 0.00138826 0 0)
(0.0507032 0.00805207 0 0.00139166 0 0)
(0.0472074 0.0077417 0 0.00137605 0 0)
(0.0438615 0.00738697 0 0.00134826 0 0)
(0.0406819 0.00701582 0 0.00131363 0 0)
(0.0376728 0.00664277 0 0.00127538 0 0)
(0.034833 0.00627473 0 0.00123508 0 0)
(0.032159 0.00591477 0 0.00119348 0 0)
(0.0296464 0.00556449 0 0.00115097 0 0)
(0.0272902 0.00522479 0 0.00110775 0 0)
(0.0250857 0.00489629 0 0.00106395 0 0)
(0.0230275 0.00457943 0 0.00101971 0 0)
(0.0211102 0.00427462 0 0.000975164 0 0)
(0.0193283 0.00398219 0 0.000930401 0 0)
(0.0176766 0.00370233 0 0.00088551 0 0)
(0.0161489 0.00343526 0 0.000840615 0 0)
(0.0147398 0.0031811 0 0.000795816 0 0)
(0.0134436 0.00293996 0 0.000751221 0 0)
(0.0122539 0.00271186 0 0.000706959 0 0)
(0.0111654 0.0024968 0 0.000663153 0 0)
(0.010172 0.00229468 0 0.00061991 0 0)
(0.00926777 0.00210544 0 0.000577391 0 0)
(0.0084466 0.00192884 0 0.000535729 0 0)
(0.00770282 0.00176471 0 0.000495076 0 0)
(0.00703073 0.0016128 0 0.000455613 0 0)
(0.00642435 0.0014727 0 0.000417484 0 0)
(0.0058781 0.00134408 0 0.000380887 0 0)
(0.00538644 0.00122647 0 0.000346002 0 0)
(0.00494387 0.00111941 0 0.000313018 0 0)
(0.00454512 0.00102232 0 0.000282102 0 0)
(0.00418511 0.000934602 0 0.000253423 0 0)
(0.00385883 0.000855618 0 0.000227124 0 0)
(0.00356161 0.00078469 0 0.000203322 0 0)
(0.00328886 0.000721126 0 0.000182111 0 0)
(0.00303624 0.000664228 0 0.00016355 0 0)
(0.00279978 0.000613316 0 0.000147665 0 0)
(0.00257559 0.00056769 0 0.000134432 0 0)
(0.00236021 0.000526684 0 0.000123794 0 0)
(0.00215068 0.000489637 0 0.000115648 0 0)
(0.00194436 0.000455856 0 0.000109849 0 0)
(0.00173935 0.000424631 0 0.000106224 0 0)
(0.00153454 0.000395192 0 0.000104563 0 0)
(0.00132966 0.000366692 0 0.000104631 0 0)
(0.00112571 0.000338222 0 0.000106168 0 0)
(0.000924901 0.000308832 0 0.000108889 0 0)
(0.000730656 0.000277577 0 0.00011248 0 0)
(0.000547719 0.000243637 0 0.000116602 0 0)
(0.000381602 0.000206362 0 0.000120873 0 0)
(0.000238683 0.00016557 0 0.000124973 0 0)
(0.000124651 0.000121049 0 0.000128252 0 0)
(4.56644e-05 7.42785e-05 0 0.000131548 0 0)
(4.81478e-06 2.41282e-05 0 0.000131572 0 0)
(0.0767221 -0.00358274 0 0.0164169 0 0)
(0.0294426 0.00458853 0 0.00771229 0 0)
(0.0105897 -0.00236004 0 0.00503707 0 0)
(0.00345865 -0.000545247 0 0.00449993 0 0)
(0.00291722 -0.000553286 0 0.00451405 0 0)
(0.00361775 -0.00150502 0 0.00477376 0 0)
(0.0044422 -0.00243511 0 0.00511523 0 0)
(0.00521174 -0.00320622 0 0.00542371 0 0)
(0.00623835 -0.00390568 0 0.0056854 0 0)
(0.00765896 -0.00459956 0 0.00590546 0 0)
(0.00944213 -0.00531207 0 0.00608142 0 0)
(0.011507 -0.00603779 0 0.00621295 0 0)
(0.0138066 -0.00675591 0 0.00631066 0 0)
(0.0163393 -0.00744005 0 0.006387 0 0)
(0.0191181 -0.00806643 0 0.00644302 0 0)
(0.0221174 -0.00861758 0 0.00646928 0 0)
(0.025268 -0.00907764 0 0.00645522 0 0)
(0.0285276 -0.00944327 0 0.00639858 0 0)
(0.0318958 -0.00972867 0 0.00630978 0 0)
(0.0353546 -0.00993893 0 0.0061996 0 0)
(0.0388363 -0.010051 0 0.00606557 0 0)
(0.0422561 -0.0100269 0 0.00589387 0 0)
(0.0455853 -0.00984759 0 0.00567355 0 0)
(0.0488918 -0.00954245 0 0.00541393 0 0)
(0.0522648 -0.00917608 0 0.00514977 0 0)
(0.0557096 -0.00880331 0 0.00492276 0 0)
(0.0591317 -0.00844712 0 0.00475282 0 0)
(0.0623954 -0.0081091 0 0.00462831 0 0)
(0.0653909 -0.00777064 0 0.0045243 0 0)
(0.0680861 -0.00737929 0 0.00442018 0 0)
(0.0705153 -0.00685965 0 0.00429433 0 0)
(0.0727005 -0.00614855 0 0.00411547 0 0)
(0.0745883 -0.0052174 0 0.00385835 0 0)
(0.076064 -0.00407854 0 0.00353186 0 0)
(0.0770329 -0.00279517 0 0.00318634 0 0)
(0.0775053 -0.00147943 0 0.00288732 0 0)
(0.0776086 -0.000249513 0 0.00267545 0 0)
(0.0774997 0.000835376 0 0.00254722 0 0)
(0.0772561 0.00180642 0 0.00247009 0 0)
(0.0768331 0.00275899 0 0.00240776 0 0)
(0.0760986 0.00379656 0 0.00232941 0 0)
(0.0749019 0.00497631 0 0.00221574 0 0)
(0.0731371 0.00627159 0 0.00207725 0 0)
(0.0707862 0.007569 0 0.00195809 0 0)
(0.0679184 0.00871121 0 0.00190398 0 0)
(0.0646603 0.00956357 0 0.00192424 0 0)
(0.061155 0.0100633 0 0.00198798 0 0)
(0.0575314 0.0102267 0 0.00205204 0 0)
(0.0538905 0.0101227 0 0.00208811 0 0)
(0.0503063 0.00983736 0 0.00208958 0 0)
(0.0468284 0.00944625 0 0.00206328 0 0)
(0.0434878 0.00900372 0 0.0020194 0 0)
(0.0403024 0.00854236 0 0.0019658 0 0)
(0.03728 0.00807961 0 0.00190719 0 0)
(0.0344226 0.00762379 0 0.00184594 0 0)
(0.031729 0.00717852 0 0.00178305 0 0)
(0.0291961 0.0067455 0 0.00171901 0 0)
(0.0268192 0.00632562 0 0.00165403 0 0)
(0.0245933 0.00591954 0 0.00158831 0 0)
(0.0225131 0.00552758 0 0.00152196 0 0)
(0.0205734 0.00515024 0 0.00145518 0 0)
(0.0187687 0.00478783 0 0.00138807 0 0)
(0.0170933 0.00444059 0 0.00132078 0 0)
(0.0155414 0.00410872 0 0.00125348 0 0)
(0.0141074 0.00379241 0 0.00118631 0 0)
(0.0127857 0.0034917 0 0.00111942 0 0)
(0.0115701 0.00320675 0 0.00105304 0 0)
(0.0104551 0.00293757 0 0.000987331 0 0)
(0.00943493 0.00268409 0 0.000922485 0 0)
(0.00850397 0.00244628 0 0.000858738 0 0)
(0.00765616 0.00222395 0 0.000796303 0 0)
(0.00688602 0.00201699 0 0.000735464 0 0)
(0.00618799 0.00182509 0 0.000676427 0 0)
(0.00555658 0.00164798 0 0.000619478 0 0)
(0.00498642 0.00148529 0 0.000564888 0 0)
(0.00447233 0.00133657 0 0.000512914 0 0)
(0.00400918 0.00120133 0 0.000463823 0 0)
(0.00359221 0.00107902 0 0.000417866 0 0)
(0.00321676 0.000969015 0 0.000375281 0 0)
(0.00287844 0.000870652 0 0.000336286 0 0)
(0.00257313 0.000783211 0 0.000301072 0 0)
(0.00229706 0.000705925 0 0.00026978 0 0)
(0.00204668 0.000637984 0 0.000242514 0 0)
(0.00181878 0.000578534 0 0.00021932 0 0)
(0.00161054 0.000526686 0 0.000200181 0 0)
(0.00141941 0.00048151 0 0.00018502 0 0)
(0.00124327 0.000442049 0 0.000173696 0 0)
(0.00108033 0.00040731 0 0.000166012 0 0)
(0.000929174 0.000376283 0 0.000161727 0 0)
(0.000788798 0.000347902 0 0.00016053 0 0)
(0.000658563 0.000321108 0 0.000162081 0 0)
(0.000538209 0.000294879 0 0.000166018 0 0)
(0.000427886 0.000268201 0 0.000171885 0 0)
(0.000328039 0.000240175 0 0.000179198 0 0)
(0.000239453 0.000210054 0 0.000187364 0 0)
(0.00016308 0.000177308 0 0.000195739 0 0)
(0.000100158 0.00014183 0 0.000203751 0 0)
(5.16117e-05 0.00010343 0 0.000210211 0 0)
(1.8785e-05 6.32705e-05 0 0.000216341 0 0)
(2.00563e-06 2.0581e-05 0 0.000216304 0 0)
(0.0741769 -0.00491344 0 0.0152229 0 0)
(0.0302091 0.00690122 0 0.00795587 0 0)
(0.00998916 -0.001997 0 0.00605205 0 0)
(0.00308127 -2.97783e-06 0 0.00589211 0 0)
(0.00253602 -0.000200784 0 0.00624456 0 0)
(0.00314355 -0.0014831 0 0.0067457 0 0)
(0.00402226 -0.0026207 0 0.00721547 0 0)
(0.00491021 -0.00348236 0 0.00760985 0 0)
(0.00598624 -0.00424268 0 0.00794744 0 0)
(0.00738564 -0.00503548 0 0.00824983 0 0)
(0.00911848 -0.00589183 0 0.00851416 0 0)
(0.0111279 -0.00677346 0 0.00873012 0 0)
(0.013378 -0.00762193 0 0.00890088 0 0)
(0.0158605 -0.00839422 0 0.009009 0 0)
(0.0185638 -0.00906733 0 0.00899756 0 0)
(0.0214588 -0.00962232 0 0.00884152 0 0)
(0.0245069 -0.0100552 0 0.00860438 0 0)
(0.0276812 -0.0103909 0 0.00837504 0 0)
(0.0309746 -0.0106559 0 0.00818149 0 0)
(0.0343777 -0.0108478 0 0.00799524 0 0)
(0.0378544 -0.0109459 0 0.00778066 0 0)
(0.0413447 -0.0109361 0 0.0075312 0 0)
(0.0447821 -0.0108262 0 0.00727894 0 0)
(0.0481202 -0.0106444 0 0.0070621 0 0)
(0.0513548 -0.0104131 0 0.00688601 0 0)
(0.0545189 -0.0101214 0 0.00672611 0 0)
(0.0576364 -0.0097337 0 0.00654999 0 0)
(0.0606759 -0.00922168 0 0.0063309 0 0)
(0.0635421 -0.00858162 0 0.00606674 0 0)
(0.0661153 -0.00783377 0 0.00578752 0 0)
(0.0683227 -0.007007 0 0.005524 0 0)
(0.0701913 -0.00610239 0 0.00527277 0 0)
(0.0718173 -0.00507949 0 0.00499866 0 0)
(0.0732657 -0.00390276 0 0.00466737 0 0)
(0.0745114 -0.00259964 0 0.0042947 0 0)
(0.0754745 -0.00127205 0 0.00396185 0 0)
(0.0761028 -4.98658e-05 0 0.0037436 0 0)
(0.0764168 0.000997227 0 0.00363572 0 0)
(0.0764794 0.00192378 0 0.00358254 0 0)
(0.0763152 0.00287916 0 0.00353193 0 0)
(0.0758613 0.00401351 0 0.0034339 0 0)
(0.0749794 0.00539648 0 0.00324747 0 0)
(0.0735144 0.00697864 0 0.00299332 0 0)
(0.07137 0.00859739 0 0.00276325 0 0)
(0.0685638 0.0100352 0 0.00264591 0 0)
(0.0652295 0.0111111 0 0.00265618 0 0)
(0.0615647 0.011746 0 0.00274088 0 0)
(0.0577633 0.0119677 0 0.00283221 0 0)
(0.0539722 0.011867 0 0.00288797 0 0)
(0.0502816 0.0115502 0 0.00289746 0 0)
(0.0467382 0.011106 0 0.00286849 0 0)
(0.0433613 0.0105972 0 0.00281368 0 0)
(0.0401567 0.0100613 0 0.0027434 0 0)
(0.037125 0.00951969 0 0.00266436 0 0)
(0.0342632 0.00898332 0 0.00258032 0 0)
(0.0315673 0.00845767 0 0.00249324 0 0)
(0.029033 0.00794554 0 0.00240408 0 0)
(0.0266552 0.00744851 0 0.00231344 0 0)
(0.0244291 0.00696765 0 0.0022217 0 0)
(0.0223487 0.00650365 0 0.00212914 0 0)
(0.020409 0.00605688 0 0.00203597 0 0)
(0.0186039 0.00562777 0 0.00194238 0 0)
(0.016928 0.00521665 0 0.0018486 0 0)
(0.0153753 0.0048237 0 0.00175483 0 0)
(0.0139401 0.00444913 0 0.00166129 0 0)
(0.0126168 0.00409303 0 0.00156818 0 0)
(0.0113994 0.00375549 0 0.00147579 0 0)
(0.0102818 0.00343655 0 0.00138439 0 0)
(0.00925851 0.00313615 0 0.00129424 0 0)
(0.0083237 0.00285415 0 0.00120564 0 0)
(0.00747161 0.0025904 0 0.00111888 0 0)
(0.00669648 0.00234471 0 0.00103436 0 0)
(0.00599285 0.0021167 0 0.000952341 0 0)
(0.00535541 0.00190614 0 0.000873269 0 0)
(0.00477879 0.00171249 0 0.000797422 0 0)
(0.00425784 0.00153529 0 0.000725202 0 0)
(0.00378779 0.00137395 0 0.000656941 0 0)
(0.00336391 0.00122784 0 0.000592987 0 0)
(0.00298183 0.00109625 0 0.000533656 0 0)
(0.0026375 0.000978445 0 0.000479239 0 0)
(0.00232716 0.000873586 0 0.000429979 0 0)
(0.00204724 0.000780784 0 0.000386071 0 0)
(0.00179463 0.000699107 0 0.000347646 0 0)
(0.0015665 0.000627587 0 0.000314783 0 0)
(0.0013604 0.000565173 0 0.000287443 0 0)
(0.00117408 0.000510755 0 0.000265513 0 0)
(0.0010057 0.000463227 0 0.000248815 0 0)
(0.000853638 0.000421434 0 0.000237077 0 0)
(0.000716573 0.000384211 0 0.000229954 0 0)
(0.000593389 0.000350409 0 0.000227039 0 0)
(0.000483208 0.000318913 0 0.00022785 0 0)
(0.00038529 0.000288675 0 0.000231851 0 0)
(0.000299109 0.000258779 0 0.000238446 0 0)
(0.000224235 0.000228438 0 0.00024696 0 0)
(0.000160381 0.000197073 0 0.000256642 0 0)
(0.000107306 0.000164252 0 0.000266617 0 0)
(6.49574e-05 0.000129944 0 0.000276204 0 0)
(3.31489e-05 9.39413e-05 0 0.00028389 0 0)
(1.20077e-05 5.70796e-05 0 0.000291263 0 0)
(1.33069e-06 1.86315e-05 0 0.000291474 0 0)
(0.0804309 -0.00581722 0 0.0158294 0 0)
(0.0289888 0.00666624 0 0.00873979 0 0)
(0.0117616 -0.0037483 0 0.0069485 0 0)
(0.00461093 -0.00126611 0 0.00701956 0 0)
(0.00382089 -0.00133392 0 0.00762998 0 0)