# vtk DataFile Version 2.0
sampleSurface
ASCII
DATASET POLYDATA
POINTS 652 double
0 0 0
0.02 0 0
0.02 0 0.1
0 0 0.1
0.04 0 0
0.04 0 0.1
0.06 0 0
0.06 0 0.1
0.08 0 0
0.08 0 0.1
0.1 0 0
0.1 0 0.1
0.12 0 0
0.12 0 0.1
0.14 0 0
0.14 0 0.1
0.16 0 0
0.16 0 0.1
0.18 0 0
0.18 0 0.1
0.2 0 0
0.2 0 0.1
0.22 0 0
0.22 0 0.1
0.24 0 0
0.24 0 0.1
0.26 0 0
0.26 0 0.1
0.28 0 0
0.28 0 0.1
0.3 0 0
0.3 0 0.1
0.32 0 0
0.32 0 0.1
0.34 0 0
0.34 0 0.1
0.36 0 0
0.36 0 0.1
0.38 0 0
0.38 0 0.1
0.4 0 0
0.4 0 0.1
0.42 0 0
0.42 0 0.1
0.44 0 0
0.44 0 0.1
0.46 0 0
0.46 0 0.1
0.48 0 0
0.48 0 0.1
0.5 0 0
0.5 0 0.1
0.52 0 0
0.52 0 0.1
0.54 0 0
0.54 0 0.1
0.56 0 0
0.56 0 0.1
0.58 0 0
0.58 0 0.1
0.6 0 0
0.6 0 0.1
0.62 0 0
0.62 0 0.1
0.64 0 0
0.64 0 0.1
0.66 0 0
0.66 0 0.1
0.68 0 0
0.68 0 0.1
0.7 0 0
0.7 0 0.1
0.72 0 0
0.72 0 0.1
0.74 0 0
0.74 0 0.1
0.76 0 0
0.76 0 0.1
0.78 0 0
0.78 0 0.1
0.8 0 0
0.8 0 0.1
0.82 0 0
0.82 0 0.1
0.84 0 0
0.84 0 0.1
0.86 0 0
0.86 0 0.1
0.88 0 0
0.88 0 0.1
0.9 0 0
0.9 0 0.1
0.92 0 0
0.92 0 0.1
0.94 0 0
0.94 0 0.1
0.96 0 0
0.96 0 0.1
0.98 0 0
0.98 0 0.1
1 0 0
1 0 0.1
1.02 0 0
1.02 0 0.1
1.04 0 0
1.04 0 0.1
1.06 0 0
1.06 0 0.1
1.08 0 0
1.08 0 0.1
1.1 0 0
1.1 0 0.1
1.12 0 0
1.12 0 0.1
1.14 0 0
1.14 0 0.1
1.16 0 0
1.16 0 0.1
1.18 0 0
1.18 0 0.1
1.2 0 0
1.2 0 0.1
1.22 0 0
1.22 0 0.1
1.24 0 0
1.24 0 0.1
1.26 0 0
1.26 0 0.1
1.28 0 0
1.28 0 0.1
1.3 0 0
1.3 0 0.1
1.32 0 0
1.32 0 0.1
1.34 0 0
1.34 0 0.1
1.36 0 0
1.36 0 0.1
1.38 0 0
1.38 0 0.1
1.4 0 0
1.4 0 0.1
1.42 0 0
1.42 0 0.1
1.44 0 0
1.44 0 0.1
1.46 0 0
1.46 0 0.1
1.48 0 0
1.48 0 0.1
1.5 0 0
1.5 0 0.1
1.52 0 0
1.52 0 0.1
1.54 0 0
1.54 0 0.1
1.56 0 0
1.56 0 0.1
1.58 0 0
1.58 0 0.1
1.6 0 0
1.6 0 0.1
1.62 0 0
1.62 0 0.1
1.64 0 0
1.64 0 0.1
1.66 0 0
1.66 0 0.1
1.68 0 0
1.68 0 0.1
1.7 0 0
1.7 0 0.1
1.72 0 0
1.72 0 0.1
1.74 0 0
1.74 0 0.1
1.76 0 0
1.76 0 0.1
1.78 0 0
1.78 0 0.1
1.8 0 0
1.8 0 0.1
1.82 0 0
1.82 0 0.1
1.84 0 0
1.84 0 0.1
1.86 0 0
1.86 0 0.1
1.88 0 0
1.88 0 0.1
1.9 0 0
1.9 0 0.1
1.92 0 0
1.92 0 0.1
1.94 0 0
1.94 0 0.1
1.96 0 0
1.96 0 0.1
1.98 0 0
1.98 0 0.1
2 0 0
2 0 0.1
2 0.02 0
2 0.02 0.1
2 0.04 0
2 0.04 0.1
2 0.06 0
2 0.06 0.1
2 0.08 0
2 0.08 0.1
2 0.1 0
2 0.1 0.1
2 0.12 0
2 0.12 0.1
2 0.14 0
2 0.14 0.1
2 0.16 0
2 0.16 0.1
2 0.18 0
2 0.18 0.1
2 0.2 0
2 0.2 0.1
2 0.22 0
2 0.22 0.1
2 0.24 0
2 0.24 0.1
2 0.26 0
2 0.26 0.1
2 0.28 0
2 0.28 0.1
2 0.3 0
2 0.3 0.1
2 0.32 0
2 0.32 0.1
2 0.34 0
2 0.34 0.1
2 0.36 0
2 0.36 0.1
2 0.38 0
2 0.38 0.1
2 0.4 0
2 0.4 0.1
2 0.42 0
2 0.42 0.1
2 0.44 0
2 0.44 0.1
2 0.46 0
2 0.46 0.1
2 0.48 0
2 0.48 0.1
2 0.5 0
2 0.5 0.1
2 0.52 0
2 0.52 0.1
2 0.54 0
2 0.54 0.1
2 0.56 0
2 0.56 0.1
2 0.58 0
2 0.58 0.1
2 0.6 0
2 0.6 0.1
2 0.62 0
2 0.62 0.1
2 0.64 0
2 0.64 0.1
2 0.66 0
2 0.66 0.1
2 0.68 0
2 0.68 0.1
2 0.7 0
2 0.7 0.1
2 0.72 0
2 0.72 0.1
2 0.74 0
2 0.74 0.1
2 0.76 0
2 0.76 0.1
2 0.78 0
2 0.78 0.1
2 0.8 0
2 0.8 0.1
2 0.82 0
2 0.82 0.1
2 0.84 0
2 0.84 0.1
2 0.86 0
2 0.86 0.1
2 0.88 0
2 0.88 0.1
2 0.9 0
2 0.9 0.1
2 0.92 0
2 0.92 0.1
2 0.94 0
2 0.94 0.1
2 0.96 0
2 0.96 0.1
2 0.98 0
2 0.98 0.1
2 1 0
2 1 0.1
2.02 1 0
2.02 1 0.1
2.04 1 0
2.04 1 0.1
2.06 1 0
2.06 1 0.1
2.08 1 0
2.08 1 0.1
2.1 1 0
2.1 1 0.1
2.12 1 0
2.12 1 0.1
2.14 1 0
2.14 1 0.1
2.16 1 0
2.16 1 0.1
2.18 1 0
2.18 1 0.1
2.2 1 0
2.2 1 0.1
2.22 1 0
2.22 1 0.1
2.24 1 0
2.24 1 0.1
2.26 1 0
2.26 1 0.1
2.28 1 0
2.28 1 0.1
2.3 1 0
2.3 1 0.1
2.32 1 0
2.32 1 0.1
2.34 1 0
2.34 1 0.1
2.36 1 0
2.36 1 0.1
2.38 1 0
2.38 1 0.1
2.4 1 0
2.4 1 0.1
2.42 1 0
2.42 1 0.1
2.44 1 0
2.44 1 0.1
2.46 1 0
2.46 1 0.1
2.48 1 0
2.48 1 0.1
2.5 1 0
2.5 1 0.1
2.5 0 0
2.5 0 0.1
2.5 0.02 0.1
2.5 0.02 0
2.5 0.04 0.1
2.5 0.04 0
2.5 0.06 0.1
2.5 0.06 0
2.5 0.08 0.1
2.5 0.08 0
2.5 0.1 0.1
2.5 0.1 0
2.5 0.12 0.1
2.5 0.12 0
2.5 0.14 0.1
2.5 0.14 0
2.5 0.16 0.1
2.5 0.16 0
2.5 0.18 0.1
2.5 0.18 0
2.5 0.2 0.1
2.5 0.2 0
2.5 0.22 0.1
2.5 0.22 0
2.5 0.24 0.1
2.5 0.24 0
2.5 0.26 0.1
2.5 0.26 0
2.5 0.28 0.1
2.5 0.28 0
2.5 0.3 0.1
2.5 0.3 0
2.5 0.32 0.1
2.5 0.32 0
2.5 0.34 0.1
2.5 0.34 0
2.5 0.36 0.1
2.5 0.36 0
2.5 0.38 0.1
2.5 0.38 0
2.5 0.4 0.1
2.5 0.4 0
2.5 0.42 0.1
2.5 0.42 0
2.5 0.44 0.1
2.5 0.44 0
2.5 0.46 0.1
2.5 0.46 0
2.5 0.48 0.1
2.5 0.48 0
2.5 0.5 0.1
2.5 0.5 0
2.5 0.52 0.1
2.5 0.52 0
2.5 0.54 0.1
2.5 0.54 0
2.5 0.56 0.1
2.5 0.56 0
2.5 0.58 0.1
2.5 0.58 0
2.5 0.6 0.1
2.5 0.6 0
2.5 0.62 0.1
2.5 0.62 0
2.5 0.64 0.1
2.5 0.64 0
2.5 0.66 0.1
2.5 0.66 0
2.5 0.68 0.1
2.5 0.68 0
2.5 0.7 0.1
2.5 0.7 0
2.5 0.72 0.1
2.5 0.72 0
2.5 0.74 0.1
2.5 0.74 0
2.5 0.76 0.1
2.5 0.76 0
2.5 0.78 0.1
2.5 0.78 0
2.5 0.8 0.1
2.5 0.8 0
2.5 0.82 0.1
2.5 0.82 0
2.5 0.84 0.1
2.5 0.84 0
2.5 0.86 0.1
2.5 0.86 0
2.5 0.88 0.1
2.5 0.88 0
2.5 0.9 0.1
2.5 0.9 0
2.5 0.92 0.1
2.5 0.92 0
2.5 0.94 0.1
2.5 0.94 0
2.5 0.96 0.1
2.5 0.96 0
2.5 0.98 0.1
2.5 0.98 0
2.52 0 0
2.52 0 0.1
2.54 0 0
2.54 0 0.1
2.56 0 0
2.56 0 0.1
2.58 0 0
2.58 0 0.1
2.6 0 0
2.6 0 0.1
2.62 0 0
2.62 0 0.1
2.64 0 0
2.64 0 0.1
2.66 0 0
2.66 0 0.1
2.68 0 0
2.68 0 0.1
2.7 0 0
2.7 0 0.1
2.72 0 0
2.72 0 0.1
2.74 0 0
2.74 0 0.1
2.76 0 0
2.76 0 0.1
2.78 0 0
2.78 0 0.1
2.8 0 0
2.8 0 0.1
2.82 0 0
2.82 0 0.1
2.84 0 0
2.84 0 0.1
2.86 0 0
2.86 0 0.1
2.88 0 0
2.88 0 0.1
2.9 0 0
2.9 0 0.1
2.92 0 0
2.92 0 0.1
2.94 0 0
2.94 0 0.1
2.96 0 0
2.96 0 0.1
2.98 0 0
2.98 0 0.1
3 0 0
3 0 0.1
3.02 0 0
3.02 0 0.1
3.04 0 0
3.04 0 0.1
3.06 0 0
3.06 0 0.1
3.08 0 0
3.08 0 0.1
3.1 0 0
3.1 0 0.1
3.12 0 0
3.12 0 0.1
3.14 0 0
3.14 0 0.1
3.16 0 0
3.16 0 0.1
3.18 0 0
3.18 0 0.1
3.2 0 0
3.2 0 0.1
3.22 0 0
3.22 0 0.1
3.24 0 0
3.24 0 0.1
3.26 0 0
3.26 0 0.1
3.28 0 0
3.28 0 0.1
3.3 0 0
3.3 0 0.1
3.32 0 0
3.32 0 0.1
3.34 0 0
3.34 0 0.1
3.36 0 0
3.36 0 0.1
3.38 0 0
3.38 0 0.1
3.4 0 0
3.4 0 0.1
3.42 0 0
3.42 0 0.1
3.44 0 0
3.44 0 0.1
3.46 0 0
3.46 0 0.1
3.48 0 0
3.48 0 0.1
3.5 0 0
3.5 0 0.1
3.52 0 0
3.52 0 0.1
3.54 0 0
3.54 0 0.1
3.56 0 0
3.56 0 0.1
3.58 0 0
3.58 0 0.1
3.6 0 0
3.6 0 0.1
3.62 0 0
3.62 0 0.1
3.64 0 0
3.64 0 0.1
3.66 0 0
3.66 0 0.1
3.68 0 0
3.68 0 0.1
3.7 0 0
3.7 0 0.1
3.72 0 0
3.72 0 0.1
3.74 0 0
3.74 0 0.1
3.76 0 0
3.76 0 0.1
3.78 0 0
3.78 0 0.1
3.8 0 0
3.8 0 0.1
3.82 0 0
3.82 0 0.1
3.84 0 0
3.84 0 0.1
3.86 0 0
3.86 0 0.1
3.88 0 0
3.88 0 0.1
3.9 0 0
3.9 0 0.1
3.92 0 0
3.92 0 0.1
3.94 0 0
3.94 0 0.1
3.96 0 0
3.96 0 0.1
3.98 0 0
3.98 0 0.1
4 0 0
4 0 0.1
4.02 0 0
4.02 0 0.1
4.04 0 0
4.04 0 0.1
4.06 0 0
4.06 0 0.1
4.08 0 0
4.08 0 0.1
4.1 0 0
4.1 0 0.1
4.12 0 0
4.12 0 0.1
4.14 0 0
4.14 0 0.1
4.16 0 0
4.16 0 0.1
4.18 0 0
4.18 0 0.1
4.2 0 0
4.2 0 0.1
4.22 0 0
4.22 0 0.1
4.24 0 0
4.24 0 0.1
4.26 0 0
4.26 0 0.1
4.28 0 0
4.28 0 0.1
4.3 0 0
4.3 0 0.1
4.32 0 0
4.32 0 0.1
4.34 0 0
4.34 0 0.1
4.36 0 0
4.36 0 0.1
4.38 0 0
4.38 0 0.1
4.4 0 0
4.4 0 0.1
4.42 0 0
4.42 0 0.1
4.44 0 0
4.44 0 0.1
4.46 0 0
4.46 0 0.1
4.48 0 0
4.48 0 0.1
4.5 0 0
4.5 0 0.1

POLYGONS 325 1625
4 0 1 2 3
4 1 4 5 2
4 4 6 7 5
4 6 8 9 7
4 8 10 11 9
4 10 12 13 11
4 12 14 15 13
4 14 16 17 15
4 16 18 19 17
4 18 20 21 19
4 20 22 23 21
4 22 24 25 23
4 24 26 27 25
4 26 28 29 27
4 28 30 31 29
4 30 32 33 31
4 32 34 35 33
4 34 36 37 35
4 36 38 39 37
4 38 40 41 39
4 40 42 43 41
4 42 44 45 43
4 44 46 47 45
4 46 48 49 47
4 48 50 51 49
4 50 52 53 51
4 52 54 55 53
4 54 56 57 55
4 56 58 59 57
4 58 60 61 59
4 60 62 63 61
4 62 64 65 63
4 64 66 67 65
4 66 68 69 67
4 68 70 71 69
4 70 72 73 71
4 72 74 75 73
4 74 76 77 75
4 76 78 79 77
4 78 80 81 79
4 80 82 83 81
4 82 84 85 83
4 84 86 87 85
4 86 88 89 87
4 88 90 91 89
4 90 92 93 91
4 92 94 95 93
4 94 96 97 95
4 96 98 99 97
4 98 100 101 99
4 100 102 103 101
4 102 104 105 103
4 104 106 107 105
4 106 108 109 107
4 108 110 111 109
4 110 112 113 111
4 112 114 115 113
4 114 116 117 115
4 116 118 119 117
4 118 120 121 119
4 120 122 123 121
4 122 124 125 123
4 124 126 127 125
4 126 128 129 127
4 128 130 131 129
4 130 132 133 131
4 132 134 135 133
4 134 136 137 135
4 136 138 139 137
4 138 140 141 139
4 140 142 143 141
4 142 144 145 143
4 144 146 147 145
4 146 148 149 147
4 148 150 151 149
4 150 152 153 151
4 152 154 155 153
4 154 156 157 155
4 156 158 159 157
4 158 160 161 159
4 160 162 163 161
4 162 164 165 163
4 164 166 167 165
4 166 168 169 167
4 168 170 171 169
4 170 172 173 171
4 172 174 175 173
4 174 176 177 175
4 176 178 179 177
4 178 180 181 179
4 180 182 183 181
4 182 184 185 183
4 184 186 187 185
4 186 188 189 187
4 188 190 191 189
4 190 192 193 191
4 192 194 195 193
4 194 196 197 195
4 196 198 199 197
4 198 200 201 199
4 200 202 203 201
4 202 204 205 203
4 204 206 207 205
4 206 208 209 207
4 208 210 211 209
4 210 212 213 211
4 212 214 215 213
4 214 216 217 215
4 216 218 219 217
4 218 220 221 219
4 220 222 223 221
4 222 224 225 223
4 224 226 227 225
4 226 228 229 227
4 228 230 231 229
4 230 232 233 231
4 232 234 235 233
4 234 236 237 235
4 236 238 239 237
4 238 240 241 239
4 240 242 243 241
4 242 244 245 243
4 244 246 247 245
4 246 248 249 247
4 248 250 251 249
4 250 252 253 251
4 252 254 255 253
4 254 256 257 255
4 256 258 259 257
4 258 260 261 259
4 260 262 263 261
4 262 264 265 263
4 264 266 267 265
4 266 268 269 267
4 268 270 271 269
4 270 272 273 271
4 272 274 275 273
4 274 276 277 275
4 276 278 279 277
4 278 280 281 279
4 280 282 283 281
4 282 284 285 283
4 284 286 287 285
4 286 288 289 287
4 288 290 291 289
4 290 292 293 291
4 292 294 295 293
4 294 296 297 295
4 296 298 299 297
4 298 300 301 299
4 300 302 303 301
4 302 304 305 303
4 304 306 307 305
4 306 308 309 307
4 308 310 311 309
4 310 312 313 311
4 312 314 315 313
4 314 316 317 315
4 316 318 319 317
4 318 320 321 319
4 320 322 323 321
4 322 324 325 323
4 324 326 327 325
4 326 328 329 327
4 328 330 331 329
4 330 332 333 331
4 332 334 335 333
4 334 336 337 335
4 336 338 339 337
4 338 340 341 339
4 340 342 343 341
4 342 344 345 343
4 344 346 347 345
4 346 348 349 347
4 348 350 351 349
4 352 353 354 355
4 355 354 356 357
4 357 356 358 359
4 359 358 360 361
4 361 360 362 363
4 363 362 364 365
4 365 364 366 367
4 367 366 368 369
4 369 368 370 371
4 371 370 372 373
4 373 372 374 375
4 375 374 376 377
4 377 376 378 379
4 379 378 380 381
4 381 380 382 383
4 383 382 384 385
4 385 384 386 387
4 387 386 388 389
4 389 388 390 391
4 391 390 392 393
4 393 392 394 395
4 395 394 396 397
4 397 396 398 399
4 399 398 400 401
4 401 400 402 403
4 403 402 404 405
4 405 404 406 407
4 407 406 408 409
4 409 408 410 411
4 411 410 412 413
4 413 412 414 415
4 415 414 416 417
4 417 416 418 419
4 419 418 420 421
4 421 420 422 423
4 423 422 424 425
4 425 424 426 427
4 427 426 428 429
4 429 428 430 431
4 431 430 432 433
4 433 432 434 435
4 435 434 436 437
4 437 436 438 439
4 439 438 440 441
4 441 440 442 443
4 443 442 444 445
4 445 444 446 447
4 447 446 448 449
4 449 448 450 451
4 451 450 351 350
4 352 452 453 353
4 452 454 455 453
4 454 456 457 455
4 456 458 459 457
4 458 460 461 459
4 460 462 463 461
4 462 464 465 463
4 464 466 467 465
4 466 468 469 467
4 468 470 471 469
4 470 472 473 471
4 472 474 475 473
4 474 476 477 475
4 476 478 479 477
4 478 480 481 479
4 480 482 483 481
4 482 484 485 483
4 484 486 487 485
4 486 488 489 487
4 488 490 491 489
4 490 492 493 491
4 492 494 495 493
4 494 496 497 495
4 496 498 499 497
4 498 500 501 499
4 500 502 503 501
4 502 504 505 503
4 504 506 507 505
4 506 508 509 507
4 508 510 511 509
4 510 512 513 511
4 512 514 515 513
4 514 516 517 515
4 516 518 519 517
4 518 520 521 519
4 520 522 523 521
4 522 524 525 523
4 524 526 527 525
4 526 528 529 527
4 528 530 531 529
4 530 532 533 531
4 532 534 535 533
4 534 536 537 535
4 536 538 539 537
4 538 540 541 539
4 540 542 543 541
4 542 544 545 543
4 544 546 547 545
4 546 548 549 547
4 548 550 551 549
4 550 552 553 551
4 552 554 555 553
4 554 556 557 555
4 556 558 559 557
4 558 560 561 559
4 560 562 563 561
4 562 564 565 563
4 564 566 567 565
4 566 568 569 567
4 568 570 571 569
4 570 572 573 571
4 572 574 575 573
4 574 576 577 575
4 576 578 579 577
4 578 580 581 579
4 580 582 583 581
4 582 584 585 583
4 584 586 587 585
4 586 588 589 587
4 588 590 591 589
4 590 592 593 591
4 592 594 595 593
4 594 596 597 595
4 596 598 599 597
4 598 600 601 599
4 600 602 603 601
4 602 604 605 603
4 604 606 607 605
4 606 608 609 607
4 608 610 611 609
4 610 612 613 611
4 612 614 615 613
4 614 616 617 615
4 616 618 619 617
4 618 620 621 619
4 620 622 623 621
4 622 624 625 623
4 624 626 627 625
4 626 628 629 627
4 628 630 631 629
4 630 632 633 631
4 632 634 635 633
4 634 636 637 635
4 636 638 639 637
4 638 640 641 639
4 640 642 643 641
4 642 644 645 643
4 644 646 647 645
4 646 648 649 647
4 648 650 651 649
POINT_DATA 652
FIELD attributes 1
U 3 652 float
2.48292 0.0234425 0.0262249
1.24197 0.0117177 0.0131125
1.24197 0.0117177 0.0131125
2.48292 0.0234425 0.0262249
0.00100885 -2.69799e-06 0
0.00100885 -2.69799e-06 0
0.0010089 3.38297e-06 0
0.0010089 3.38297e-06 0
0.00100649 4.18936e-06 0
0.00100649 4.18936e-06 0
0.00100474 2.17194e-06 0
0.00100474 2.17194e-06 0
0.00100443 1.00429e-06 0
0.00100443 1.00429e-06 0
0.00100405 2.18206e-06 0
0.00100405 2.18206e-06 0
0.00100223 4.3346e-06 0
0.00100223 4.3346e-06 0
0.000999122 5.10601e-06 0
0.000999122 5.10601e-06 0
0.000995691 3.4727e-06 0
0.000995691 3.4727e-06 0
0.00099284 5.1277e-07 0
0.00099284 5.1277e-07 0
0.00099097 -1.66286e-06 0
0.00099097 -1.66286e-06 0
0.000989766 -1.67199e-06 0
0.000989766 -1.67199e-06 0
0.000988188 2.51084e-07 0
0.000988188 2.51084e-07 0
0.000985141 2.78576e-06 0
0.000985141 2.78576e-06 0
0.000980286 4.66451e-06 0
0.000980286 4.66451e-06 0
0.000974048 5.3908e-06 0
0.000974048 5.3908e-06 0
0.000967058 5.20397e-06 0
0.000967058 5.20397e-06 0
0.000959819 4.62525e-06 0
0.000959819 4.62525e-06 0
0.000952645 4.06345e-06 0
0.000952645 4.06345e-06 0
0.000945645 3.68852e-06 0
0.000945645 3.68852e-06 0
0.000938771 3.49944e-06 0
0.000938771 3.49944e-06 0
0.000931933 3.43287e-06 0
0.000931933 3.43287e-06 0
0.000925082 3.42885e-06 0
0.000925082 3.42885e-06 0
0.000918198 3.45077e-06 0
0.000918198 3.45077e-06 0
0.000911266 3.48192e-06 0
0.000911266 3.48192e-06 0
0.000904276 3.51645e-06 0
0.000904276 3.51645e-06 0
0.000897224 3.55293e-06 0
0.000897224 3.55293e-06 0
0.000890106 3.59125e-06 0
0.000890106 3.59125e-06 0
0.000882919 3.63156e-06 0
0.000882919 3.63156e-06 0
0.000875658 3.67396e-06 0
0.000875658 3.67396e-06 0
0.000868317 3.71853e-06 0
0.000868317 3.71853e-06 0
0.000860894 3.76529e-06 0
0.000860894 3.76529e-06 0
0.000853383 3.81426e-06 0
0.000853383 3.81426e-06 0
0.00084578 3.86546e-06 0
0.00084578 3.86546e-06 0
0.000838081 3.91889e-06 0
0.000838081 3.91889e-06 0
0.00083028 3.97458e-06 0
0.00083028 3.97458e-06 0
0.000822373 4.03251e-06 0
0.000822373 4.03251e-06 0
0.000814356 4.0927e-06 0
0.000814356 4.0927e-06 0
0.000806224 4.15515e-06 0
0.000806224 4.15515e-06 0
0.000797971 4.21986e-06 0
0.000797971 4.21986e-06 0
0.000789594 4.28683e-06 0
0.000789594 4.28683e-06 0
0.000781087 4.35605e-06 0
0.000781087 4.35605e-06 0
0.000772447 4.42752e-06 0
0.000772447 4.42752e-06 0
0.000763667 4.50122e-06 0
0.000763667 4.50122e-06 0
0.000754743 4.57713e-06 0
0.000754743 4.57713e-06 0
0.00074567 4.65524e-06 0
0.00074567 4.65524e-06 0
0.000736444 4.7355e-06 0
0.000736444 4.7355e-06 0
0.000727059 4.81788e-06 0
0.000727059 4.81788e-06 0
0.000717511 4.90235e-06 0
0.000717511 4.90235e-06 0
0.000707796 4.98885e-06 0
0.000707796 4.98885e-06 0
0.000697908 5.07731e-06 0
0.000697908 5.07731e-06 0
0.000687844 5.16768e-06 0
0.000687844 5.16768e-06 0
0.000677598 5.25988e-06 0
0.000677598 5.25988e-06 0
0.000667166 5.35381e-06 0
0.000667166 5.35381e-06 0
0.000656544 5.44939e-06 0
0.000656544 5.44939e-06 0
0.000645728 5.5465e-06 0
0.000645728 5.5465e-06 0
0.000634715 5.64503e-06 0
0.000634715 5.64503e-06 0
0.000623499 5.74485e-06 0
0.000623499 5.74485e-06 0
0.000612079 5.84584e-06 0
0.000612079 5.84584e-06 0
0.00060045 5.94786e-06 0
0.00060045 5.94786e-06 0
0.000588609 6.05076e-06 0
0.000588609 6.05076e-06 0
0.000576555 6.15444e-06 0
0.000576555 6.15444e-06 0
0.000564284 6.25876e-06 0
0.000564284 6.25876e-06 0
0.000551794 6.36359e-06 0
0.000551794 6.36359e-06 0
0.000539084 6.4688e-06 0
0.000539084 6.4688e-06 0
0.000526153 6.57428e-06 0
0.000526153 6.57428e-06 0
0.000513001 6.6798e-06 0
0.000513001 6.6798e-06 0
0.000499628 6.78442e-06 0
0.000499628 6.78442e-06 0
0.000486035 6.88693e-06 0
0.000486035 6.88693e-06 0
0.000472221 6.98657e-06 0
0.000472221 6.98657e-06 0
0.000458187 7.08303e-06 0
0.000458187 7.08303e-06 0
0.000443937 7.17608e-06 0
0.000443937 7.17608e-06 0
0.000429472 7.26544e-06 0
0.000429472 7.26544e-06 0
0.000414797 7.35077e-06 0
0.000414797 7.35077e-06 0
0.000399915 7.4318e-06 0
0.000399915 7.4318e-06 0
0.00038483 7.50823e-06 0
0.00038483 7.50823e-06 0
0.000369549 7.57982e-06 0
0.000369549 7.57982e-06 0
0.000354077 7.64632e-06 0
0.000354077 7.64632e-06 0
0.000338421 7.70755e-06 0
0.000338421 7.70755e-06 0
0.000322587 7.76334e-06 0
0.000322587 7.76334e-06 0
0.000306584 7.81361e-06 0
0.000306584 7.81361e-06 0
0.00029042 7.85831e-06 0
0.00029042 7.85831e-06 0
0.000274104 7.89749e-06 0
0.000274104 7.89749e-06 0
0.000257644 7.93124e-06 0
0.000257644 7.93124e-06 0
0.00024105 7.95976e-06 0
0.00024105 7.95976e-06 0
0.000224331 7.98329e-06 0
0.000224331 7.98329e-06 0
0.000207498 8.00217e-06 0
0.000207498 8.00217e-06 0
0.000190559 8.01679e-06 0
0.000190559 8.01679e-06 0
0.000173525 8.02762e-06 0
0.000173525 8.02762e-06 0
0.000156405 8.03513e-06 0
0.000156405 8.03513e-06 0
0.000139209 8.03988e-06 0
0.000139209 8.03988e-06 0
0.000121947 8.04242e-06 0
0.000121947 8.04242e-06 0
0.000104627 8.04329e-06 0
0.000104627 8.04329e-06 0
8.72587e-05 8.04302e-06 0
8.72587e-05 8.04302e-06 0
6.98505e-05 8.04212e-06 0
6.98505e-05 8.04212e-06 0
5.24107e-05 8.04076e-06 0
5.24107e-05 8.04076e-06 0
3.49485e-05 8.03894e-06 0
3.49485e-05 8.03894e-06 0
1.74717e-05 8.0373e-06 0
1.74717e-05 8.0373e-06 0
8.73041e-06 8.03668e-06 0
8.73041e-06 8.03668e-06 0
9.29471e-06 1.7558e-05 0
9.29471e-06 1.7558e-05 0
9.70728e-06 3.70892e-05 0
9.70728e-06 3.70892e-05 0
9.50148e-06 5.64233e-05 0
9.50148e-06 5.64233e-05 0
9.45175e-06 7.52235e-05 0
9.45175e-06 7.52235e-05 0
9.47596e-06 9.41954e-05 0
9.47596e-06 9.41954e-05 0
9.5207e-06 0.000113221 0
9.5207e-06 0.000113221 0
9.57446e-06 0.000132333 0
9.57446e-06 0.000132333 0
9.63662e-06 0.000151562 0
9.63662e-06 0.000151562 0
9.7078e-06 0.000170925 0
9.7078e-06 0.000170925 0
9.78852e-06 0.00019044 0
9.78852e-06 0.00019044 0
9.87926e-06 0.000210126 0
9.87926e-06 0.000210126 0
9.98053e-06 0.000230003 0
9.98053e-06 0.000230003 0
1.00929e-05 0.000250093 0
1.00929e-05 0.000250093 0
1.02171e-05 0.00027042 0
1.02171e-05 0.00027042 0
1.03539e-05 0.000291008 0
1.03539e-05 0.000291008 0
1.0504e-05 0.000311881 0
1.0504e-05 0.000311881 0
1.06686e-05 0.000333069 0
1.06686e-05 0.000333069 0
1.08488e-05 0.000354601 0
1.08488e-05 0.000354601 0
1.10457e-05 0.000376509 0
1.10457e-05 0.000376509 0
1.1261e-05 0.000398829 0
1.1261e-05 0.000398829 0
1.14961e-05 0.000421598 0
1.14961e-05 0.000421598 0
1.17532e-05 0.000444857 0
1.17532e-05 0.000444857 0
1.20344e-05 0.000468654 0
1.20344e-05 0.000468654 0
1.23419e-05 0.000493038 0
1.23419e-05 0.000493038 0
1.26797e-05 0.000518066 0
1.26797e-05 0.000518066 0
1.3049e-05 0.000543798 0
1.3049e-05 0.000543798 0
1.34574e-05 0.000570306 0
1.34574e-05 0.000570306 0
1.39082e-05 0.000597671 0
1.39082e-05 0.000597671 0
1.43947e-05 0.000625967 0
1.43947e-05 0.000625967 0
1.49723e-05 0.000655332 0
1.49723e-05 0.000655332 0
1.55408e-05 0.000685812 0
1.55408e-05 0.000685812 0
1.62752e-05 0.000717653 0
1.62752e-05 0.000717653 0
1.70198e-05 0.000750861 0
1.70198e-05 0.000750861 0
1.78885e-05 0.000785769 0
1.78885e-05 0.000785769 0
1.8876e-05 0.000822503 0
1.8876e-05 0.000822503 0
2.00567e-05 0.000861355 0
2.00567e-05 0.000861355 0
2.12221e-05 0.000902456 0
2.12221e-05 0.000902456 0
2.31638e-05 0.000946855 0
2.31638e-05 0.000946855 0
2.4171e-05 0.000993836 0
2.4171e-05 0.000993836 0
2.72025e-05 0.00104535 0
2.72025e-05 0.00104535 0
2.91382e-05 0.00110057 0
2.91382e-05 0.00110057 0
3.3869e-05 0.00116343 0
3.3869e-05 0.00116343 0
3.48423e-05 0.00123056 0
3.48423e-05 0.00123056 0
4.52058e-05 0.00131048 0
4.52058e-05 0.00131048 0
4.60238e-05 0.00139812 0
4.60238e-05 0.00139812 0
7.04733e-05 0.00150957 0
7.04733e-05 0.00150957 0
7.25533e-05 0.00164198 0
7.25533e-05 0.00164198 0
0.000140911 0.00182203 0
0.000140911 0.00182203 0
0.000168815 0.00207101 0
0.000168815 0.00207101 0
0.000252657 0.00137905 0
0.000252657 0.00137905 0
-0.000143476 0.000184988 0
-0.000143476 0.000184988 0
-0.000282504 -0.000107051 0
-0.000282504 -0.000107051 0
-0.000507247 0.000232611 0
-0.000507247 0.000232611 0
-0.00152811 0.000500742 0
-0.00152811 0.000500742 0
-0.00239296 0.000457291 0
-0.00239296 0.000457291 0
-0.00309913 0.000312346 0
-0.00309913 0.000312346 0
-0.00344223 0.000133337 0
-0.00344223 0.000133337 0
-0.00349145 -3.0906e-05 0
-0.00349145 -3.0906e-05 0
-0.00325952 -0.000168082 0
-0.00325952 -0.000168082 0
-0.00282798 -0.000266099 0
-0.00282798 -0.000266099 0
-0.00225004 -0.000321402 0
-0.00225004 -0.000321402 0
-0.00161145 -0.000335368 0
-0.00161145 -0.000335368 0
-0.000975986 -0.000315385 0
-0.000975986 -0.000315385 0
-0.000394351 -0.000279485 0
-0.000394351 -0.000279485 0
0.000110176 -0.000235864 0
0.000110176 -0.000235864 0
0.000513489 -0.000188461 0
0.000513489 -0.000188461 0
0.000835177 -0.000147043 0
0.000835177 -0.000147043 0
0.00108546 -0.000110681 0
0.00108546 -0.000110681 0
0.00128545 -8.18542e-05 0
0.00128545 -8.18542e-05 0
0.00144304 -5.48121e-05 0
0.00144304 -5.48121e-05 0
0.00156691 -3.76635e-05 0
0.00156691 -3.76635e-05 0
0.0016586 -2.32157e-05 0
0.0016586 -2.32157e-05 0
0.00173439 -2.91367e-05 0
0.00173439 -2.91367e-05 0
0.00180381 -3.40723e-05 0
0.00180381 -3.40723e-05 0
0.00101495 -4.26204e-05 0
0.00101495 -4.26204e-05 0
3.9326e-06 -4.37482e-06 0
3.9326e-06 -4.37482e-06 0
3.92568e-06 -8.75414e-06 0
3.92568e-06 -8.75414e-06 0
3.90336e-06 -1.7492e-05 0
3.90336e-06 -1.7492e-05 0
3.86406e-06 -2.61731e-05 0
3.86406e-06 -2.61731e-05 0
3.80757e-06 -3.47666e-05 0
3.80757e-06 -3.47666e-05 0
3.73331e-06 -4.32404e-05 0
3.73331e-06 -4.32404e-05 0
3.64031e-06 -5.1561e-05 0
3.64031e-06 -5.1561e-05 0
3.52714e-06 -5.96917e-05 0
3.52714e-06 -5.96917e-05 0
3.39208e-06 -6.75929e-05 0
3.39208e-06 -6.75929e-05 0
3.233e-06 -7.52207e-05 0
3.233e-06 -7.52207e-05 0
3.04739e-06 -8.25262e-05 0
3.04739e-06 -8.25262e-05 0
2.83226e-06 -8.94548e-05 0
2.83226e-06 -8.94548e-05 0
2.58406e-06 -9.59446e-05 0
2.58406e-06 -9.59446e-05 0
2.29859e-06 -0.000101925 0
2.29859e-06 -0.000101925 0
1.97085e-06 -0.000107316 0
1.97085e-06 -0.000107316 0
1.59483e-06 -0.000112026 0
1.59483e-06 -0.000112026 0
1.16318e-06 -0.000115946 0
1.16318e-06 -0.000115946 0
6.66648e-07 -0.000118953 0
6.66648e-07 -0.000118953 0
9.31755e-08 -0.0001209 0
9.31755e-08 -0.0001209 0
-5.72527e-07 -0.000121617 0
-5.72527e-07 -0.000121617 0
-1.34243e-06 -0.000120894 0
-1.34243e-06 -0.000120894 0
-2.23319e-06 -0.000118484 0
-2.23319e-06 -0.000118484 0
-3.26961e-06 -0.000114097 0
-3.26961e-06 -0.000114097 0
-4.47836e-06 -0.000107386 0
-4.47836e-06 -0.000107386 0
-5.8929e-06 -9.79349e-05 0
-5.8929e-06 -9.79349e-05 0
-7.5546e-06 -8.52466e-05 0
-7.5546e-06 -8.52466e-05 0
-9.51485e-06 -6.87205e-05 0
-9.51485e-06 -6.87205e-05 0
-1.18425e-05 -4.76667e-05 0
-1.18425e-05 -4.76667e-05 0
-1.46118e-05 -2.11304e-05 0
-1.46118e-05 -2.11304e-05 0
-1.79253e-05 1.17428e-05 0
-1.79253e-05 1.17428e-05 0
-2.19427e-05 5.27448e-05 0
-2.19427e-05 5.27448e-05 0
-2.68252e-05 0.000102752 0
-2.68252e-05 0.000102752 0
-3.25313e-05 0.00016464 0
-3.25313e-05 0.00016464 0
-3.94268e-05 0.000238349 0
-3.94268e-05 0.000238349 0
-4.65052e-05 0.000328521 0
-4.65052e-05 0.000328521 0
-5.59429e-05 0.000433152 0
-5.59429e-05 0.000433152 0
-6.40557e-05 0.00055827 0
-6.40557e-05 0.00055827 0
-6.91855e-05 0.000698302 0
-6.91855e-05 0.000698302 0
-7.78312e-05 0.000850094 0
-7.78312e-05 0.000850094 0
-8.35879e-05 0.0010171 0
-8.35879e-05 0.0010171 0
-7.72909e-05 0.0011861 0
-7.72909e-05 0.0011861 0
-5.76332e-05 0.00133358 0
-5.76332e-05 0.00133358 0
-2.5328e-05 0.00143912 0
-2.5328e-05 0.00143912 0
1.92325e-05 0.00147046 0
1.92325e-05 0.00147046 0
7.26136e-05 0.00141553 0
7.26136e-05 0.00141553 0
0.000124981 0.00123633 0
0.000124981 0.00123633 0
0.000171601 0.000974731 0
0.000171601 0.000974731 0
0.000166194 0.000598433 0
0.000166194 0.000598433 0
8.96446e-05 0.000318891 0
8.96446e-05 0.000318891 0
0.000119428 0.000112517 0
0.000119428 0.000112517 0
8.79881e-06 -4.70565e-06 0
8.79881e-06 -4.70565e-06 0
1.87929e-05 -4.94532e-06 0
1.87929e-05 -4.94532e-06 0
2.8636e-05 -4.84164e-06 0
2.8636e-05 -4.84164e-06 0
3.82398e-05 -4.85154e-06 0
3.82398e-05 -4.85154e-06 0
4.80484e-05 -4.90605e-06 0
4.80484e-05 -4.90605e-06 0
5.79522e-05 -4.97518e-06 0
5.79522e-05 -4.97518e-06 0
6.79994e-05 -5.05341e-06 0
6.79994e-05 -5.05341e-06 0
7.82128e-05 -5.13935e-06 0
7.82128e-05 -5.13935e-06 0
8.86052e-05 -5.23165e-06 0
8.86052e-05 -5.23165e-06 0
9.91876e-05 -5.32871e-06 0
9.91876e-05 -5.32871e-06 0
0.000109968 -5.42888e-06 0
0.000109968 -5.42888e-06 0
0.000120951 -5.5305e-06 0
0.000120951 -5.5305e-06 0
0.000132137 -5.63192e-06 0
0.000132137 -5.63192e-06 0
0.000143525 -5.73156e-06 0
0.000143525 -5.73156e-06 0
0.000155109 -5.82793e-06 0
0.000155109 -5.82793e-06 0
0.000166881 -5.91965e-06 0
0.000166881 -5.91965e-06 0
0.000178832 -6.00549e-06 0
0.000178832 -6.00549e-06 0
0.000190948 -6.08434e-06 0
0.000190948 -6.08434e-06 0
0.000203213 -6.15526e-06 0
0.000203213 -6.15526e-06 0
0.000215612 -6.21748e-06 0
0.000215612 -6.21748e-06 0
0.000228126 -6.27035e-06 0
0.000228126 -6.27035e-06 0
0.000240737 -6.3134e-06 0
0.000240737 -6.3134e-06 0
0.000253423 -6.34631e-06 0
0.000253423 -6.34631e-06 0
0.000266165 -6.36891e-06 0
0.000266165 -6.36891e-06 0
0.000278941 -6.38113e-06 0
0.000278941 -6.38113e-06 0
0.000291732 -6.38306e-06 0
0.000291732 -6.38306e-06 0
0.000304516 -6.37487e-06 0
0.000304516 -6.37487e-06 0
0.000317274 -6.35683e-06 0
0.000317274 -6.35683e-06 0
0.000329986 -6.3293e-06 0
0.000329986 -6.3293e-06 0
0.000342634 -6.2927e-06 0
0.000342634 -6.2927e-06 0
0.000355199 -6.24751e-06 0
0.000355199 -6.24751e-06 0
0.000367666 -6.19423e-06 0
0.000367666 -6.19423e-06 0
0.000380018 -6.13342e-06 0
0.000380018 -6.13342e-06 0
0.000392241 -6.06564e-06 0
0.000392241 -6.06564e-06 0
0.000404322 -5.99147e-06 0
0.000404322 -5.99147e-06 0
0.000416248 -5.91149e-06 0
0.000416248 -5.91149e-06 0
0.000428008 -5.82627e-06 0
0.000428008 -5.82627e-06 0
0.000439592 -5.73638e-06 0
0.000439592 -5.73638e-06 0
0.000450992 -5.64237e-06 0
0.000450992 -5.64237e-06 0
0.0004622 -5.54477e-06 0
0.0004622 -5.54477e-06 0
0.000473209 -5.44408e-06 0
0.000473209 -5.44408e-06 0
0.000484013 -5.34079e-06 0
0.000484013 -5.34079e-06 0
0.000494608 -5.23534e-06 0
0.000494608 -5.23534e-06 0
0.00050499 -5.12817e-06 0
0.00050499 -5.12817e-06 0
0.000515156 -5.01968e-06 0
0.000515156 -5.01968e-06 0
0.000525103 -4.91022e-06 0
0.000525103 -4.91022e-06 0
0.00053483 -4.80013e-06 0
0.00053483 -4.80013e-06 0
0.000544336 -4.68974e-06 0
0.000544336 -4.68974e-06 0
0.000553621 -4.57931e-06 0
0.000553621 -4.57931e-06 0
0.000562684 -4.4691e-06 0
0.000562684 -4.4691e-06 0
0.000571527 -4.35936e-06 0
0.000571527 -4.35936e-06 0
0.000580151 -4.25027e-06 0
0.000580151 -4.25027e-06 0
0.000588557 -4.14203e-06 0
0.000588557 -4.14203e-06 0
0.000596747 -4.03479e-06 0
0.000596747 -4.03479e-06 0
0.000604723 -3.9287e-06 0
0.000604723 -3.9287e-06 0
0.000612488 -3.82388e-06 0
0.000612488 -3.82388e-06 0
0.000620045 -3.72044e-06 0
0.000620045 -3.72044e-06 0
0.000627395 -3.61847e-06 0
0.000627395 -3.61847e-06 0
0.000634543 -3.51803e-06 0
0.000634543 -3.51803e-06 0
0.000641491 -3.4192e-06 0
0.000641491 -3.4192e-06 0
0.000648243 -3.32202e-06 0
0.000648243 -3.32202e-06 0
0.000654802 -3.22653e-06 0
0.000654802 -3.22653e-06 0
0.000661171 -3.13275e-06 0
0.000661171 -3.13275e-06 0
0.000667354 -3.04071e-06 0
0.000667354 -3.04071e-06 0
0.000673355 -2.95042e-06 0
0.000673355 -2.95042e-06 0
0.000679176 -2.86187e-06 0
0.000679176 -2.86187e-06 0
0.000684822 -2.77507e-06 0
0.000684822 -2.77507e-06 0
0.000690296 -2.69e-06 0
0.000690296 -2.69e-06 0
0.0006956 -2.60665e-06 0
0.0006956 -2.60665e-06 0
0.00070074 -2.525e-06 0
0.00070074 -2.525e-06 0
0.000705718 -2.44502e-06 0
0.000705718 -2.44502e-06 0
0.000710537 -2.3667e-06 0
0.000710537 -2.3667e-06 0
0.000715201 -2.28999e-06 0
0.000715201 -2.28999e-06 0
0.000719713 -2.21486e-06 0
0.000719713 -2.21486e-06 0
0.000724076 -2.14129e-06 0
0.000724076 -2.14129e-06 0
0.000728293 -2.06923e-06 0
0.000728293 -2.06923e-06 0
0.000732368 -1.99864e-06 0
0.000732368 -1.99864e-06 0
0.000736302 -1.92948e-06 0
0.000736302 -1.92948e-06 0
0.000740099 -1.86171e-06 0
0.000740099 -1.86171e-06 0
0.000743762 -1.79528e-06 0
0.000743762 -1.79528e-06 0
0.000747293 -1.73016e-06 0
0.000747293 -1.73016e-06 0
0.000750695 -1.6663e-06 0
0.000750695 -1.6663e-06 0
0.000753971 -1.60365e-06 0
0.000753971 -1.60365e-06 0
0.000757122 -1.54218e-06 0
0.000757122 -1.54218e-06 0
0.000760151 -1.4818e-06 0
0.000760151 -1.4818e-06 0
0.00076306 -1.42256e-06 0
0.00076306 -1.42256e-06 0
0.000765852 -1.36425e-06 0
0.000765852 -1.36425e-06 0
0.000768527 -1.30707e-06 0
0.000768527 -1.30707e-06 0
0.000771091 -1.25063e-06 0
0.000771091 -1.25063e-06 0
0.000773538 -1.19534e-06 0
0.000773538 -1.19534e-06 0
0.000775883 -1.14056e-06 0
0.000775883 -1.14056e-06 0
0.000778107 -1.0871e-06 0
0.000778107 -1.0871e-06 0
0.000780243 -1.03352e-06 0
0.000780243 -1.03352e-06 0
0.000782243 -9.82095e-07 0
0.000782243 -9.82095e-07 0
0.000784189 -9.29128e-07 0
0.000784189 -9.29128e-07 0
0.000785951 -8.79993e-07 0
0.000785951 -8.79993e-07 0
0.000787741 -8.26639e-07 0
0.000787741 -8.26639e-07 0
0.000789219 -7.81256e-07 0
0.000789219 -7.81256e-07 0
0.990938 -0.000850795 0
0.990938 -0.000850795 0
1.98109 -0.00170082 0
1.98109 -0.00170082 0
