# vtk DataFile Version 2.0
sampleSurface
ASCII
DATASET POLYDATA
POINTS 652 double
0 0 0
0.02 0 0
0.02 0 0.1
0 0 0.1
0.04 0 0
0.04 0 0.1
0.06 0 0
0.06 0 0.1
0.08 0 0
0.08 0 0.1
0.1 0 0
0.1 0 0.1
0.12 0 0
0.12 0 0.1
0.14 0 0
0.14 0 0.1
0.16 0 0
0.16 0 0.1
0.18 0 0
0.18 0 0.1
0.2 0 0
0.2 0 0.1
0.22 0 0
0.22 0 0.1
0.24 0 0
0.24 0 0.1
0.26 0 0
0.26 0 0.1
0.28 0 0
0.28 0 0.1
0.3 0 0
0.3 0 0.1
0.32 0 0
0.32 0 0.1
0.34 0 0
0.34 0 0.1
0.36 0 0
0.36 0 0.1
0.38 0 0
0.38 0 0.1
0.4 0 0
0.4 0 0.1
0.42 0 0
0.42 0 0.1
0.44 0 0
0.44 0 0.1
0.46 0 0
0.46 0 0.1
0.48 0 0
0.48 0 0.1
0.5 0 0
0.5 0 0.1
0.52 0 0
0.52 0 0.1
0.54 0 0
0.54 0 0.1
0.56 0 0
0.56 0 0.1
0.58 0 0
0.58 0 0.1
0.6 0 0
0.6 0 0.1
0.62 0 0
0.62 0 0.1
0.64 0 0
0.64 0 0.1
0.66 0 0
0.66 0 0.1
0.68 0 0
0.68 0 0.1
0.7 0 0
0.7 0 0.1
0.72 0 0
0.72 0 0.1
0.74 0 0
0.74 0 0.1
0.76 0 0
0.76 0 0.1
0.78 0 0
0.78 0 0.1
0.8 0 0
0.8 0 0.1
0.82 0 0
0.82 0 0.1
0.84 0 0
0.84 0 0.1
0.86 0 0
0.86 0 0.1
0.88 0 0
0.88 0 0.1
0.9 0 0
0.9 0 0.1
0.92 0 0
0.92 0 0.1
0.94 0 0
0.94 0 0.1
0.96 0 0
0.96 0 0.1
0.98 0 0
0.98 0 0.1
1 0 0
1 0 0.1
1.02 0 0
1.02 0 0.1
1.04 0 0
1.04 0 0.1
1.06 0 0
1.06 0 0.1
1.08 0 0
1.08 0 0.1
1.1 0 0
1.1 0 0.1
1.12 0 0
1.12 0 0.1
1.14 0 0
1.14 0 0.1
1.16 0 0
1.16 0 0.1
1.18 0 0
1.18 0 0.1
1.2 0 0
1.2 0 0.1
1.22 0 0
1.22 0 0.1
1.24 0 0
1.24 0 0.1
1.26 0 0
1.26 0 0.1
1.28 0 0
1.28 0 0.1
1.3 0 0
1.3 0 0.1
1.32 0 0
1.32 0 0.1
1.34 0 0
1.34 0 0.1
1.36 0 0
1.36 0 0.1
1.38 0 0
1.38 0 0.1
1.4 0 0
1.4 0 0.1
1.42 0 0
1.42 0 0.1
1.44 0 0
1.44 0 0.1
1.46 0 0
1.46 0 0.1
1.48 0 0
1.48 0 0.1
1.5 0 0
1.5 0 0.1
1.52 0 0
1.52 0 0.1
1.54 0 0
1.54 0 0.1
1.56 0 0
1.56 0 0.1
1.58 0 0
1.58 0 0.1
1.6 0 0
1.6 0 0.1
1.62 0 0
1.62 0 0.1
1.64 0 0
1.64 0 0.1
1.66 0 0
1.66 0 0.1
1.68 0 0
1.68 0 0.1
1.7 0 0
1.7 0 0.1
1.72 0 0
1.72 0 0.1
1.74 0 0
1.74 0 0.1
1.76 0 0
1.76 0 0.1
1.78 0 0
1.78 0 0.1
1.8 0 0
1.8 0 0.1
1.82 0 0
1.82 0 0.1
1.84 0 0
1.84 0 0.1
1.86 0 0
1.86 0 0.1
1.88 0 0
1.88 0 0.1
1.9 0 0
1.9 0 0.1
1.92 0 0
1.92 0 0.1
1.94 0 0
1.94 0 0.1
1.96 0 0
1.96 0 0.1
1.98 0 0
1.98 0 0.1
2 0 0
2 0 0.1
2 0.02 0
2 0.02 0.1
2 0.04 0
2 0.04 0.1
2 0.06 0
2 0.06 0.1
2 0.08 0
2 0.08 0.1
2 0.1 0
2 0.1 0.1
2 0.12 0
2 0.12 0.1
2 0.14 0
2 0.14 0.1
2 0.16 0
2 0.16 0.1
2 0.18 0
2 0.18 0.1
2 0.2 0
2 0.2 0.1
2 0.22 0
2 0.22 0.1
2 0.24 0
2 0.24 0.1
2 0.26 0
2 0.26 0.1
2 0.28 0
2 0.28 0.1
2 0.3 0
2 0.3 0.1
2 0.32 0
2 0.32 0.1
2 0.34 0
2 0.34 0.1
2 0.36 0
2 0.36 0.1
2 0.38 0
2 0.38 0.1
2 0.4 0
2 0.4 0.1
2 0.42 0
2 0.42 0.1
2 0.44 0
2 0.44 0.1
2 0.46 0
2 0.46 0.1
2 0.48 0
2 0.48 0.1
2 0.5 0
2 0.5 0.1
2 0.52 0
2 0.52 0.1
2 0.54 0
2 0.54 0.1
2 0.56 0
2 0.56 0.1
2 0.58 0
2 0.58 0.1
2 0.6 0
2 0.6 0.1
2 0.62 0
2 0.62 0.1
2 0.64 0
2 0.64 0.1
2 0.66 0
2 0.66 0.1
2 0.68 0
2 0.68 0.1
2 0.7 0
2 0.7 0.1
2 0.72 0
2 0.72 0.1
2 0.74 0
2 0.74 0.1
2 0.76 0
2 0.76 0.1
2 0.78 0
2 0.78 0.1
2 0.8 0
2 0.8 0.1
2 0.82 0
2 0.82 0.1
2 0.84 0
2 0.84 0.1
2 0.86 0
2 0.86 0.1
2 0.88 0
2 0.88 0.1
2 0.9 0
2 0.9 0.1
2 0.92 0
2 0.92 0.1
2 0.94 0
2 0.94 0.1
2 0.96 0
2 0.96 0.1
2 0.98 0
2 0.98 0.1
2 1 0
2 1 0.1
2.02 1 0
2.02 1 0.1
2.04 1 0
2.04 1 0.1
2.06 1 0
2.06 1 0.1
2.08 1 0
2.08 1 0.1
2.1 1 0
2.1 1 0.1
2.12 1 0
2.12 1 0.1
2.14 1 0
2.14 1 0.1
2.16 1 0
2.16 1 0.1
2.18 1 0
2.18 1 0.1
2.2 1 0
2.2 1 0.1
2.22 1 0
2.22 1 0.1
2.24 1 0
2.24 1 0.1
2.26 1 0
2.26 1 0.1
2.28 1 0
2.28 1 0.1
2.3 1 0
2.3 1 0.1
2.32 1 0
2.32 1 0.1
2.34 1 0
2.34 1 0.1
2.36 1 0
2.36 1 0.1
2.38 1 0
2.38 1 0.1
2.4 1 0
2.4 1 0.1
2.42 1 0
2.42 1 0.1
2.44 1 0
2.44 1 0.1
2.46 1 0
2.46 1 0.1
2.48 1 0
2.48 1 0.1
2.5 1 0
2.5 1 0.1
2.5 0 0
2.5 0 0.1
2.5 0.02 0.1
2.5 0.02 0
2.5 0.04 0.1
2.5 0.04 0
2.5 0.06 0.1
2.5 0.06 0
2.5 0.08 0.1
2.5 0.08 0
2.5 0.1 0.1
2.5 0.1 0
2.5 0.12 0.1
2.5 0.12 0
2.5 0.14 0.1
2.5 0.14 0
2.5 0.16 0.1
2.5 0.16 0
2.5 0.18 0.1
2.5 0.18 0
2.5 0.2 0.1
2.5 0.2 0
2.5 0.22 0.1
2.5 0.22 0
2.5 0.24 0.1
2.5 0.24 0
2.5 0.26 0.1
2.5 0.26 0
2.5 0.28 0.1
2.5 0.28 0
2.5 0.3 0.1
2.5 0.3 0
2.5 0.32 0.1
2.5 0.32 0
2.5 0.34 0.1
2.5 0.34 0
2.5 0.36 0.1
2.5 0.36 0
2.5 0.38 0.1
2.5 0.38 0
2.5 0.4 0.1
2.5 0.4 0
2.5 0.42 0.1
2.5 0.42 0
2.5 0.44 0.1
2.5 0.44 0
2.5 0.46 0.1
2.5 0.46 0
2.5 0.48 0.1
2.5 0.48 0
2.5 0.5 0.1
2.5 0.5 0
2.5 0.52 0.1
2.5 0.52 0
2.5 0.54 0.1
2.5 0.54 0
2.5 0.56 0.1
2.5 0.56 0
2.5 0.58 0.1
2.5 0.58 0
2.5 0.6 0.1
2.5 0.6 0
2.5 0.62 0.1
2.5 0.62 0
2.5 0.64 0.1
2.5 0.64 0
2.5 0.66 0.1
2.5 0.66 0
2.5 0.68 0.1
2.5 0.68 0
2.5 0.7 0.1
2.5 0.7 0
2.5 0.72 0.1
2.5 0.72 0
2.5 0.74 0.1
2.5 0.74 0
2.5 0.76 0.1
2.5 0.76 0
2.5 0.78 0.1
2.5 0.78 0
2.5 0.8 0.1
2.5 0.8 0
2.5 0.82 0.1
2.5 0.82 0
2.5 0.84 0.1
2.5 0.84 0
2.5 0.86 0.1
2.5 0.86 0
2.5 0.88 0.1
2.5 0.88 0
2.5 0.9 0.1
2.5 0.9 0
2.5 0.92 0.1
2.5 0.92 0
2.5 0.94 0.1
2.5 0.94 0
2.5 0.96 0.1
2.5 0.96 0
2.5 0.98 0.1
2.5 0.98 0
2.52 0 0
2.52 0 0.1
2.54 0 0
2.54 0 0.1
2.56 0 0
2.56 0 0.1
2.58 0 0
2.58 0 0.1
2.6 0 0
2.6 0 0.1
2.62 0 0
2.62 0 0.1
2.64 0 0
2.64 0 0.1
2.66 0 0
2.66 0 0.1
2.68 0 0
2.68 0 0.1
2.7 0 0
2.7 0 0.1
2.72 0 0
2.72 0 0.1
2.74 0 0
2.74 0 0.1
2.76 0 0
2.76 0 0.1
2.78 0 0
2.78 0 0.1
2.8 0 0
2.8 0 0.1
2.82 0 0
2.82 0 0.1
2.84 0 0
2.84 0 0.1
2.86 0 0
2.86 0 0.1
2.88 0 0
2.88 0 0.1
2.9 0 0
2.9 0 0.1
2.92 0 0
2.92 0 0.1
2.94 0 0
2.94 0 0.1
2.96 0 0
2.96 0 0.1
2.98 0 0
2.98 0 0.1
3 0 0
3 0 0.1
3.02 0 0
3.02 0 0.1
3.04 0 0
3.04 0 0.1
3.06 0 0
3.06 0 0.1
3.08 0 0
3.08 0 0.1
3.1 0 0
3.1 0 0.1
3.12 0 0
3.12 0 0.1
3.14 0 0
3.14 0 0.1
3.16 0 0
3.16 0 0.1
3.18 0 0
3.18 0 0.1
3.2 0 0
3.2 0 0.1
3.22 0 0
3.22 0 0.1
3.24 0 0
3.24 0 0.1
3.26 0 0
3.26 0 0.1
3.28 0 0
3.28 0 0.1
3.3 0 0
3.3 0 0.1
3.32 0 0
3.32 0 0.1
3.34 0 0
3.34 0 0.1
3.36 0 0
3.36 0 0.1
3.38 0 0
3.38 0 0.1
3.4 0 0
3.4 0 0.1
3.42 0 0
3.42 0 0.1
3.44 0 0
3.44 0 0.1
3.46 0 0
3.46 0 0.1
3.48 0 0
3.48 0 0.1
3.5 0 0
3.5 0 0.1
3.52 0 0
3.52 0 0.1
3.54 0 0
3.54 0 0.1
3.56 0 0
3.56 0 0.1
3.58 0 0
3.58 0 0.1
3.6 0 0
3.6 0 0.1
3.62 0 0
3.62 0 0.1
3.64 0 0
3.64 0 0.1
3.66 0 0
3.66 0 0.1
3.68 0 0
3.68 0 0.1
3.7 0 0
3.7 0 0.1
3.72 0 0
3.72 0 0.1
3.74 0 0
3.74 0 0.1
3.76 0 0
3.76 0 0.1
3.78 0 0
3.78 0 0.1
3.8 0 0
3.8 0 0.1
3.82 0 0
3.82 0 0.1
3.84 0 0
3.84 0 0.1
3.86 0 0
3.86 0 0.1
3.88 0 0
3.88 0 0.1
3.9 0 0
3.9 0 0.1
3.92 0 0
3.92 0 0.1
3.94 0 0
3.94 0 0.1
3.96 0 0
3.96 0 0.1
3.98 0 0
3.98 0 0.1
4 0 0
4 0 0.1
4.02 0 0
4.02 0 0.1
4.04 0 0
4.04 0 0.1
4.06 0 0
4.06 0 0.1
4.08 0 0
4.08 0 0.1
4.1 0 0
4.1 0 0.1
4.12 0 0
4.12 0 0.1
4.14 0 0
4.14 0 0.1
4.16 0 0
4.16 0 0.1
4.18 0 0
4.18 0 0.1
4.2 0 0
4.2 0 0.1
4.22 0 0
4.22 0 0.1
4.24 0 0
4.24 0 0.1
4.26 0 0
4.26 0 0.1
4.28 0 0
4.28 0 0.1
4.3 0 0
4.3 0 0.1
4.32 0 0
4.32 0 0.1
4.34 0 0
4.34 0 0.1
4.36 0 0
4.36 0 0.1
4.38 0 0
4.38 0 0.1
4.4 0 0
4.4 0 0.1
4.42 0 0
4.42 0 0.1
4.44 0 0
4.44 0 0.1
4.46 0 0
4.46 0 0.1
4.48 0 0
4.48 0 0.1
4.5 0 0
4.5 0 0.1

POLYGONS 325 1625
4 0 1 2 3
4 1 4 5 2
4 4 6 7 5
4 6 8 9 7
4 8 10 11 9
4 10 12 13 11
4 12 14 15 13
4 14 16 17 15
4 16 18 19 17
4 18 20 21 19
4 20 22 23 21
4 22 24 25 23
4 24 26 27 25
4 26 28 29 27
4 28 30 31 29
4 30 32 33 31
4 32 34 35 33
4 34 36 37 35
4 36 38 39 37
4 38 40 41 39
4 40 42 43 41
4 42 44 45 43
4 44 46 47 45
4 46 48 49 47
4 48 50 51 49
4 50 52 53 51
4 52 54 55 53
4 54 56 57 55
4 56 58 59 57
4 58 60 61 59
4 60 62 63 61
4 62 64 65 63
4 64 66 67 65
4 66 68 69 67
4 68 70 71 69
4 70 72 73 71
4 72 74 75 73
4 74 76 77 75
4 76 78 79 77
4 78 80 81 79
4 80 82 83 81
4 82 84 85 83
4 84 86 87 85
4 86 88 89 87
4 88 90 91 89
4 90 92 93 91
4 92 94 95 93
4 94 96 97 95
4 96 98 99 97
4 98 100 101 99
4 100 102 103 101
4 102 104 105 103
4 104 106 107 105
4 106 108 109 107
4 108 110 111 109
4 110 112 113 111
4 112 114 115 113
4 114 116 117 115
4 116 118 119 117
4 118 120 121 119
4 120 122 123 121
4 122 124 125 123
4 124 126 127 125
4 126 128 129 127
4 128 130 131 129
4 130 132 133 131
4 132 134 135 133
4 134 136 137 135
4 136 138 139 137
4 138 140 141 139
4 140 142 143 141
4 142 144 145 143
4 144 146 147 145
4 146 148 149 147
4 148 150 151 149
4 150 152 153 151
4 152 154 155 153
4 154 156 157 155
4 156 158 159 157
4 158 160 161 159
4 160 162 163 161
4 162 164 165 163
4 164 166 167 165
4 166 168 169 167
4 168 170 171 169
4 170 172 173 171
4 172 174 175 173
4 174 176 177 175
4 176 178 179 177
4 178 180 181 179
4 180 182 183 181
4 182 184 185 183
4 184 186 187 185
4 186 188 189 187
4 188 190 191 189
4 190 192 193 191
4 192 194 195 193
4 194 196 197 195
4 196 198 199 197
4 198 200 201 199
4 200 202 203 201
4 202 204 205 203
4 204 206 207 205
4 206 208 209 207
4 208 210 211 209
4 210 212 213 211
4 212 214 215 213
4 214 216 217 215
4 216 218 219 217
4 218 220 221 219
4 220 222 223 221
4 222 224 225 223
4 224 226 227 225
4 226 228 229 227
4 228 230 231 229
4 230 232 233 231
4 232 234 235 233
4 234 236 237 235
4 236 238 239 237
4 238 240 241 239
4 240 242 243 241
4 242 244 245 243
4 244 246 247 245
4 246 248 249 247
4 248 250 251 249
4 250 252 253 251
4 252 254 255 253
4 254 256 257 255
4 256 258 259 257
4 258 260 261 259
4 260 262 263 261
4 262 264 265 263
4 264 266 267 265
4 266 268 269 267
4 268 270 271 269
4 270 272 273 271
4 272 274 275 273
4 274 276 277 275
4 276 278 279 277
4 278 280 281 279
4 280 282 283 281
4 282 284 285 283
4 284 286 287 285
4 286 288 289 287
4 288 290 291 289
4 290 292 293 291
4 292 294 295 293
4 294 296 297 295
4 296 298 299 297
4 298 300 301 299
4 300 302 303 301
4 302 304 305 303
4 304 306 307 305
4 306 308 309 307
4 308 310 311 309
4 310 312 313 311
4 312 314 315 313
4 314 316 317 315
4 316 318 319 317
4 318 320 321 319
4 320 322 323 321
4 322 324 325 323
4 324 326 327 325
4 326 328 329 327
4 328 330 331 329
4 330 332 333 331
4 332 334 335 333
4 334 336 337 335
4 336 338 339 337
4 338 340 341 339
4 340 342 343 341
4 342 344 345 343
4 344 346 347 345
4 346 348 349 347
4 348 350 351 349
4 352 353 354 355
4 355 354 356 357
4 357 356 358 359
4 359 358 360 361
4 361 360 362 363
4 363 362 364 365
4 365 364 366 367
4 367 366 368 369
4 369 368 370 371
4 371 370 372 373
4 373 372 374 375
4 375 374 376 377
4 377 376 378 379
4 379 378 380 381
4 381 380 382 383
4 383 382 384 385
4 385 384 386 387
4 387 386 388 389
4 389 388 390 391
4 391 390 392 393
4 393 392 394 395
4 395 394 396 397
4 397 396 398 399
4 399 398 400 401
4 401 400 402 403
4 403 402 404 405
4 405 404 406 407
4 407 406 408 409
4 409 408 410 411
4 411 410 412 413
4 413 412 414 415
4 415 414 416 417
4 417 416 418 419
4 419 418 420 421
4 421 420 422 423
4 423 422 424 425
4 425 424 426 427
4 427 426 428 429
4 429 428 430 431
4 431 430 432 433
4 433 432 434 435
4 435 434 436 437
4 437 436 438 439
4 439 438 440 441
4 441 440 442 443
4 443 442 444 445
4 445 444 446 447
4 447 446 448 449
4 449 448 450 451
4 451 450 351 350
4 352 452 453 353
4 452 454 455 453
4 454 456 457 455
4 456 458 459 457
4 458 460 461 459
4 460 462 463 461
4 462 464 465 463
4 464 466 467 465
4 466 468 469 467
4 468 470 471 469
4 470 472 473 471
4 472 474 475 473
4 474 476 477 475
4 476 478 479 477
4 478 480 481 479
4 480 482 483 481
4 482 484 485 483
4 484 486 487 485
4 486 488 489 487
4 488 490 491 489
4 490 492 493 491
4 492 494 495 493
4 494 496 497 495
4 496 498 499 497
4 498 500 501 499
4 500 502 503 501
4 502 504 505 503
4 504 506 507 505
4 506 508 509 507
4 508 510 511 509
4 510 512 513 511
4 512 514 515 513
4 514 516 517 515
4 516 518 519 517
4 518 520 521 519
4 520 522 523 521
4 522 524 525 523
4 524 526 527 525
4 526 528 529 527
4 528 530 531 529
4 530 532 533 531
4 532 534 535 533
4 534 536 537 535
4 536 538 539 537
4 538 540 541 539
4 540 542 543 541
4 542 544 545 543
4 544 546 547 545
4 546 548 549 547
4 548 550 551 549
4 550 552 553 551
4 552 554 555 553
4 554 556 557 555
4 556 558 559 557
4 558 560 561 559
4 560 562 563 561
4 562 564 565 563
4 564 566 567 565
4 566 568 569 567
4 568 570 571 569
4 570 572 573 571
4 572 574 575 573
4 574 576 577 575
4 576 578 579 577
4 578 580 581 579
4 580 582 583 581
4 582 584 585 583
4 584 586 587 585
4 586 588 589 587
4 588 590 591 589
4 590 592 593 591
4 592 594 595 593
4 594 596 597 595
4 596 598 599 597
4 598 600 601 599
4 600 602 603 601
4 602 604 605 603
4 604 606 607 605
4 606 608 609 607
4 608 610 611 609
4 610 612 613 611
4 612 614 615 613
4 614 616 617 615
4 616 618 619 617
4 618 620 621 619
4 620 622 623 621
4 622 624 625 623
4 624 626 627 625
4 626 628 629 627
4 628 630 631 629
4 630 632 633 631
4 632 634 635 633
4 634 636 637 635
4 636 638 639 637
4 638 640 641 639
4 640 642 643 641
4 642 644 645 643
4 644 646 647 645
4 646 648 649 647
4 648 650 651 649
POINT_DATA 652
FIELD attributes 1
U 3 652 float
2.5685 -0.0262723 -0.0226466
1.28476 -0.0131312 -0.0113233
1.28476 -0.0131312 -0.0113233
2.5685 -0.0262723 -0.0226466
0.0010148 7.13271e-06 0
0.0010148 7.13271e-06 0
0.00101131 3.50119e-06 0
0.00101131 3.50119e-06 0
0.0010095 1.82119e-06 0
0.0010095 1.82119e-06 0
0.00100805 2.58359e-07 0
0.00100805 2.58359e-07 0
0.00100562 -6.23225e-07 0
0.00100562 -6.23225e-07 0
0.00100188 -2.17818e-07 0
0.00100188 -2.17818e-07 0
0.000997451 6.13892e-07 0
0.000997451 6.13892e-07 0
0.000993512 6.10995e-07 0
0.000993512 6.10995e-07 0
0.000990876 -2.59261e-07 0
0.000990876 -2.59261e-07 0
0.000989157 -8.67878e-07 0
0.000989157 -8.67878e-07 0
0.000987178 -3.67349e-07 0
0.000987178 -3.67349e-07 0
0.000984252 8.52076e-07 0
0.000984252 8.52076e-07 0
0.000980841 1.75419e-06 0
0.000980841 1.75419e-06 0
0.000977884 1.93267e-06 0
0.000977884 1.93267e-06 0
0.000975691 2.00445e-06 0
0.000975691 2.00445e-06 0
0.000973644 2.69283e-06 0
0.000973644 2.69283e-06 0
0.000970886 3.80751e-06 0
0.000970886 3.80751e-06 0
0.000967205 4.38172e-06 0
0.000967205 4.38172e-06 0
0.000963176 3.77969e-06 0
0.000963176 3.77969e-06 0
0.000959487 2.53365e-06 0
0.000959487 2.53365e-06 0
0.000956223 1.96299e-06 0
0.000956223 1.96299e-06 0
0.000952796 2.90211e-06 0
0.000952796 2.90211e-06 0
0.000948517 4.84698e-06 0
0.000948517 4.84698e-06 0
0.000943246 6.35385e-06 0
0.000943246 6.35385e-06 0
0.000937532 6.26046e-06 0
0.000937532 6.26046e-06 0
0.000932136 4.63316e-06 0
0.000932136 4.63316e-06 0
0.000927407 2.6786e-06 0
0.000927407 2.6786e-06 0
0.000923007 1.777e-06 0
0.000923007 1.777e-06 0
0.000918099 2.52416e-06 0
0.000918099 2.52416e-06 0
0.000911839 4.48196e-06 0
0.000911839 4.48196e-06 0
0.00090383 6.62911e-06 0
0.00090383 6.62911e-06 0
0.000894283 8.05441e-06 0
0.000894283 8.05441e-06 0
0.000883822 8.40319e-06 0
0.000883822 8.40319e-06 0
0.000873128 7.87967e-06 0
0.000873128 7.87967e-06 0
0.000862669 6.95314e-06 0
0.000862669 6.95314e-06 0
0.000852615 6.04713e-06 0
0.000852615 6.04713e-06 0
0.000842915 5.38711e-06 0
0.000842915 5.38711e-06 0
0.000833421 5.01157e-06 0
0.000833421 5.01157e-06 0
0.000823988 4.85713e-06 0
0.000823988 4.85713e-06 0
0.000814509 4.8374e-06 0
0.000814509 4.8374e-06 0
0.000804926 4.88472e-06 0
0.000804926 4.88472e-06 0
0.000795212 4.95955e-06 0
0.000795212 4.95955e-06 0
0.000785355 5.04377e-06 0
0.000785355 5.04377e-06 0
0.00077535 5.131e-06 0
0.00077535 5.131e-06 0
0.000765194 5.21977e-06 0
0.000765194 5.21977e-06 0
0.000754882 5.31006e-06 0
0.000754882 5.31006e-06 0
0.000744411 5.40205e-06 0
0.000744411 5.40205e-06 0
0.000733778 5.4958e-06 0
0.000733778 5.4958e-06 0
0.000722978 5.59129e-06 0
0.000722978 5.59129e-06 0
0.000712006 5.68844e-06 0
0.000712006 5.68844e-06 0
0.000700859 5.78712e-06 0
0.000700859 5.78712e-06 0
0.000689532 5.88722e-06 0
0.000689532 5.88722e-06 0
0.000678022 5.98858e-06 0
0.000678022 5.98858e-06 0
0.000666325 6.09103e-06 0
0.000666325 6.09103e-06 0
0.000654437 6.19437e-06 0
0.000654437 6.19437e-06 0
0.000642355 6.29838e-06 0
0.000642355 6.29838e-06 0
0.000630075 6.40282e-06 0
0.000630075 6.40282e-06 0
0.000617596 6.5074e-06 0
0.000617596 6.5074e-06 0
0.000604915 6.61183e-06 0
0.000604915 6.61183e-06 0
0.00059203 6.71579e-06 0
0.00059203 6.71579e-06 0
0.000578938 6.81897e-06 0
0.000578938 6.81897e-06 0
0.00056564 6.92105e-06 0
0.00056564 6.92105e-06 0
0.000552135 7.02175e-06 0
0.000552135 7.02175e-06 0
0.000538423 7.12075e-06 0
0.000538423 7.12075e-06 0
0.000524506 7.21721e-06 0
0.000524506 7.21721e-06 0
0.000510386 7.30973e-06 0
0.000510386 7.30973e-06 0
0.000496065 7.39692e-06 0
0.000496065 7.39692e-06 0
0.000481547 7.47768e-06 0
0.000481547 7.47768e-06 0
0.000466836 7.55114e-06 0
0.000466836 7.55114e-06 0
0.000451938 7.61642e-06 0
0.000451938 7.61642e-06 0
0.000436861 7.67268e-06 0
0.000436861 7.67268e-06 0
0.000421612 7.719e-06 0
0.000421612 7.719e-06 0
0.000406202 7.75446e-06 0
0.000406202 7.75446e-06 0
0.000390641 7.77809e-06 0
0.000390641 7.77809e-06 0
0.000374943 7.78893e-06 0
0.000374943 7.78893e-06 0
0.000359122 7.78606e-06 0
0.000359122 7.78606e-06 0
0.000343192 7.76864e-06 0
0.000343192 7.76864e-06 0
0.000327172 7.7359e-06 0
0.000327172 7.7359e-06 0
0.00031108 7.68721e-06 0
0.00031108 7.68721e-06 0
0.000294934 7.62213e-06 0
0.000294934 7.62213e-06 0
0.000278755 7.54051e-06 0
0.000278755 7.54051e-06 0
0.000262565 7.44249e-06 0
0.000262565 7.44249e-06 0
0.000246385 7.32859e-06 0
0.000246385 7.32859e-06 0
0.000230235 7.1997e-06 0
0.000230235 7.1997e-06 0
0.000214137 7.05715e-06 0
0.000214137 7.05715e-06 0
0.000198111 6.90275e-06 0
0.000198111 6.90275e-06 0
0.000182173 6.73874e-06 0
0.000182173 6.73874e-06 0
0.000166341 6.56788e-06 0
0.000166341 6.56788e-06 0
0.000150626 6.3933e-06 0
0.000150626 6.3933e-06 0
0.000135039 6.21857e-06 0
0.000135039 6.21857e-06 0
0.000119585 6.04748e-06 0
0.000119585 6.04748e-06 0
0.000104265 5.88404e-06 0
0.000104265 5.88404e-06 0
8.90768e-05 5.7323e-06 0
8.90768e-05 5.7323e-06 0
7.40118e-05 5.59617e-06 0
7.40118e-05 5.59617e-06 0
5.90584e-05 5.47936e-06 0
5.90584e-05 5.47936e-06 0
4.41999e-05 5.38438e-06 0
4.41999e-05 5.38438e-06 0
2.94185e-05 5.3115e-06 0
2.94185e-05 5.3115e-06 0
1.46886e-05 5.26977e-06 0
1.46886e-05 5.26977e-06 0
7.33227e-06 5.25906e-06 0
7.33227e-06 5.25906e-06 0
8.89719e-06 1.47922e-05 0
8.89719e-06 1.47922e-05 0
1.04002e-05 3.5525e-05 0
1.04002e-05 3.5525e-05 0
1.01158e-05 5.64836e-05 0
1.01158e-05 5.64836e-05 0
9.77691e-06 7.61038e-05 0
9.77691e-06 7.61038e-05 0
9.6292e-06 9.56005e-05 0
9.6292e-06 9.56005e-05 0
9.60735e-06 0.000114846 0
9.60735e-06 0.000114846 0
9.64216e-06 0.000134115 0
9.64216e-06 0.000134115 0
9.69966e-06 0.000153498 0
9.69966e-06 0.000153498 0
9.76793e-06 0.000173011 0
9.76793e-06 0.000173011 0
9.84417e-06 0.000192667 0
9.84417e-06 0.000192667 0
9.92845e-06 0.000212483 0
9.92845e-06 0.000212483 0
1.00215e-05 0.000232475 0
1.00215e-05 0.000232475 0
1.01241e-05 0.000252663 0
1.01241e-05 0.000252663 0
1.02369e-05 0.000273066 0
1.02369e-05 0.000273066 0
1.03608e-05 0.000293705 0
1.03608e-05 0.000293705 0
1.04964e-05 0.000314603 0
1.04964e-05 0.000314603 0
1.06448e-05 0.000335784 0
1.06448e-05 0.000335784 0
1.08069e-05 0.000357275 0
1.08069e-05 0.000357275 0
1.09838e-05 0.000379104 0
1.09838e-05 0.000379104 0
1.11771e-05 0.000401303 0
1.11771e-05 0.000401303 0
1.13874e-05 0.000423904 0
1.13874e-05 0.000423904 0
1.16176e-05 0.000446945 0
1.16176e-05 0.000446945 0
1.18688e-05 0.000470464 0
1.18688e-05 0.000470464 0
1.21429e-05 0.000494509 0
1.21429e-05 0.000494509 0
1.24426e-05 0.000519125 0
1.24426e-05 0.000519125 0
1.27739e-05 0.000544371 0
1.27739e-05 0.000544371 0
1.31325e-05 0.000570301 0
1.31325e-05 0.000570301 0
1.35325e-05 0.000596994 0
1.35325e-05 0.000596994 0
1.39688e-05 0.000624513 0
1.39688e-05 0.000624513 0
1.4461e-05 0.000652965 0
1.4461e-05 0.000652965 0
1.49899e-05 0.000682417 0
1.49899e-05 0.000682417 0
1.56055e-05 0.000713037 0
1.56055e-05 0.000713037 0
1.62596e-05 0.000744883 0
1.62596e-05 0.000744883 0
1.70586e-05 0.000778217 0
1.70586e-05 0.000778217 0
1.78518e-05 0.000813068 0
1.78518e-05 0.000813068 0
1.89252e-05 0.000849866 0
1.89252e-05 0.000849866 0
1.99306e-05 0.000888595 0
1.99306e-05 0.000888595 0
2.14357e-05 0.00092997 0
2.14357e-05 0.00092997 0
2.26818e-05 0.00097382 0
2.26818e-05 0.00097382 0
2.49584e-05 0.00102146 0
2.49584e-05 0.00102146 0
2.64507e-05 0.00107237 0
2.64507e-05 0.00107237 0
3.03406e-05 0.00112904 0
3.03406e-05 0.00112904 0
3.20267e-05 0.0011904 0
3.20267e-05 0.0011904 0
3.93437e-05 0.0012611 0
3.93437e-05 0.0012611 0
4.12727e-05 0.00133973 0
4.12727e-05 0.00133973 0
5.73486e-05 0.00143514 0
5.73486e-05 0.00143514 0
6.20148e-05 0.00154883 0
6.20148e-05 0.00154883 0
0.000106256 0.0016971 0
0.000106256 0.0016971 0
0.000132209 0.0018961 0
0.000132209 0.0018961 0
6.60071e-05 0.0011358 0
6.60071e-05 0.0011358 0
-0.000417998 -1.40066e-05 0
-0.000417998 -1.40066e-05 0
-0.000337454 -0.000455118 0
-0.000337454 -0.000455118 0
0.000415698 -0.000456651 0
0.000415698 -0.000456651 0
0.000700003 -0.000183219 0
0.000700003 -0.000183219 0
0.000668597 -5.17289e-05 0
0.000668597 -5.17289e-05 0
0.000308418 0.000149712 0
0.000308418 0.000149712 0
-0.000463982 0.000432618 0
-0.000463982 0.000432618 0
-0.00138781 0.000489921 0
-0.00138781 0.000489921 0
-0.00215144 0.000404741 0
-0.00215144 0.000404741 0
-0.00276186 0.000306645 0
-0.00276186 0.000306645 0
-0.00319362 0.000202851 0
-0.00319362 0.000202851 0
-0.00344241 0.000101684 0
-0.00344241 0.000101684 0
-0.00351133 8.38249e-06 0
-0.00351133 8.38249e-06 0
-0.00342445 -7.10458e-05 0
-0.00342445 -7.10458e-05 0
-0.00320753 -0.000134076 0
-0.00320753 -0.000134076 0
-0.00288925 -0.00018025 0
-0.00288925 -0.00018025 0
-0.00250031 -0.000210255 0
-0.00250031 -0.000210255 0
-0.00207072 -0.000226003 0
-0.00207072 -0.000226003 0
-0.00162535 -0.000230377 0
-0.00162535 -0.000230377 0
-0.0011817 -0.00022467 0
-0.0011817 -0.00022467 0
-0.000752304 -0.000209681 0
-0.000752304 -0.000209681 0
-0.000352624 -0.00019244 0
-0.000352624 -0.00019244 0
1.95123e-05 -0.000196608 0
1.95123e-05 -0.000196608 0
0.000362977 -0.000173567 0
0.000362977 -0.000173567 0
0.000349877 -9.32453e-05 0
0.000349877 -9.32453e-05 0
-3.44994e-06 2.71458e-06 0
-3.44994e-06 2.71458e-06 0
-3.47509e-06 5.43977e-06 0
-3.47509e-06 5.43977e-06 0
-3.53432e-06 1.09526e-05 0
-3.53432e-06 1.09526e-05 0
-3.62605e-06 1.66285e-05 0
-3.62605e-06 1.66285e-05 0
-3.76179e-06 2.25497e-05 0
-3.76179e-06 2.25497e-05 0
-3.93834e-06 2.8804e-05 0
-3.93834e-06 2.8804e-05 0
-4.15732e-06 3.54805e-05 0
-4.15732e-06 3.54805e-05 0
-4.41989e-06 4.26716e-05 0
-4.41989e-06 4.26716e-05 0
-4.72829e-06 5.04745e-05 0
-4.72829e-06 5.04745e-05 0
-5.08472e-06 5.89912e-05 0
-5.08472e-06 5.89912e-05 0
-5.49157e-06 6.83311e-05 0
-5.49157e-06 6.83311e-05 0
-5.95281e-06 7.86093e-05 0
-5.95281e-06 7.86093e-05 0
-6.47131e-06 8.99488e-05 0
-6.47131e-06 8.99488e-05 0
-7.0512e-06 0.000102482 0
-7.0512e-06 0.000102482 0
-7.69689e-06 0.00011635 0
-7.69689e-06 0.00011635 0
-8.41249e-06 0.000131702 0
-8.41249e-06 0.000131702 0
-9.20263e-06 0.000148698 0
-9.20263e-06 0.000148698 0
-1.0071e-05 0.000167504 0
-1.0071e-05 0.000167504 0
-1.102e-05 0.000188295 0
-1.102e-05 0.000188295 0
-1.20514e-05 0.000211243 0
-1.20514e-05 0.000211243 0
-1.31626e-05 0.000236532 0
-1.31626e-05 0.000236532 0
-1.43493e-05 0.000264309 0
-1.43493e-05 0.000264309 0
-1.55965e-05 0.000294748 0
-1.55965e-05 0.000294748 0
-1.68939e-05 0.000327919 0
-1.68939e-05 0.000327919 0
-1.81931e-05 0.000363938 0
-1.81931e-05 0.000363938 0
-1.94905e-05 0.000402715 0
-1.94905e-05 0.000402715 0
-2.06791e-05 0.00044421 0
-2.06791e-05 0.00044421 0
-2.16901e-05 0.00048809 0
-2.16901e-05 0.00048809 0
-2.25141e-05 0.000533921 0
-2.25141e-05 0.000533921 0
-2.29244e-05 0.000581251 0
-2.29244e-05 0.000581251 0
-2.27559e-05 0.000629105 0
-2.27559e-05 0.000629105 0
-2.20148e-05 0.00067621 0
-2.20148e-05 0.00067621 0
-2.05974e-05 0.000721376 0
-2.05974e-05 0.000721376 0
-1.81614e-05 0.000762723 0
-1.81614e-05 0.000762723 0
-1.45135e-05 0.000798121 0
-1.45135e-05 0.000798121 0
-9.6354e-06 0.000825015 0
-9.6354e-06 0.000825015 0
-3.52366e-06 0.000841487 0
-3.52366e-06 0.000841487 0
3.80378e-06 0.000844692 0
3.80378e-06 0.000844692 0
1.25938e-05 0.000833413 0
1.25938e-05 0.000833413 0
2.26506e-05 0.000803819 0
2.26506e-05 0.000803819 0
3.38176e-05 0.000757173 0
3.38176e-05 0.000757173 0
4.49819e-05 0.000688695 0
4.49819e-05 0.000688695 0
5.61967e-05 0.000605294 0
5.61967e-05 0.000605294 0
6.63328e-05 0.000496335 0
6.63328e-05 0.000496335 0
7.95868e-05 0.000382644 0
7.95868e-05 0.000382644 0
8.39888e-05 0.000229357 0
8.39888e-05 0.000229357 0
8.217e-05 0.000103689 0
8.217e-05 0.000103689 0
-3.46354e-05 -6.26799e-05 0
-3.46354e-05 -6.26799e-05 0
-0.000164079 -3.53944e-06 0
-0.000164079 -3.53944e-06 0
8.24002e-07 7.80955e-05 0
8.24002e-07 7.80955e-05 0
-5.43854e-06 2.32649e-06 0
-5.43854e-06 2.32649e-06 0
-9.31157e-06 2.00246e-06 0
-9.31157e-06 2.00246e-06 0
-1.34182e-05 2.04812e-06 0
-1.34182e-05 2.04812e-06 0
-1.74946e-05 1.95056e-06 0
-1.74946e-05 1.95056e-06 0
-2.12054e-05 1.7668e-06 0
-2.12054e-05 1.7668e-06 0
-2.45417e-05 1.53605e-06 0
-2.45417e-05 1.53605e-06 0
-2.73283e-05 1.2678e-06 0
-2.73283e-05 1.2678e-06 0
-2.95796e-05 9.65631e-07 0
-2.95796e-05 9.65631e-07 0
-3.11646e-05 6.31219e-07 0
-3.11646e-05 6.31219e-07 0
-3.20656e-05 2.68463e-07 0
-3.20656e-05 2.68463e-07 0
-3.22045e-05 -1.19469e-07 0
-3.22045e-05 -1.19469e-07 0
-3.15473e-05 -5.27744e-07 0
-3.15473e-05 -5.27744e-07 0
-3.00495e-05 -9.53014e-07 0
-3.00495e-05 -9.53014e-07 0
-2.7685e-05 -1.39123e-06 0
-2.7685e-05 -1.39123e-06 0
-2.44326e-05 -1.83768e-06 0
-2.44326e-05 -1.83768e-06 0
-2.02785e-05 -2.28811e-06 0
-2.02785e-05 -2.28811e-06 0
-1.52191e-05 -2.73883e-06 0
-1.52191e-05 -2.73883e-06 0
-9.2598e-06 -3.18649e-06 0
-9.2598e-06 -3.18649e-06 0
-2.40236e-06 -3.62529e-06 0
-2.40236e-06 -3.62529e-06 0
5.34068e-06 -4.05275e-06 0
5.34068e-06 -4.05275e-06 0
1.39276e-05 -4.46655e-06 0
1.39276e-05 -4.46655e-06 0
2.33196e-05 -4.86182e-06 0
2.33196e-05 -4.86182e-06 0
3.34829e-05 -5.23622e-06 0
3.34829e-05 -5.23622e-06 0
4.43729e-05 -5.58752e-06 0
4.43729e-05 -5.58752e-06 0
5.59411e-05 -5.91386e-06 0
5.59411e-05 -5.91386e-06 0
6.81358e-05 -6.21378e-06 0
6.81358e-05 -6.21378e-06 0
8.09025e-05 -6.48624e-06 0
8.09025e-05 -6.48624e-06 0
9.41853e-05 -6.73057e-06 0
9.41853e-05 -6.73057e-06 0
0.000107927 -6.94649e-06 0
0.000107927 -6.94649e-06 0
0.000122072 -7.13407e-06 0
0.000122072 -7.13407e-06 0
0.000136561 -7.29366e-06 0
0.000136561 -7.29366e-06 0
0.000151342 -7.42591e-06 0
0.000151342 -7.42591e-06 0
0.000166358 -7.53169e-06 0
0.000166358 -7.53169e-06 0
0.00018156 -7.61207e-06 0
0.00018156 -7.61207e-06 0
0.000196897 -7.66827e-06 0
0.000196897 -7.66827e-06 0
0.000212323 -7.70166e-06 0
0.000212323 -7.70166e-06 0
0.000227795 -7.71367e-06 0
0.000227795 -7.71367e-06 0
0.00024327 -7.70583e-06 0
0.00024327 -7.70583e-06 0
0.000258711 -7.67969e-06 0
0.000258711 -7.67969e-06 0
0.000274082 -7.6368e-06 0
0.000274082 -7.6368e-06 0
0.000289351 -7.5787e-06 0
0.000289351 -7.5787e-06 0
0.000304489 -7.5069e-06 0
0.000304489 -7.5069e-06 0
0.000319471 -7.42285e-06 0
0.000319471 -7.42285e-06 0
0.000334273 -7.32795e-06 0
0.000334273 -7.32795e-06 0
0.000348874 -7.22354e-06 0
0.000348874 -7.22354e-06 0
0.000363258 -7.11088e-06 0
0.000363258 -7.11088e-06 0
0.000377408 -6.99115e-06 0
0.000377408 -6.99115e-06 0
0.000391311 -6.86543e-06 0
0.000391311 -6.86543e-06 0
0.000404957 -6.73477e-06 0
0.000404957 -6.73477e-06 0
0.000418337 -6.60008e-06 0
0.000418337 -6.60008e-06 0
0.000431443 -6.46223e-06 0
0.000431443 -6.46223e-06 0
0.00044427 -6.322e-06 0
0.00044427 -6.322e-06 0
0.000456814 -6.18009e-06 0
0.000456814 -6.18009e-06 0
0.000469073 -6.03713e-06 0
0.000469073 -6.03713e-06 0
0.000481044 -5.8937e-06 0
0.000481044 -5.8937e-06 0
0.000492727 -5.75029e-06 0
0.000492727 -5.75029e-06 0
0.000504123 -5.60736e-06 0
0.000504123 -5.60736e-06 0
0.000515233 -5.46529e-06 0
0.000515233 -5.46529e-06 0
0.00052606 -5.32442e-06 0
0.00052606 -5.32442e-06 0
0.000536605 -5.18506e-06 0
0.000536605 -5.18506e-06 0
0.000546873 -5.04745e-06 0
0.000546873 -5.04745e-06 0
0.000556867 -4.91181e-06 0
0.000556867 -4.91181e-06 0
0.00056659 -4.77832e-06 0
0.00056659 -4.77832e-06 0
0.000576049 -4.64713e-06 0
0.000576049 -4.64713e-06 0
0.000585247 -4.51836e-06 0
0.000585247 -4.51836e-06 0
0.000594189 -4.39212e-06 0
0.000594189 -4.39212e-06 0
0.00060288 -4.26846e-06 0
0.00060288 -4.26846e-06 0
0.000611327 -4.14745e-06 0
0.000611327 -4.14745e-06 0
0.000619533 -4.02913e-06 0
0.000619533 -4.02913e-06 0
0.000627505 -3.91351e-06 0
0.000627505 -3.91351e-06 0
0.000635247 -3.8006e-06 0
0.000635247 -3.8006e-06 0
0.000642766 -3.6904e-06 0
0.000642766 -3.6904e-06 0
0.000650067 -3.58289e-06 0
0.000650067 -3.58289e-06 0
0.000657154 -3.47806e-06 0
0.000657154 -3.47806e-06 0
0.000664034 -3.37586e-06 0
0.000664034 -3.37586e-06 0
0.000670712 -3.27626e-06 0
0.000670712 -3.27626e-06 0
0.000677193 -3.17921e-06 0
0.000677193 -3.17921e-06 0
0.000683481 -3.08468e-06 0
0.000683481 -3.08468e-06 0
0.000689582 -2.99259e-06 0
0.000689582 -2.99259e-06 0
0.000695501 -2.90291e-06 0
0.000695501 -2.90291e-06 0
0.000701243 -2.81557e-06 0
0.000701243 -2.81557e-06 0
0.000706811 -2.73051e-06 0
0.000706811 -2.73051e-06 0
0.000712211 -2.64766e-06 0
0.000712211 -2.64766e-06 0
0.000717447 -2.56698e-06 0
0.000717447 -2.56698e-06 0
0.000722524 -2.48835e-06 0
0.000722524 -2.48835e-06 0
0.000727443 -2.41181e-06 0
0.000727443 -2.41181e-06 0
0.000732214 -2.33713e-06 0
0.000732214 -2.33713e-06 0
0.000736832 -2.26448e-06 0
0.000736832 -2.26448e-06 0
0.000741314 -2.19346e-06 0
0.000741314 -2.19346e-06 0
0.000745642 -2.12449e-06 0
0.000745642 -2.12449e-06 0
0.000749855 -2.05678e-06 0
0.000749855 -2.05678e-06 0
0.0007539 -1.99136e-06 0
0.0007539 -1.99136e-06 0
0.000757868 -1.92649e-06 0
0.000757868 -1.92649e-06 0
0.000761625 -1.86467e-06 0
0.000761625 -1.86467e-06 0
0.000765387 -1.80192e-06 0
0.000765387 -1.80192e-06 0
0.000768826 -1.74415e-06 0
0.000768826 -1.74415e-06 0
0.000772455 -1.68217e-06 0
0.000772455 -1.68217e-06 0
0.000775483 -1.62984e-06 0
0.000775483 -1.62984e-06 0
0.978118 -0.00189587 0
0.978118 -0.00189587 0
1.95546 -0.00379013 0
1.95546 -0.00379013 0
