# vtk DataFile Version 2.0
sampleSurface
ASCII
DATASET POLYDATA
POINTS 652 double
0 0 0
0.02 0 0
0.02 0 0.1
0 0 0.1
0.04 0 0
0.04 0 0.1
0.06 0 0
0.06 0 0.1
0.08 0 0
0.08 0 0.1
0.1 0 0
0.1 0 0.1
0.12 0 0
0.12 0 0.1
0.14 0 0
0.14 0 0.1
0.16 0 0
0.16 0 0.1
0.18 0 0
0.18 0 0.1
0.2 0 0
0.2 0 0.1
0.22 0 0
0.22 0 0.1
0.24 0 0
0.24 0 0.1
0.26 0 0
0.26 0 0.1
0.28 0 0
0.28 0 0.1
0.3 0 0
0.3 0 0.1
0.32 0 0
0.32 0 0.1
0.34 0 0
0.34 0 0.1
0.36 0 0
0.36 0 0.1
0.38 0 0
0.38 0 0.1
0.4 0 0
0.4 0 0.1
0.42 0 0
0.42 0 0.1
0.44 0 0
0.44 0 0.1
0.46 0 0
0.46 0 0.1
0.48 0 0
0.48 0 0.1
0.5 0 0
0.5 0 0.1
0.52 0 0
0.52 0 0.1
0.54 0 0
0.54 0 0.1
0.56 0 0
0.56 0 0.1
0.58 0 0
0.58 0 0.1
0.6 0 0
0.6 0 0.1
0.62 0 0
0.62 0 0.1
0.64 0 0
0.64 0 0.1
0.66 0 0
0.66 0 0.1
0.68 0 0
0.68 0 0.1
0.7 0 0
0.7 0 0.1
0.72 0 0
0.72 0 0.1
0.74 0 0
0.74 0 0.1
0.76 0 0
0.76 0 0.1
0.78 0 0
0.78 0 0.1
0.8 0 0
0.8 0 0.1
0.82 0 0
0.82 0 0.1
0.84 0 0
0.84 0 0.1
0.86 0 0
0.86 0 0.1
0.88 0 0
0.88 0 0.1
0.9 0 0
0.9 0 0.1
0.92 0 0
0.92 0 0.1
0.94 0 0
0.94 0 0.1
0.96 0 0
0.96 0 0.1
0.98 0 0
0.98 0 0.1
1 0 0
1 0 0.1
1.02 0 0
1.02 0 0.1
1.04 0 0
1.04 0 0.1
1.06 0 0
1.06 0 0.1
1.08 0 0
1.08 0 0.1
1.1 0 0
1.1 0 0.1
1.12 0 0
1.12 0 0.1
1.14 0 0
1.14 0 0.1
1.16 0 0
1.16 0 0.1
1.18 0 0
1.18 0 0.1
1.2 0 0
1.2 0 0.1
1.22 0 0
1.22 0 0.1
1.24 0 0
1.24 0 0.1
1.26 0 0
1.26 0 0.1
1.28 0 0
1.28 0 0.1
1.3 0 0
1.3 0 0.1
1.32 0 0
1.32 0 0.1
1.34 0 0
1.34 0 0.1
1.36 0 0
1.36 0 0.1
1.38 0 0
1.38 0 0.1
1.4 0 0
1.4 0 0.1
1.42 0 0
1.42 0 0.1
1.44 0 0
1.44 0 0.1
1.46 0 0
1.46 0 0.1
1.48 0 0
1.48 0 0.1
1.5 0 0
1.5 0 0.1
1.52 0 0
1.52 0 0.1
1.54 0 0
1.54 0 0.1
1.56 0 0
1.56 0 0.1
1.58 0 0
1.58 0 0.1
1.6 0 0
1.6 0 0.1
1.62 0 0
1.62 0 0.1
1.64 0 0
1.64 0 0.1
1.66 0 0
1.66 0 0.1
1.68 0 0
1.68 0 0.1
1.7 0 0
1.7 0 0.1
1.72 0 0
1.72 0 0.1
1.74 0 0
1.74 0 0.1
1.76 0 0
1.76 0 0.1
1.78 0 0
1.78 0 0.1
1.8 0 0
1.8 0 0.1
1.82 0 0
1.82 0 0.1
1.84 0 0
1.84 0 0.1
1.86 0 0
1.86 0 0.1
1.88 0 0
1.88 0 0.1
1.9 0 0
1.9 0 0.1
1.92 0 0
1.92 0 0.1
1.94 0 0
1.94 0 0.1
1.96 0 0
1.96 0 0.1
1.98 0 0
1.98 0 0.1
2 0 0
2 0 0.1
2 0.02 0
2 0.02 0.1
2 0.04 0
2 0.04 0.1
2 0.06 0
2 0.06 0.1
2 0.08 0
2 0.08 0.1
2 0.1 0
2 0.1 0.1
2 0.12 0
2 0.12 0.1
2 0.14 0
2 0.14 0.1
2 0.16 0
2 0.16 0.1
2 0.18 0
2 0.18 0.1
2 0.2 0
2 0.2 0.1
2 0.22 0
2 0.22 0.1
2 0.24 0
2 0.24 0.1
2 0.26 0
2 0.26 0.1
2 0.28 0
2 0.28 0.1
2 0.3 0
2 0.3 0.1
2 0.32 0
2 0.32 0.1
2 0.34 0
2 0.34 0.1
2 0.36 0
2 0.36 0.1
2 0.38 0
2 0.38 0.1
2 0.4 0
2 0.4 0.1
2 0.42 0
2 0.42 0.1
2 0.44 0
2 0.44 0.1
2 0.46 0
2 0.46 0.1
2 0.48 0
2 0.48 0.1
2 0.5 0
2 0.5 0.1
2 0.52 0
2 0.52 0.1
2 0.54 0
2 0.54 0.1
2 0.56 0
2 0.56 0.1
2 0.58 0
2 0.58 0.1
2 0.6 0
2 0.6 0.1
2 0.62 0
2 0.62 0.1
2 0.64 0
2 0.64 0.1
2 0.66 0
2 0.66 0.1
2 0.68 0
2 0.68 0.1
2 0.7 0
2 0.7 0.1
2 0.72 0
2 0.72 0.1
2 0.74 0
2 0.74 0.1
2 0.76 0
2 0.76 0.1
2 0.78 0
2 0.78 0.1
2 0.8 0
2 0.8 0.1
2 0.82 0
2 0.82 0.1
2 0.84 0
2 0.84 0.1
2 0.86 0
2 0.86 0.1
2 0.88 0
2 0.88 0.1
2 0.9 0
2 0.9 0.1
2 0.92 0
2 0.92 0.1
2 0.94 0
2 0.94 0.1
2 0.96 0
2 0.96 0.1
2 0.98 0
2 0.98 0.1
2 1 0
2 1 0.1
2.02 1 0
2.02 1 0.1
2.04 1 0
2.04 1 0.1
2.06 1 0
2.06 1 0.1
2.08 1 0
2.08 1 0.1
2.1 1 0
2.1 1 0.1
2.12 1 0
2.12 1 0.1
2.14 1 0
2.14 1 0.1
2.16 1 0
2.16 1 0.1
2.18 1 0
2.18 1 0.1
2.2 1 0
2.2 1 0.1
2.22 1 0
2.22 1 0.1
2.24 1 0
2.24 1 0.1
2.26 1 0
2.26 1 0.1
2.28 1 0
2.28 1 0.1
2.3 1 0
2.3 1 0.1
2.32 1 0
2.32 1 0.1
2.34 1 0
2.34 1 0.1
2.36 1 0
2.36 1 0.1
2.38 1 0
2.38 1 0.1
2.4 1 0
2.4 1 0.1
2.42 1 0
2.42 1 0.1
2.44 1 0
2.44 1 0.1
2.46 1 0
2.46 1 0.1
2.48 1 0
2.48 1 0.1
2.5 1 0
2.5 1 0.1
2.5 0 0
2.5 0 0.1
2.5 0.02 0.1
2.5 0.02 0
2.5 0.04 0.1
2.5 0.04 0
2.5 0.06 0.1
2.5 0.06 0
2.5 0.08 0.1
2.5 0.08 0
2.5 0.1 0.1
2.5 0.1 0
2.5 0.12 0.1
2.5 0.12 0
2.5 0.14 0.1
2.5 0.14 0
2.5 0.16 0.1
2.5 0.16 0
2.5 0.18 0.1
2.5 0.18 0
2.5 0.2 0.1
2.5 0.2 0
2.5 0.22 0.1
2.5 0.22 0
2.5 0.24 0.1
2.5 0.24 0
2.5 0.26 0.1
2.5 0.26 0
2.5 0.28 0.1
2.5 0.28 0
2.5 0.3 0.1
2.5 0.3 0
2.5 0.32 0.1
2.5 0.32 0
2.5 0.34 0.1
2.5 0.34 0
2.5 0.36 0.1
2.5 0.36 0
2.5 0.38 0.1
2.5 0.38 0
2.5 0.4 0.1
2.5 0.4 0
2.5 0.42 0.1
2.5 0.42 0
2.5 0.44 0.1
2.5 0.44 0
2.5 0.46 0.1
2.5 0.46 0
2.5 0.48 0.1
2.5 0.48 0
2.5 0.5 0.1
2.5 0.5 0
2.5 0.52 0.1
2.5 0.52 0
2.5 0.54 0.1
2.5 0.54 0
2.5 0.56 0.1
2.5 0.56 0
2.5 0.58 0.1
2.5 0.58 0
2.5 0.6 0.1
2.5 0.6 0
2.5 0.62 0.1
2.5 0.62 0
2.5 0.64 0.1
2.5 0.64 0
2.5 0.66 0.1
2.5 0.66 0
2.5 0.68 0.1
2.5 0.68 0
2.5 0.7 0.1
2.5 0.7 0
2.5 0.72 0.1
2.5 0.72 0
2.5 0.74 0.1
2.5 0.74 0
2.5 0.76 0.1
2.5 0.76 0
2.5 0.78 0.1
2.5 0.78 0
2.5 0.8 0.1
2.5 0.8 0
2.5 0.82 0.1
2.5 0.82 0
2.5 0.84 0.1
2.5 0.84 0
2.5 0.86 0.1
2.5 0.86 0
2.5 0.88 0.1
2.5 0.88 0
2.5 0.9 0.1
2.5 0.9 0
2.5 0.92 0.1
2.5 0.92 0
2.5 0.94 0.1
2.5 0.94 0
2.5 0.96 0.1
2.5 0.96 0
2.5 0.98 0.1
2.5 0.98 0
2.52 0 0
2.52 0 0.1
2.54 0 0
2.54 0 0.1
2.56 0 0
2.56 0 0.1
2.58 0 0
2.58 0 0.1
2.6 0 0
2.6 0 0.1
2.62 0 0
2.62 0 0.1
2.64 0 0
2.64 0 0.1
2.66 0 0
2.66 0 0.1
2.68 0 0
2.68 0 0.1
2.7 0 0
2.7 0 0.1
2.72 0 0
2.72 0 0.1
2.74 0 0
2.74 0 0.1
2.76 0 0
2.76 0 0.1
2.78 0 0
2.78 0 0.1
2.8 0 0
2.8 0 0.1
2.82 0 0
2.82 0 0.1
2.84 0 0
2.84 0 0.1
2.86 0 0
2.86 0 0.1
2.88 0 0
2.88 0 0.1
2.9 0 0
2.9 0 0.1
2.92 0 0
2.92 0 0.1
2.94 0 0
2.94 0 0.1
2.96 0 0
2.96 0 0.1
2.98 0 0
2.98 0 0.1
3 0 0
3 0 0.1
3.02 0 0
3.02 0 0.1
3.04 0 0
3.04 0 0.1
3.06 0 0
3.06 0 0.1
3.08 0 0
3.08 0 0.1
3.1 0 0
3.1 0 0.1
3.12 0 0
3.12 0 0.1
3.14 0 0
3.14 0 0.1
3.16 0 0
3.16 0 0.1
3.18 0 0
3.18 0 0.1
3.2 0 0
3.2 0 0.1
3.22 0 0
3.22 0 0.1
3.24 0 0
3.24 0 0.1
3.26 0 0
3.26 0 0.1
3.28 0 0
3.28 0 0.1
3.3 0 0
3.3 0 0.1
3.32 0 0
3.32 0 0.1
3.34 0 0
3.34 0 0.1
3.36 0 0
3.36 0 0.1
3.38 0 0
3.38 0 0.1
3.4 0 0
3.4 0 0.1
3.42 0 0
3.42 0 0.1
3.44 0 0
3.44 0 0.1
3.46 0 0
3.46 0 0.1
3.48 0 0
3.48 0 0.1
3.5 0 0
3.5 0 0.1
3.52 0 0
3.52 0 0.1
3.54 0 0
3.54 0 0.1
3.56 0 0
3.56 0 0.1
3.58 0 0
3.58 0 0.1
3.6 0 0
3.6 0 0.1
3.62 0 0
3.62 0 0.1
3.64 0 0
3.64 0 0.1
3.66 0 0
3.66 0 0.1
3.68 0 0
3.68 0 0.1
3.7 0 0
3.7 0 0.1
3.72 0 0
3.72 0 0.1
3.74 0 0
3.74 0 0.1
3.76 0 0
3.76 0 0.1
3.78 0 0
3.78 0 0.1
3.8 0 0
3.8 0 0.1
3.82 0 0
3.82 0 0.1
3.84 0 0
3.84 0 0.1
3.86 0 0
3.86 0 0.1
3.88 0 0
3.88 0 0.1
3.9 0 0
3.9 0 0.1
3.92 0 0
3.92 0 0.1
3.94 0 0
3.94 0 0.1
3.96 0 0
3.96 0 0.1
3.98 0 0
3.98 0 0.1
4 0 0
4 0 0.1
4.02 0 0
4.02 0 0.1
4.04 0 0
4.04 0 0.1
4.06 0 0
4.06 0 0.1
4.08 0 0
4.08 0 0.1
4.1 0 0
4.1 0 0.1
4.12 0 0
4.12 0 0.1
4.14 0 0
4.14 0 0.1
4.16 0 0
4.16 0 0.1
4.18 0 0
4.18 0 0.1
4.2 0 0
4.2 0 0.1
4.22 0 0
4.22 0 0.1
4.24 0 0
4.24 0 0.1
4.26 0 0
4.26 0 0.1
4.28 0 0
4.28 0 0.1
4.3 0 0
4.3 0 0.1
4.32 0 0
4.32 0 0.1
4.34 0 0
4.34 0 0.1
4.36 0 0
4.36 0 0.1
4.38 0 0
4.38 0 0.1
4.4 0 0
4.4 0 0.1
4.42 0 0
4.42 0 0.1
4.44 0 0
4.44 0 0.1
4.46 0 0
4.46 0 0.1
4.48 0 0
4.48 0 0.1
4.5 0 0
4.5 0 0.1

POLYGONS 325 1625
4 0 1 2 3
4 1 4 5 2
4 4 6 7 5
4 6 8 9 7
4 8 10 11 9
4 10 12 13 11
4 12 14 15 13
4 14 16 17 15
4 16 18 19 17
4 18 20 21 19
4 20 22 23 21
4 22 24 25 23
4 24 26 27 25
4 26 28 29 27
4 28 30 31 29
4 30 32 33 31
4 32 34 35 33
4 34 36 37 35
4 36 38 39 37
4 38 40 41 39
4 40 42 43 41
4 42 44 45 43
4 44 46 47 45
4 46 48 49 47
4 48 50 51 49
4 50 52 53 51
4 52 54 55 53
4 54 56 57 55
4 56 58 59 57
4 58 60 61 59
4 60 62 63 61
4 62 64 65 63
4 64 66 67 65
4 66 68 69 67
4 68 70 71 69
4 70 72 73 71
4 72 74 75 73
4 74 76 77 75
4 76 78 79 77
4 78 80 81 79
4 80 82 83 81
4 82 84 85 83
4 84 86 87 85
4 86 88 89 87
4 88 90 91 89
4 90 92 93 91
4 92 94 95 93
4 94 96 97 95
4 96 98 99 97
4 98 100 101 99
4 100 102 103 101
4 102 104 105 103
4 104 106 107 105
4 106 108 109 107
4 108 110 111 109
4 110 112 113 111
4 112 114 115 113
4 114 116 117 115
4 116 118 119 117
4 118 120 121 119
4 120 122 123 121
4 122 124 125 123
4 124 126 127 125
4 126 128 129 127
4 128 130 131 129
4 130 132 133 131
4 132 134 135 133
4 134 136 137 135
4 136 138 139 137
4 138 140 141 139
4 140 142 143 141
4 142 144 145 143
4 144 146 147 145
4 146 148 149 147
4 148 150 151 149
4 150 152 153 151
4 152 154 155 153
4 154 156 157 155
4 156 158 159 157
4 158 160 161 159
4 160 162 163 161
4 162 164 165 163
4 164 166 167 165
4 166 168 169 167
4 168 170 171 169
4 170 172 173 171
4 172 174 175 173
4 174 176 177 175
4 176 178 179 177
4 178 180 181 179
4 180 182 183 181
4 182 184 185 183
4 184 186 187 185
4 186 188 189 187
4 188 190 191 189
4 190 192 193 191
4 192 194 195 193
4 194 196 197 195
4 196 198 199 197
4 198 200 201 199
4 200 202 203 201
4 202 204 205 203
4 204 206 207 205
4 206 208 209 207
4 208 210 211 209
4 210 212 213 211
4 212 214 215 213
4 214 216 217 215
4 216 218 219 217
4 218 220 221 219
4 220 222 223 221
4 222 224 225 223
4 224 226 227 225
4 226 228 229 227
4 228 230 231 229
4 230 232 233 231
4 232 234 235 233
4 234 236 237 235
4 236 238 239 237
4 238 240 241 239
4 240 242 243 241
4 242 244 245 243
4 244 246 247 245
4 246 248 249 247
4 248 250 251 249
4 250 252 253 251
4 252 254 255 253
4 254 256 257 255
4 256 258 259 257
4 258 260 261 259
4 260 262 263 261
4 262 264 265 263
4 264 266 267 265
4 266 268 269 267
4 268 270 271 269
4 270 272 273 271
4 272 274 275 273
4 274 276 277 275
4 276 278 279 277
4 278 280 281 279
4 280 282 283 281
4 282 284 285 283
4 284 286 287 285
4 286 288 289 287
4 288 290 291 289
4 290 292 293 291
4 292 294 295 293
4 294 296 297 295
4 296 298 299 297
4 298 300 301 299
4 300 302 303 301
4 302 304 305 303
4 304 306 307 305
4 306 308 309 307
4 308 310 311 309
4 310 312 313 311
4 312 314 315 313
4 314 316 317 315
4 316 318 319 317
4 318 320 321 319
4 320 322 323 321
4 322 324 325 323
4 324 326 327 325
4 326 328 329 327
4 328 330 331 329
4 330 332 333 331
4 332 334 335 333
4 334 336 337 335
4 336 338 339 337
4 338 340 341 339
4 340 342 343 341
4 342 344 345 343
4 344 346 347 345
4 346 348 349 347
4 348 350 351 349
4 352 353 354 355
4 355 354 356 357
4 357 356 358 359
4 359 358 360 361
4 361 360 362 363
4 363 362 364 365
4 365 364 366 367
4 367 366 368 369
4 369 368 370 371
4 371 370 372 373
4 373 372 374 375
4 375 374 376 377
4 377 376 378 379
4 379 378 380 381
4 381 380 382 383
4 383 382 384 385
4 385 384 386 387
4 387 386 388 389
4 389 388 390 391
4 391 390 392 393
4 393 392 394 395
4 395 394 396 397
4 397 396 398 399
4 399 398 400 401
4 401 400 402 403
4 403 402 404 405
4 405 404 406 407
4 407 406 408 409
4 409 408 410 411
4 411 410 412 413
4 413 412 414 415
4 415 414 416 417
4 417 416 418 419
4 419 418 420 421
4 421 420 422 423
4 423 422 424 425
4 425 424 426 427
4 427 426 428 429
4 429 428 430 431
4 431 430 432 433
4 433 432 434 435
4 435 434 436 437
4 437 436 438 439
4 439 438 440 441
4 441 440 442 443
4 443 442 444 445
4 445 444 446 447
4 447 446 448 449
4 449 448 450 451
4 451 450 351 350
4 352 452 453 353
4 452 454 455 453
4 454 456 457 455
4 456 458 459 457
4 458 460 461 459
4 460 462 463 461
4 462 464 465 463
4 464 466 467 465
4 466 468 469 467
4 468 470 471 469
4 470 472 473 471
4 472 474 475 473
4 474 476 477 475
4 476 478 479 477
4 478 480 481 479
4 480 482 483 481
4 482 484 485 483
4 484 486 487 485
4 486 488 489 487
4 488 490 491 489
4 490 492 493 491
4 492 494 495 493
4 494 496 497 495
4 496 498 499 497
4 498 500 501 499
4 500 502 503 501
4 502 504 505 503
4 504 506 507 505
4 506 508 509 507
4 508 510 511 509
4 510 512 513 511
4 512 514 515 513
4 514 516 517 515
4 516 518 519 517
4 518 520 521 519
4 520 522 523 521
4 522 524 525 523
4 524 526 527 525
4 526 528 529 527
4 528 530 531 529
4 530 532 533 531
4 532 534 535 533
4 534 536 537 535
4 536 538 539 537
4 538 540 541 539
4 540 542 543 541
4 542 544 545 543
4 544 546 547 545
4 546 548 549 547
4 548 550 551 549
4 550 552 553 551
4 552 554 555 553
4 554 556 557 555
4 556 558 559 557
4 558 560 561 559
4 560 562 563 561
4 562 564 565 563
4 564 566 567 565
4 566 568 569 567
4 568 570 571 569
4 570 572 573 571
4 572 574 575 573
4 574 576 577 575
4 576 578 579 577
4 578 580 581 579
4 580 582 583 581
4 582 584 585 583
4 584 586 587 585
4 586 588 589 587
4 588 590 591 589
4 590 592 593 591
4 592 594 595 593
4 594 596 597 595
4 596 598 599 597
4 598 600 601 599
4 600 602 603 601
4 602 604 605 603
4 604 606 607 605
4 606 608 609 607
4 608 610 611 609
4 610 612 613 611
4 612 614 615 613
4 614 616 617 615
4 616 618 619 617
4 618 620 621 619
4 620 622 623 621
4 622 624 625 623
4 624 626 627 625
4 626 628 629 627
4 628 630 631 629
4 630 632 633 631
4 632 634 635 633
4 634 636 637 635
4 636 638 639 637
4 638 640 641 639
4 640 642 643 641
4 642 644 645 643
4 644 646 647 645
4 646 648 649 647
4 648 650 651 649
POINT_DATA 652
FIELD attributes 1
U 3 652 float
2.43769 -0.0397533 0.0175086
1.21934 -0.0198796 0.00875432
1.21934 -0.0198796 0.00875432
2.43769 -0.0397533 0.0175086
0.000981718 -5.74043e-06 0
0.000981718 -5.74043e-06 0
0.000982609 -4.57869e-06 0
0.000982609 -4.57869e-06 0
0.000981984 -2.0485e-06 0
0.000981984 -2.0485e-06 0
0.00098048 -3.61145e-07 0
0.00098048 -3.61145e-07 0
0.000980026 -8.85081e-07 0
0.000980026 -8.85081e-07 0
0.000980639 -2.01198e-06 0
0.000980639 -2.01198e-06 0
0.000981039 -1.80683e-06 0
0.000981039 -1.80683e-06 0
0.000980191 -1.74375e-07 0
0.000980191 -1.74375e-07 0
0.000978278 1.46533e-06 0
0.000978278 1.46533e-06 0
0.000976379 2.00052e-06 0
0.000976379 2.00052e-06 0
0.000975274 1.74453e-06 0
0.000975274 1.74453e-06 0
0.000974654 1.78049e-06 0
0.000974654 1.78049e-06 0
0.000973535 2.56628e-06 0
0.000973535 2.56628e-06 0
0.000971314 3.45292e-06 0
0.000971314 3.45292e-06 0
0.000968298 3.48719e-06 0
0.000968298 3.48719e-06 0
0.000965302 2.51684e-06 0
0.000965302 2.51684e-06 0
0.000962852 1.49738e-06 0
0.000962852 1.49738e-06 0
0.000960719 1.66775e-06 0
0.000960719 1.66775e-06 0
0.0009581 3.32988e-06 0
0.0009581 3.32988e-06 0
0.00095432 5.41755e-06 0
0.00095432 5.41755e-06 0
0.000949493 6.29587e-06 0
0.000949493 6.29587e-06 0
0.000944507 5.10786e-06 0
0.000944507 5.10786e-06 0
0.000940297 2.53249e-06 0
0.000940297 2.53249e-06 0
0.000937086 3.0679e-07 0
0.000937086 3.0679e-07 0
0.00093416 -6.99445e-08 0
0.00093416 -6.99445e-08 0
0.000930321 1.62605e-06 0
0.000930321 1.62605e-06 0
0.000924669 4.2575e-06 0
0.000924669 4.2575e-06 0
0.000917183 6.11337e-06 0
0.000917183 6.11337e-06 0
0.000908739 5.99302e-06 0
0.000908739 5.99302e-06 0
0.000900613 3.97972e-06 0
0.000900613 3.97972e-06 0
0.000893828 1.46287e-06 0
0.000893828 1.46287e-06 0
0.000888663 2.5351e-07 0
0.000888663 2.5351e-07 0
0.000884477 1.31243e-06 0
0.000884477 1.31243e-06 0
0.000880046 4.01005e-06 0
0.000880046 4.01005e-06 0
0.000874352 6.5299e-06 0
0.000874352 6.5299e-06 0
0.000867253 7.27705e-06 0
0.000867253 7.27705e-06 0
0.000859425 6.14503e-06 0
0.000859425 6.14503e-06 0
0.000851638 4.45636e-06 0
0.000851638 4.45636e-06 0
0.000844076 3.69679e-06 0
0.000844076 3.69679e-06 0
0.000836319 4.31172e-06 0
0.000836319 4.31172e-06 0
0.000827858 5.64554e-06 0
0.000827858 5.64554e-06 0
0.000818507 6.82237e-06 0
0.000818507 6.82237e-06 0
0.000808373 7.46156e-06 0
0.000808373 7.46156e-06 0
0.000797629 7.58433e-06 0
0.000797629 7.58433e-06 0
0.000786494 7.17305e-06 0
0.000786494 7.17305e-06 0
0.000775336 6.14716e-06 0
0.000775336 6.14716e-06 0
0.000764546 4.75144e-06 0
0.000764546 4.75144e-06 0
0.000754169 3.66555e-06 0
0.000754169 3.66555e-06 0
0.000743765 3.50001e-06 0
0.000743765 3.50001e-06 0
0.000732788 4.2435e-06 0
0.000732788 4.2435e-06 0
0.000721113 5.38911e-06 0
0.000721113 5.38911e-06 0
0.000709033 6.6072e-06 0
0.000709033 6.6072e-06 0
0.00069666 8.06323e-06 0
0.00069666 8.06323e-06 0
0.000683483 9.91026e-06 0
0.000683483 9.91026e-06 0
0.000668741 1.16581e-05 0
0.000668741 1.16581e-05 0
0.000652299 1.24472e-05 0
0.000652299 1.24472e-05 0
0.000634921 1.21408e-05 0
0.000634921 1.21408e-05 0
0.00061744 1.19093e-05 0
0.00061744 1.19093e-05 0
0.000599592 1.33144e-05 0
0.000599592 1.33144e-05 0
0.00057987 1.66264e-05 0
0.00057987 1.66264e-05 0
0.000556757 2.02003e-05 0
0.000556757 2.02003e-05 0
0.000530201 2.17708e-05 0
0.000530201 2.17708e-05 0
0.000501861 2.03962e-05 0
0.000501861 2.03962e-05 0
0.000473984 1.70122e-05 0
0.000473984 1.70122e-05 0
0.00044814 1.33577e-05 0
0.00044814 1.33577e-05 0
0.00042479 1.07038e-05 0
0.00042479 1.07038e-05 0
0.000403583 9.38153e-06 0
0.000403583 9.38153e-06 0
0.000383805 9.05084e-06 0
0.000383805 9.05084e-06 0
0.000364728 9.21204e-06 0
0.000364728 9.21204e-06 0
0.00034581 9.50613e-06 0
0.00034581 9.50613e-06 0
0.000326736 9.75174e-06 0
0.000326736 9.75174e-06 0
0.000307373 9.89693e-06 0
0.000307373 9.89693e-06 0
0.000287697 9.94942e-06 0
0.000287697 9.94942e-06 0
0.000267753 9.92677e-06 0
0.000267753 9.92677e-06 0
0.00024761 9.83675e-06 0
0.00024761 9.83675e-06 0
0.000227358 9.67612e-06 0
0.000227358 9.67612e-06 0
0.000207096 9.43567e-06 0
0.000207096 9.43567e-06 0
0.00018694 9.10456e-06 0
0.00018694 9.10456e-06 0
0.000167017 8.67263e-06 0
0.000167017 8.67263e-06 0
0.000147471 8.13184e-06 0
0.000147471 8.13184e-06 0
0.000128457 7.47721e-06 0
0.000128457 7.47721e-06 0
0.000110142 6.70764e-06 0
0.000110142 6.70764e-06 0
9.26966e-05 5.82639e-06 0
9.26966e-05 5.82639e-06 0
7.62914e-05 4.84179e-06 0
7.62914e-05 4.84179e-06 0
6.10879e-05 3.76801e-06 0
6.10879e-05 3.76801e-06 0
4.72309e-05 2.62875e-06 0
4.72309e-05 2.62875e-06 0
3.48403e-05 1.45555e-06 0
3.48403e-05 1.45555e-06 0
2.40078e-05 2.78444e-07 0
2.40078e-05 2.78444e-07 0
1.47943e-05 -8.7612e-07 0
1.47943e-05 -8.7612e-07 0
7.22679e-06 -1.98298e-06 0
7.22679e-06 -1.98298e-06 0
1.29489e-06 -3.01874e-06 0
1.29489e-06 -3.01874e-06 0
-3.0444e-06 -3.96158e-06 0
-3.0444e-06 -3.96158e-06 0
-5.86761e-06 -4.79662e-06 0
-5.86761e-06 -4.79662e-06 0
-7.30085e-06 -5.51436e-06 0
-7.30085e-06 -5.51436e-06 0
-7.49611e-06 -6.09868e-06 0
-7.49611e-06 -6.09868e-06 0
-6.63266e-06 -6.54608e-06 0
-6.63266e-06 -6.54608e-06 0
-4.9162e-06 -6.87472e-06 0
-4.9162e-06 -6.87472e-06 0
-2.60588e-06 -7.06232e-06 0
-2.60588e-06 -7.06232e-06 0
-1.34186e-06 -7.11254e-06 0
-1.34186e-06 -7.11254e-06 0
3.51703e-06 -2.57545e-06 0
3.51703e-06 -2.57545e-06 0
1.08371e-05 1.43559e-05 0
1.08371e-05 1.43559e-05 0
1.40185e-05 4.10269e-05 0
1.40185e-05 4.10269e-05 0
1.45974e-05 7.02823e-05 0
1.45974e-05 7.02823e-05 0
1.39701e-05 9.92189e-05 0
1.39701e-05 9.92189e-05 0
1.29506e-05 0.000126119 0
1.29506e-05 0.000126119 0
1.19692e-05 0.000150998 0
1.19692e-05 0.000150998 0
1.12015e-05 0.000174119 0
1.12015e-05 0.000174119 0
1.06879e-05 0.000195998 0
1.06879e-05 0.000195998 0
1.04044e-05 0.000217115 0
1.04044e-05 0.000217115 0
1.0302e-05 0.000237862 0
1.0302e-05 0.000237862 0
1.03286e-05 0.000258552 0
1.03286e-05 0.000258552 0
1.04408e-05 0.000279399 0
1.04408e-05 0.000279399 0
1.0606e-05 0.000300534 0
1.0606e-05 0.000300534 0
1.0802e-05 0.000322034 0
1.0802e-05 0.000322034 0
1.10153e-05 0.000343944 0
1.10153e-05 0.000343944 0
1.12387e-05 0.000366288 0
1.12387e-05 0.000366288 0
1.14691e-05 0.000389083 0
1.14691e-05 0.000389083 0
1.17063e-05 0.000412342 0
1.17063e-05 0.000412342 0
1.19522e-05 0.00043608 0
1.19522e-05 0.00043608 0
1.22088e-05 0.000460316 0
1.22088e-05 0.000460316 0
1.24798e-05 0.000485077 0
1.24798e-05 0.000485077 0
1.27677e-05 0.000510392 0
1.27677e-05 0.000510392 0
1.3077e-05 0.000536301 0
1.3077e-05 0.000536301 0
1.34099e-05 0.000562848 0
1.34099e-05 0.000562848 0
1.37724e-05 0.000590088 0
1.37724e-05 0.000590088 0
1.41657e-05 0.000618079 0
1.41657e-05 0.000618079 0
1.45993e-05 0.000646896 0
1.45993e-05 0.000646896 0
1.50717e-05 0.00067661 0
1.50717e-05 0.00067661 0
1.56009e-05 0.000707327 0
1.56009e-05 0.000707327 0
1.61754e-05 0.000739133 0
1.61754e-05 0.000739133 0
1.68358e-05 0.000772183 0
1.68358e-05 0.000772183 0
1.75435e-05 0.000806568 0
1.75435e-05 0.000806568 0
1.839e-05 0.000842536 0
1.839e-05 0.000842536 0
1.92717e-05 0.000880162 0
1.92717e-05 0.000880162 0
2.04066e-05 0.000919875 0
2.04066e-05 0.000919875 0
2.1501e-05 0.000961669 0
2.1501e-05 0.000961669 0
2.31297e-05 0.00100633 0
2.31297e-05 0.00100633 0
2.44698e-05 0.00105367 0
2.44698e-05 0.00105367 0
2.69872e-05 0.00110515 0
2.69872e-05 0.00110515 0
2.86044e-05 0.00116013 0
2.86044e-05 0.00116013 0
3.29087e-05 0.00122161 0
3.29087e-05 0.00122161 0
3.46319e-05 0.00128777 0
3.46319e-05 0.00128777 0
4.3235e-05 0.00136519 0
4.3235e-05 0.00136519 0
4.46109e-05 0.00145001 0
4.46109e-05 0.00145001 0
6.53385e-05 0.00155619 0
6.53385e-05 0.00155619 0
6.77356e-05 0.0016809 0
6.77356e-05 0.0016809 0
0.000128695 0.00184912 0
0.000128695 0.00184912 0
0.000152543 0.00207751 0
0.000152543 0.00207751 0
0.000223553 0.00135474 0
0.000223553 0.00135474 0
-0.000165201 0.0002485 0
-0.000165201 0.0002485 0
-0.000418492 2.76339e-05 0
-0.000418492 2.76339e-05 0
-0.000623649 0.000187109 0
-0.000623649 0.000187109 0
-0.0012274 0.000292963 0
-0.0012274 0.000292963 0
-0.00164697 0.000251332 0
-0.00164697 0.000251332 0
-0.00200348 0.000158404 0
-0.00200348 0.000158404 0
-0.0021293 4.86374e-05 0
-0.0021293 4.86374e-05 0
-0.00212613 -4.33878e-05 0
-0.00212613 -4.33878e-05 0
-0.00195952 -0.000127331 0
-0.00195952 -0.000127331 0
-0.00165452 -0.000208725 0
-0.00165452 -0.000208725 0
-0.00118681 -0.000290241 0
-0.00118681 -0.000290241 0
-0.000568584 -0.000366575 0
-0.000568584 -0.000366575 0
0.000188102 -0.000412885 0
0.000188102 -0.000412885 0
0.000988032 -0.000430346 0
0.000988032 -0.000430346 0
0.00180832 -0.000431638 0
0.00180832 -0.000431638 0
0.00258134 -0.000380399 0
0.00258134 -0.000380399 0
0.00319442 -0.000257739 0
0.00319442 -0.000257739 0
0.00357307 -0.000106079 0
0.00357307 -0.000106079 0
0.00364863 7.01832e-05 0
0.00364863 7.01832e-05 0
0.00336735 0.000303851 0
0.00336735 0.000303851 0
0.00272116 0.000543817 0
0.00272116 0.000543817 0
0.00153797 0.000532465 0
0.00153797 0.000532465 0
0.000583484 0.00017086 0
0.000583484 0.00017086 0
0.000215422 1.09394e-05 0
0.000215422 1.09394e-05 0
-6.17856e-05 0.000634704 0
-6.17856e-05 0.000634704 0
-8.25751e-06 6.63451e-06 0
-8.25751e-06 6.63451e-06 0
-9.30032e-06 1.60227e-05 0
-9.30032e-06 1.60227e-05 0
-1.0194e-05 3.57708e-05 0
-1.0194e-05 3.57708e-05 0
-9.85712e-06 5.53447e-05 0
-9.85712e-06 5.53447e-05 0
-9.56823e-06 7.38099e-05 0
-9.56823e-06 7.38099e-05 0
-9.40497e-06 9.21302e-05 0
-9.40497e-06 9.21302e-05 0
-9.28616e-06 0.000110161 0
-9.28616e-06 0.000110161 0
-9.16405e-06 0.000127981 0
-9.16405e-06 0.000127981 0
-9.02012e-06 0.000145563 0
-9.02012e-06 0.000145563 0
-8.84801e-06 0.000162852 0
-8.84801e-06 0.000162852 0
-8.64488e-06 0.000179788 0
-8.64488e-06 0.000179788 0
-8.40864e-06 0.00019631 0
-8.40864e-06 0.00019631 0
-8.13696e-06 0.000212349 0
-8.13696e-06 0.000212349 0
-7.82739e-06 0.000227834 0
-7.82739e-06 0.000227834 0
-7.47818e-06 0.000242686 0
-7.47818e-06 0.000242686 0
-7.08768e-06 0.000256827 0
-7.08768e-06 0.000256827 0
-6.65453e-06 0.000270173 0
-6.65453e-06 0.000270173 0
-6.17971e-06 0.000282639 0
-6.17971e-06 0.000282639 0
-5.66587e-06 0.000294143 0
-5.66587e-06 0.000294143 0
-5.11494e-06 0.000304604 0
-5.11494e-06 0.000304604 0
-4.53048e-06 0.000313943 0
-4.53048e-06 0.000313943 0
-3.91764e-06 0.000322098 0
-3.91764e-06 0.000322098 0
-3.28363e-06 0.000329008 0
-3.28363e-06 0.000329008 0
-2.63529e-06 0.00033464 0
-2.63529e-06 0.00033464 0
-1.97594e-06 0.000338957 0
-1.97594e-06 0.000338957 0
-1.31889e-06 0.000341977 0
-1.31889e-06 0.000341977 0
-6.58214e-07 0.000343666 0
-6.58214e-07 0.000343666 0
2.1668e-08 0.000344158 0
2.1668e-08 0.000344158 0
7.14377e-07 0.000343245 0
7.14377e-07 0.000343245 0
1.3687e-06 0.000341392 0
1.3687e-06 0.000341392 0
1.98228e-06 0.000338125 0
1.98228e-06 0.000338125 0
2.47982e-06 0.000334665 0
2.47982e-06 0.000334665 0
2.87133e-06 0.000329687 0
2.87133e-06 0.000329687 0
3.03463e-06 0.000325762 0
3.03463e-06 0.000325762 0
3.01284e-06 0.000320395 0
3.01284e-06 0.000320395 0
2.59243e-06 0.000317595 0
2.59243e-06 0.000317595 0
1.97832e-06 0.0003138 0
1.97832e-06 0.0003138 0
6.632e-07 0.0003141 0
6.632e-07 0.0003141 0
-9.5997e-07 0.000314546 0
-9.5997e-07 0.000314546 0
-2.01158e-06 0.00032194 0
-2.01158e-06 0.00032194 0
-8.52277e-06 0.00032751 0
-8.52277e-06 0.00032751 0
-7.27841e-06 0.000352654 0
-7.27841e-06 0.000352654 0
-1.22273e-05 0.000365908 0
-1.22273e-05 0.000365908 0
-2.92697e-05 0.000401048 0
-2.92697e-05 0.000401048 0
-3.73896e-05 0.00046817 0
-3.73896e-05 0.00046817 0
-2.64969e-05 0.000519549 0
-2.64969e-05 0.000519549 0
-5.72957e-05 0.00062106 0
-5.72957e-05 0.00062106 0
-5.96682e-05 0.000722354 0
-5.96682e-05 0.000722354 0
-8.65081e-05 0.00084963 0
-8.65081e-05 0.00084963 0
-0.000151986 0.00105662 0
-0.000151986 0.00105662 0
-1.59469e-05 6.62744e-06 0
-1.59469e-05 6.62744e-06 0
-3.17425e-05 6.75891e-06 0
-3.17425e-05 6.75891e-06 0
-4.80371e-05 7.04115e-06 0
-4.80371e-05 7.04115e-06 0
-6.45879e-05 7.3634e-06 0
-6.45879e-05 7.3634e-06 0
-8.15785e-05 7.74782e-06 0
-8.15785e-05 7.74782e-06 0
-9.90473e-05 8.17098e-06 0
-9.90473e-05 8.17098e-06 0
-0.000117014 8.60794e-06 0
-0.000117014 8.60794e-06 0
-0.000135489 9.03853e-06 0
-0.000135489 9.03853e-06 0
-0.00015444 9.4432e-06 0
-0.00015444 9.4432e-06 0
-0.000173835 9.80716e-06 0
-0.000173835 9.80716e-06 0
-0.000193609 1.01202e-05 0
-0.000193609 1.01202e-05 0
-0.000213705 1.03764e-05 0
-0.000213705 1.03764e-05 0
-0.000234044 1.05721e-05 0
-0.000234044 1.05721e-05 0
-0.000254552 1.07046e-05 0
-0.000254552 1.07046e-05 0
-0.000275139 1.07741e-05 0
-0.000275139 1.07741e-05 0
-0.000295707 1.07808e-05 0
-0.000295707 1.07808e-05 0
-0.000316133 1.07192e-05 0
-0.000316133 1.07192e-05 0
-0.000336283 1.05784e-05 0
-0.000336283 1.05784e-05 0
-0.000356006 1.03466e-05 0
-0.000356006 1.03466e-05 0
-0.00037513 1.00124e-05 0
-0.00037513 1.00124e-05 0
-0.000393466 9.56564e-06 0
-0.000393466 9.56564e-06 0
-0.000410807 8.99727e-06 0
-0.000410807 8.99727e-06 0
-0.000426933 8.30015e-06 0
-0.000426933 8.30015e-06 0
-0.000441611 7.47e-06 0
-0.000441611 7.47e-06 0
-0.000454603 6.50644e-06 0
-0.000454603 6.50644e-06 0
-0.000465671 5.41327e-06 0
-0.000465671 5.41327e-06 0
-0.000474589 4.19998e-06 0
-0.000474589 4.19998e-06 0
-0.00048115 2.88497e-06 0
-0.00048115 2.88497e-06 0
-0.000485176 1.495e-06 0
-0.000485176 1.495e-06 0
-0.000486503 7.15175e-08 0
-0.000486503 7.15175e-08 0
-0.000485077 -1.34294e-06 0
-0.000485077 -1.34294e-06 0
-0.000480891 -2.74246e-06 0
-0.000480891 -2.74246e-06 0
-0.000473909 -4.13286e-06 0
-0.000473909 -4.13286e-06 0
-0.000464149 -5.50305e-06 0
-0.000464149 -5.50305e-06 0
-0.000451667 -6.83641e-06 0
-0.000451667 -6.83641e-06 0
-0.000436559 -8.11381e-06 0
-0.000436559 -8.11381e-06 0
-0.000418956 -9.31742e-06 0
-0.000418956 -9.31742e-06 0
-0.000399024 -1.04318e-05 0
-0.000399024 -1.04318e-05 0
-0.000376959 -1.14448e-05 0
-0.000376959 -1.14448e-05 0
-0.000352974 -1.23471e-05 0
-0.000352974 -1.23471e-05 0
-0.000327301 -1.31329e-05 0
-0.000327301 -1.31329e-05 0
-0.000300175 -1.37998e-05 0
-0.000300175 -1.37998e-05 0
-0.000271838 -1.43481e-05 0
-0.000271838 -1.43481e-05 0
-0.000242525 -1.47808e-05 0
-0.000242525 -1.47808e-05 0
-0.000212463 -1.51029e-05 0
-0.000212463 -1.51029e-05 0
-0.000181869 -1.53213e-05 0
-0.000181869 -1.53213e-05 0
-0.000150942 -1.54433e-05 0
-0.000150942 -1.54433e-05 0
-0.000119865 -1.54773e-05 0
-0.000119865 -1.54773e-05 0
-8.88005e-05 -1.5435e-05 0
-8.88005e-05 -1.5435e-05 0
-5.78876e-05 -1.53224e-05 0
-5.78876e-05 -1.53224e-05 0
-2.72609e-05 -1.51497e-05 0
-2.72609e-05 -1.51497e-05 0
2.95194e-06 -1.49284e-05 0
2.95194e-06 -1.49284e-05 0
3.26641e-05 -1.4664e-05 0
3.26641e-05 -1.4664e-05 0
6.18119e-05 -1.43653e-05 0
6.18119e-05 -1.43653e-05 0
9.03336e-05 -1.40394e-05 0
9.03336e-05 -1.40394e-05 0
0.000118181 -1.3693e-05 0
0.000118181 -1.3693e-05 0
0.000145318 -1.33318e-05 0
0.000145318 -1.33318e-05 0
0.00017172 -1.29608e-05 0
0.00017172 -1.29608e-05 0
0.000197373 -1.25843e-05 0
0.000197373 -1.25843e-05 0
0.000222269 -1.22061e-05 0
0.000222269 -1.22061e-05 0
0.000246409 -1.1829e-05 0
0.000246409 -1.1829e-05 0
0.000269796 -1.14557e-05 0
0.000269796 -1.14557e-05 0
0.000292442 -1.10883e-05 0
0.000292442 -1.10883e-05 0
0.00031436 -1.07283e-05 0
0.00031436 -1.07283e-05 0
0.000335565 -1.03771e-05 0
0.000335565 -1.03771e-05 0
0.000356077 -1.00354e-05 0
0.000356077 -1.00354e-05 0
0.000375915 -9.70415e-06 0
0.000375915 -9.70415e-06 0
0.0003951 -9.38368e-06 0
0.0003951 -9.38368e-06 0
0.000413655 -9.07435e-06 0
0.000413655 -9.07435e-06 0
0.000431602 -8.77635e-06 0
0.000431602 -8.77635e-06 0
0.000448963 -8.48974e-06 0
0.000448963 -8.48974e-06 0
0.000465762 -8.21445e-06 0
0.000465762 -8.21445e-06 0
0.000482021 -7.95032e-06 0
0.000482021 -7.95032e-06 0
0.000497761 -7.69718e-06 0
0.000497761 -7.69718e-06 0
0.000513006 -7.45488e-06 0
0.000513006 -7.45488e-06 0
0.000527777 -7.22326e-06 0
0.000527777 -7.22326e-06 0
0.000542094 -7.00208e-06 0
0.000542094 -7.00208e-06 0
0.000555978 -6.79107e-06 0
0.000555978 -6.79107e-06 0
0.000569449 -6.5899e-06 0
0.000569449 -6.5899e-06 0
0.000582526 -6.39827e-06 0
0.000582526 -6.39827e-06 0
0.00059523 -6.21588e-06 0
0.00059523 -6.21588e-06 0
0.000607576 -6.04246e-06 0
0.000607576 -6.04246e-06 0
0.000619585 -5.87772e-06 0
0.000619585 -5.87772e-06 0
0.000631268 -5.72145e-06 0
0.000631268 -5.72145e-06 0
0.000642652 -5.57332e-06 0
0.000642652 -5.57332e-06 0
0.000653739 -5.43319e-06 0
0.000653739 -5.43319e-06 0
0.000664565 -5.30071e-06 0
0.000664565 -5.30071e-06 0
0.000675113 -5.17584e-06 0
0.000675113 -5.17584e-06 0
0.000685448 -5.05806e-06 0
0.000685448 -5.05806e-06 0
0.000695506 -4.94763e-06 0
0.000695506 -4.94763e-06 0
0.000705422 -4.84361e-06 0
0.000705422 -4.84361e-06 0
0.000715024 -4.74688e-06 0
0.000715024 -4.74688e-06 0
0.000724609 -4.65572e-06 0
0.000724609 -4.65572e-06 0
0.000733757 -4.57238e-06 0
0.000733757 -4.57238e-06 0
0.000743137 -4.49323e-06 0
0.000743137 -4.49323e-06 0
0.000751767 -4.42342e-06 0
0.000751767 -4.42342e-06 0
0.000761158 -4.35496e-06 0
0.000761158 -4.35496e-06 0
0.00076906 -4.29955e-06 0
0.00076906 -4.29955e-06 0
0.983996 -0.00524729 0
0.983996 -0.00524729 0
1.96722 -0.0104903 0
1.96722 -0.0104903 0
