# vtk DataFile Version 2.0
sampleSurface
ASCII
DATASET POLYDATA
POINTS 652 double
0 0 0
0.02 0 0
0.02 0 0.1
0 0 0.1
0.04 0 0
0.04 0 0.1
0.06 0 0
0.06 0 0.1
0.08 0 0
0.08 0 0.1
0.1 0 0
0.1 0 0.1
0.12 0 0
0.12 0 0.1
0.14 0 0
0.14 0 0.1
0.16 0 0
0.16 0 0.1
0.18 0 0
0.18 0 0.1
0.2 0 0
0.2 0 0.1
0.22 0 0
0.22 0 0.1
0.24 0 0
0.24 0 0.1
0.26 0 0
0.26 0 0.1
0.28 0 0
0.28 0 0.1
0.3 0 0
0.3 0 0.1
0.32 0 0
0.32 0 0.1
0.34 0 0
0.34 0 0.1
0.36 0 0
0.36 0 0.1
0.38 0 0
0.38 0 0.1
0.4 0 0
0.4 0 0.1
0.42 0 0
0.42 0 0.1
0.44 0 0
0.44 0 0.1
0.46 0 0
0.46 0 0.1
0.48 0 0
0.48 0 0.1
0.5 0 0
0.5 0 0.1
0.52 0 0
0.52 0 0.1
0.54 0 0
0.54 0 0.1
0.56 0 0
0.56 0 0.1
0.58 0 0
0.58 0 0.1
0.6 0 0
0.6 0 0.1
0.62 0 0
0.62 0 0.1
0.64 0 0
0.64 0 0.1
0.66 0 0
0.66 0 0.1
0.68 0 0
0.68 0 0.1
0.7 0 0
0.7 0 0.1
0.72 0 0
0.72 0 0.1
0.74 0 0
0.74 0 0.1
0.76 0 0
0.76 0 0.1
0.78 0 0
0.78 0 0.1
0.8 0 0
0.8 0 0.1
0.82 0 0
0.82 0 0.1
0.84 0 0
0.84 0 0.1
0.86 0 0
0.86 0 0.1
0.88 0 0
0.88 0 0.1
0.9 0 0
0.9 0 0.1
0.92 0 0
0.92 0 0.1
0.94 0 0
0.94 0 0.1
0.96 0 0
0.96 0 0.1
0.98 0 0
0.98 0 0.1
1 0 0
1 0 0.1
1.02 0 0
1.02 0 0.1
1.04 0 0
1.04 0 0.1
1.06 0 0
1.06 0 0.1
1.08 0 0
1.08 0 0.1
1.1 0 0
1.1 0 0.1
1.12 0 0
1.12 0 0.1
1.14 0 0
1.14 0 0.1
1.16 0 0
1.16 0 0.1
1.18 0 0
1.18 0 0.1
1.2 0 0
1.2 0 0.1
1.22 0 0
1.22 0 0.1
1.24 0 0
1.24 0 0.1
1.26 0 0
1.26 0 0.1
1.28 0 0
1.28 0 0.1
1.3 0 0
1.3 0 0.1
1.32 0 0
1.32 0 0.1
1.34 0 0
1.34 0 0.1
1.36 0 0
1.36 0 0.1
1.38 0 0
1.38 0 0.1
1.4 0 0
1.4 0 0.1
1.42 0 0
1.42 0 0.1
1.44 0 0
1.44 0 0.1
1.46 0 0
1.46 0 0.1
1.48 0 0
1.48 0 0.1
1.5 0 0
1.5 0 0.1
1.52 0 0
1.52 0 0.1
1.54 0 0
1.54 0 0.1
1.56 0 0
1.56 0 0.1
1.58 0 0
1.58 0 0.1
1.6 0 0
1.6 0 0.1
1.62 0 0
1.62 0 0.1
1.64 0 0
1.64 0 0.1
1.66 0 0
1.66 0 0.1
1.68 0 0
1.68 0 0.1
1.7 0 0
1.7 0 0.1
1.72 0 0
1.72 0 0.1
1.74 0 0
1.74 0 0.1
1.76 0 0
1.76 0 0.1
1.78 0 0
1.78 0 0.1
1.8 0 0
1.8 0 0.1
1.82 0 0
1.82 0 0.1
1.84 0 0
1.84 0 0.1
1.86 0 0
1.86 0 0.1
1.88 0 0
1.88 0 0.1
1.9 0 0
1.9 0 0.1
1.92 0 0
1.92 0 0.1
1.94 0 0
1.94 0 0.1
1.96 0 0
1.96 0 0.1
1.98 0 0
1.98 0 0.1
2 0 0
2 0 0.1
2 0.02 0
2 0.02 0.1
2 0.04 0
2 0.04 0.1
2 0.06 0
2 0.06 0.1
2 0.08 0
2 0.08 0.1
2 0.1 0
2 0.1 0.1
2 0.12 0
2 0.12 0.1
2 0.14 0
2 0.14 0.1
2 0.16 0
2 0.16 0.1
2 0.18 0
2 0.18 0.1
2 0.2 0
2 0.2 0.1
2 0.22 0
2 0.22 0.1
2 0.24 0
2 0.24 0.1
2 0.26 0
2 0.26 0.1
2 0.28 0
2 0.28 0.1
2 0.3 0
2 0.3 0.1
2 0.32 0
2 0.32 0.1
2 0.34 0
2 0.34 0.1
2 0.36 0
2 0.36 0.1
2 0.38 0
2 0.38 0.1
2 0.4 0
2 0.4 0.1
2 0.42 0
2 0.42 0.1
2 0.44 0
2 0.44 0.1
2 0.46 0
2 0.46 0.1
2 0.48 0
2 0.48 0.1
2 0.5 0
2 0.5 0.1
2 0.52 0
2 0.52 0.1
2 0.54 0
2 0.54 0.1
2 0.56 0
2 0.56 0.1
2 0.58 0
2 0.58 0.1
2 0.6 0
2 0.6 0.1
2 0.62 0
2 0.62 0.1
2 0.64 0
2 0.64 0.1
2 0.66 0
2 0.66 0.1
2 0.68 0
2 0.68 0.1
2 0.7 0
2 0.7 0.1
2 0.72 0
2 0.72 0.1
2 0.74 0
2 0.74 0.1
2 0.76 0
2 0.76 0.1
2 0.78 0
2 0.78 0.1
2 0.8 0
2 0.8 0.1
2 0.82 0
2 0.82 0.1
2 0.84 0
2 0.84 0.1
2 0.86 0
2 0.86 0.1
2 0.88 0
2 0.88 0.1
2 0.9 0
2 0.9 0.1
2 0.92 0
2 0.92 0.1
2 0.94 0
2 0.94 0.1
2 0.96 0
2 0.96 0.1
2 0.98 0
2 0.98 0.1
2 1 0
2 1 0.1
2.02 1 0
2.02 1 0.1
2.04 1 0
2.04 1 0.1
2.06 1 0
2.06 1 0.1
2.08 1 0
2.08 1 0.1
2.1 1 0
2.1 1 0.1
2.12 1 0
2.12 1 0.1
2.14 1 0
2.14 1 0.1
2.16 1 0
2.16 1 0.1
2.18 1 0
2.18 1 0.1
2.2 1 0
2.2 1 0.1
2.22 1 0
2.22 1 0.1
2.24 1 0
2.24 1 0.1
2.26 1 0
2.26 1 0.1
2.28 1 0
2.28 1 0.1
2.3 1 0
2.3 1 0.1
2.32 1 0
2.32 1 0.1
2.34 1 0
2.34 1 0.1
2.36 1 0
2.36 1 0.1
2.38 1 0
2.38 1 0.1
2.4 1 0
2.4 1 0.1
2.42 1 0
2.42 1 0.1
2.44 1 0
2.44 1 0.1
2.46 1 0
2.46 1 0.1
2.48 1 0
2.48 1 0.1
2.5 1 0
2.5 1 0.1
2.5 0 0
2.5 0 0.1
2.5 0.02 0.1
2.5 0.02 0
2.5 0.04 0.1
2.5 0.04 0
2.5 0.06 0.1
2.5 0.06 0
2.5 0.08 0.1
2.5 0.08 0
2.5 0.1 0.1
2.5 0.1 0
2.5 0.12 0.1
2.5 0.12 0
2.5 0.14 0.1
2.5 0.14 0
2.5 0.16 0.1
2.5 0.16 0
2.5 0.18 0.1
2.5 0.18 0
2.5 0.2 0.1
2.5 0.2 0
2.5 0.22 0.1
2.5 0.22 0
2.5 0.24 0.1
2.5 0.24 0
2.5 0.26 0.1
2.5 0.26 0
2.5 0.28 0.1
2.5 0.28 0
2.5 0.3 0.1
2.5 0.3 0
2.5 0.32 0.1
2.5 0.32 0
2.5 0.34 0.1
2.5 0.34 0
2.5 0.36 0.1
2.5 0.36 0
2.5 0.38 0.1
2.5 0.38 0
2.5 0.4 0.1
2.5 0.4 0
2.5 0.42 0.1
2.5 0.42 0
2.5 0.44 0.1
2.5 0.44 0
2.5 0.46 0.1
2.5 0.46 0
2.5 0.48 0.1
2.5 0.48 0
2.5 0.5 0.1
2.5 0.5 0
2.5 0.52 0.1
2.5 0.52 0
2.5 0.54 0.1
2.5 0.54 0
2.5 0.56 0.1
2.5 0.56 0
2.5 0.58 0.1
2.5 0.58 0
2.5 0.6 0.1
2.5 0.6 0
2.5 0.62 0.1
2.5 0.62 0
2.5 0.64 0.1
2.5 0.64 0
2.5 0.66 0.1
2.5 0.66 0
2.5 0.68 0.1
2.5 0.68 0
2.5 0.7 0.1
2.5 0.7 0
2.5 0.72 0.1
2.5 0.72 0
2.5 0.74 0.1
2.5 0.74 0
2.5 0.76 0.1
2.5 0.76 0
2.5 0.78 0.1
2.5 0.78 0
2.5 0.8 0.1
2.5 0.8 0
2.5 0.82 0.1
2.5 0.82 0
2.5 0.84 0.1
2.5 0.84 0
2.5 0.86 0.1
2.5 0.86 0
2.5 0.88 0.1
2.5 0.88 0
2.5 0.9 0.1
2.5 0.9 0
2.5 0.92 0.1
2.5 0.92 0
2.5 0.94 0.1
2.5 0.94 0
2.5 0.96 0.1
2.5 0.96 0
2.5 0.98 0.1
2.5 0.98 0
2.52 0 0
2.52 0 0.1
2.54 0 0
2.54 0 0.1
2.56 0 0
2.56 0 0.1
2.58 0 0
2.58 0 0.1
2.6 0 0
2.6 0 0.1
2.62 0 0
2.62 0 0.1
2.64 0 0
2.64 0 0.1
2.66 0 0
2.66 0 0.1
2.68 0 0
2.68 0 0.1
2.7 0 0
2.7 0 0.1
2.72 0 0
2.72 0 0.1
2.74 0 0
2.74 0 0.1
2.76 0 0
2.76 0 0.1
2.78 0 0
2.78 0 0.1
2.8 0 0
2.8 0 0.1
2.82 0 0
2.82 0 0.1
2.84 0 0
2.84 0 0.1
2.86 0 0
2.86 0 0.1
2.88 0 0
2.88 0 0.1
2.9 0 0
2.9 0 0.1
2.92 0 0
2.92 0 0.1
2.94 0 0
2.94 0 0.1
2.96 0 0
2.96 0 0.1
2.98 0 0
2.98 0 0.1
3 0 0
3 0 0.1
3.02 0 0
3.02 0 0.1
3.04 0 0
3.04 0 0.1
3.06 0 0
3.06 0 0.1
3.08 0 0
3.08 0 0.1
3.1 0 0
3.1 0 0.1
3.12 0 0
3.12 0 0.1
3.14 0 0
3.14 0 0.1
3.16 0 0
3.16 0 0.1
3.18 0 0
3.18 0 0.1
3.2 0 0
3.2 0 0.1
3.22 0 0
3.22 0 0.1
3.24 0 0
3.24 0 0.1
3.26 0 0
3.26 0 0.1
3.28 0 0
3.28 0 0.1
3.3 0 0
3.3 0 0.1
3.32 0 0
3.32 0 0.1
3.34 0 0
3.34 0 0.1
3.36 0 0
3.36 0 0.1
3.38 0 0
3.38 0 0.1
3.4 0 0
3.4 0 0.1
3.42 0 0
3.42 0 0.1
3.44 0 0
3.44 0 0.1
3.46 0 0
3.46 0 0.1
3.48 0 0
3.48 0 0.1
3.5 0 0
3.5 0 0.1
3.52 0 0
3.52 0 0.1
3.54 0 0
3.54 0 0.1
3.56 0 0
3.56 0 0.1
3.58 0 0
3.58 0 0.1
3.6 0 0
3.6 0 0.1
3.62 0 0
3.62 0 0.1
3.64 0 0
3.64 0 0.1
3.66 0 0
3.66 0 0.1
3.68 0 0
3.68 0 0.1
3.7 0 0
3.7 0 0.1
3.72 0 0
3.72 0 0.1
3.74 0 0
3.74 0 0.1
3.76 0 0
3.76 0 0.1
3.78 0 0
3.78 0 0.1
3.8 0 0
3.8 0 0.1
3.82 0 0
3.82 0 0.1
3.84 0 0
3.84 0 0.1
3.86 0 0
3.86 0 0.1
3.88 0 0
3.88 0 0.1
3.9 0 0
3.9 0 0.1
3.92 0 0
3.92 0 0.1
3.94 0 0
3.94 0 0.1
3.96 0 0
3.96 0 0.1
3.98 0 0
3.98 0 0.1
4 0 0
4 0 0.1
4.02 0 0
4.02 0 0.1
4.04 0 0
4.04 0 0.1
4.06 0 0
4.06 0 0.1
4.08 0 0
4.08 0 0.1
4.1 0 0
4.1 0 0.1
4.12 0 0
4.12 0 0.1
4.14 0 0
4.14 0 0.1
4.16 0 0
4.16 0 0.1
4.18 0 0
4.18 0 0.1
4.2 0 0
4.2 0 0.1
4.22 0 0
4.22 0 0.1
4.24 0 0
4.24 0 0.1
4.26 0 0
4.26 0 0.1
4.28 0 0
4.28 0 0.1
4.3 0 0
4.3 0 0.1
4.32 0 0
4.32 0 0.1
4.34 0 0
4.34 0 0.1
4.36 0 0
4.36 0 0.1
4.38 0 0
4.38 0 0.1
4.4 0 0
4.4 0 0.1
4.42 0 0
4.42 0 0.1
4.44 0 0
4.44 0 0.1
4.46 0 0
4.46 0 0.1
4.48 0 0
4.48 0 0.1
4.5 0 0
4.5 0 0.1

POLYGONS 325 1625
4 0 1 2 3
4 1 4 5 2
4 4 6 7 5
4 6 8 9 7
4 8 10 11 9
4 10 12 13 11
4 12 14 15 13
4 14 16 17 15
4 16 18 19 17
4 18 20 21 19
4 20 22 23 21
4 22 24 25 23
4 24 26 27 25
4 26 28 29 27
4 28 30 31 29
4 30 32 33 31
4 32 34 35 33
4 34 36 37 35
4 36 38 39 37
4 38 40 41 39
4 40 42 43 41
4 42 44 45 43
4 44 46 47 45
4 46 48 49 47
4 48 50 51 49
4 50 52 53 51
4 52 54 55 53
4 54 56 57 55
4 56 58 59 57
4 58 60 61 59
4 60 62 63 61
4 62 64 65 63
4 64 66 67 65
4 66 68 69 67
4 68 70 71 69
4 70 72 73 71
4 72 74 75 73
4 74 76 77 75
4 76 78 79 77
4 78 80 81 79
4 80 82 83 81
4 82 84 85 83
4 84 86 87 85
4 86 88 89 87
4 88 90 91 89
4 90 92 93 91
4 92 94 95 93
4 94 96 97 95
4 96 98 99 97
4 98 100 101 99
4 100 102 103 101
4 102 104 105 103
4 104 106 107 105
4 106 108 109 107
4 108 110 111 109
4 110 112 113 111
4 112 114 115 113
4 114 116 117 115
4 116 118 119 117
4 118 120 121 119
4 120 122 123 121
4 122 124 125 123
4 124 126 127 125
4 126 128 129 127
4 128 130 131 129
4 130 132 133 131
4 132 134 135 133
4 134 136 137 135
4 136 138 139 137
4 138 140 141 139
4 140 142 143 141
4 142 144 145 143
4 144 146 147 145
4 146 148 149 147
4 148 150 151 149
4 150 152 153 151
4 152 154 155 153
4 154 156 157 155
4 156 158 159 157
4 158 160 161 159
4 160 162 163 161
4 162 164 165 163
4 164 166 167 165
4 166 168 169 167
4 168 170 171 169
4 170 172 173 171
4 172 174 175 173
4 174 176 177 175
4 176 178 179 177
4 178 180 181 179
4 180 182 183 181
4 182 184 185 183
4 184 186 187 185
4 186 188 189 187
4 188 190 191 189
4 190 192 193 191
4 192 194 195 193
4 194 196 197 195
4 196 198 199 197
4 198 200 201 199
4 200 202 203 201
4 202 204 205 203
4 204 206 207 205
4 206 208 209 207
4 208 210 211 209
4 210 212 213 211
4 212 214 215 213
4 214 216 217 215
4 216 218 219 217
4 218 220 221 219
4 220 222 223 221
4 222 224 225 223
4 224 226 227 225
4 226 228 229 227
4 228 230 231 229
4 230 232 233 231
4 232 234 235 233
4 234 236 237 235
4 236 238 239 237
4 238 240 241 239
4 240 242 243 241
4 242 244 245 243
4 244 246 247 245
4 246 248 249 247
4 248 250 251 249
4 250 252 253 251
4 252 254 255 253
4 254 256 257 255
4 256 258 259 257
4 258 260 261 259
4 260 262 263 261
4 262 264 265 263
4 264 266 267 265
4 266 268 269 267
4 268 270 271 269
4 270 272 273 271
4 272 274 275 273
4 274 276 277 275
4 276 278 279 277
4 278 280 281 279
4 280 282 283 281
4 282 284 285 283
4 284 286 287 285
4 286 288 289 287
4 288 290 291 289
4 290 292 293 291
4 292 294 295 293
4 294 296 297 295
4 296 298 299 297
4 298 300 301 299
4 300 302 303 301
4 302 304 305 303
4 304 306 307 305
4 306 308 309 307
4 308 310 311 309
4 310 312 313 311
4 312 314 315 313
4 314 316 317 315
4 316 318 319 317
4 318 320 321 319
4 320 322 323 321
4 322 324 325 323
4 324 326 327 325
4 326 328 329 327
4 328 330 331 329
4 330 332 333 331
4 332 334 335 333
4 334 336 337 335
4 336 338 339 337
4 338 340 341 339
4 340 342 343 341
4 342 344 345 343
4 344 346 347 345
4 346 348 349 347
4 348 350 351 349
4 352 353 354 355
4 355 354 356 357
4 357 356 358 359
4 359 358 360 361
4 361 360 362 363
4 363 362 364 365
4 365 364 366 367
4 367 366 368 369
4 369 368 370 371
4 371 370 372 373
4 373 372 374 375
4 375 374 376 377
4 377 376 378 379
4 379 378 380 381
4 381 380 382 383
4 383 382 384 385
4 385 384 386 387
4 387 386 388 389
4 389 388 390 391
4 391 390 392 393
4 393 392 394 395
4 395 394 396 397
4 397 396 398 399
4 399 398 400 401
4 401 400 402 403
4 403 402 404 405
4 405 404 406 407
4 407 406 408 409
4 409 408 410 411
4 411 410 412 413
4 413 412 414 415
4 415 414 416 417
4 417 416 418 419
4 419 418 420 421
4 421 420 422 423
4 423 422 424 425
4 425 424 426 427
4 427 426 428 429
4 429 428 430 431
4 431 430 432 433
4 433 432 434 435
4 435 434 436 437
4 437 436 438 439
4 439 438 440 441
4 441 440 442 443
4 443 442 444 445
4 445 444 446 447
4 447 446 448 449
4 449 448 450 451
4 451 450 351 350
4 352 452 453 353
4 452 454 455 453
4 454 456 457 455
4 456 458 459 457
4 458 460 461 459
4 460 462 463 461
4 462 464 465 463
4 464 466 467 465
4 466 468 469 467
4 468 470 471 469
4 470 472 473 471
4 472 474 475 473
4 474 476 477 475
4 476 478 479 477
4 478 480 481 479
4 480 482 483 481
4 482 484 485 483
4 484 486 487 485
4 486 488 489 487
4 488 490 491 489
4 490 492 493 491
4 492 494 495 493
4 494 496 497 495
4 496 498 499 497
4 498 500 501 499
4 500 502 503 501
4 502 504 505 503
4 504 506 507 505
4 506 508 509 507
4 508 510 511 509
4 510 512 513 511
4 512 514 515 513
4 514 516 517 515
4 516 518 519 517
4 518 520 521 519
4 520 522 523 521
4 522 524 525 523
4 524 526 527 525
4 526 528 529 527
4 528 530 531 529
4 530 532 533 531
4 532 534 535 533
4 534 536 537 535
4 536 538 539 537
4 538 540 541 539
4 540 542 543 541
4 542 544 545 543
4 544 546 547 545
4 546 548 549 547
4 548 550 551 549
4 550 552 553 551
4 552 554 555 553
4 554 556 557 555
4 556 558 559 557
4 558 560 561 559
4 560 562 563 561
4 562 564 565 563
4 564 566 567 565
4 566 568 569 567
4 568 570 571 569
4 570 572 573 571
4 572 574 575 573
4 574 576 577 575
4 576 578 579 577
4 578 580 581 579
4 580 582 583 581
4 582 584 585 583
4 584 586 587 585
4 586 588 589 587
4 588 590 591 589
4 590 592 593 591
4 592 594 595 593
4 594 596 597 595
4 596 598 599 597
4 598 600 601 599
4 600 602 603 601
4 602 604 605 603
4 604 606 607 605
4 606 608 609 607
4 608 610 611 609
4 610 612 613 611
4 612 614 615 613
4 614 616 617 615
4 616 618 619 617
4 618 620 621 619
4 620 622 623 621
4 622 624 625 623
4 624 626 627 625
4 626 628 629 627
4 628 630 631 629
4 630 632 633 631
4 632 634 635 633
4 634 636 637 635
4 636 638 639 637
4 638 640 641 639
4 640 642 643 641
4 642 644 645 643
4 644 646 647 645
4 646 648 649 647
4 648 650 651 649
POINT_DATA 652
FIELD attributes 1
U 3 652 float
2.46084 0.00606897 -0.0165287
1.23091 0.0030358 -0.00826435
1.23091 0.0030358 -0.00826435
2.46084 0.00606897 -0.0165287
0.000992906 3.01719e-06 0
0.000992906 3.01719e-06 0
0.000996112 2.61836e-06 0
0.000996112 2.61836e-06 0
0.000997712 7.43315e-07 0
0.000997712 7.43315e-07 0
0.000998356 -1.02422e-06 0
0.000998356 -1.02422e-06 0
0.000997635 -1.63816e-06 0
0.000997635 -1.63816e-06 0
0.000995636 -1.07882e-06 0
0.000995636 -1.07882e-06 0
0.000993216 -5.74057e-09 0
0.000993216 -5.74057e-09 0
0.000991437 8.99734e-07 0
0.000991437 8.99734e-07 0
0.000990756 1.27536e-06 0
0.000990756 1.27536e-06 0
0.000990513 1.22296e-06 0
0.000990513 1.22296e-06 0
0.00098942 1.10611e-06 0
0.00098942 1.10611e-06 0
0.000986704 1.08999e-06 0
0.000986704 1.08999e-06 0
0.000982796 9.48225e-07 0
0.000982796 9.48225e-07 0
0.000978882 4.4178e-07 0
0.000978882 4.4178e-07 0
0.00097578 -2.09815e-07 0
0.00097578 -2.09815e-07 0
0.000973301 -4.70214e-07 0
0.000973301 -4.70214e-07 0
0.00097064 -9.28958e-08 0
0.00097064 -9.28958e-08 0
0.000967296 6.0245e-07 0
0.000967296 6.0245e-07 0
0.000963533 1.11235e-06 0
0.000963533 1.11235e-06 0
0.00095998 1.35127e-06 0
0.00095998 1.35127e-06 0
0.000956897 1.77e-06 0
0.000956897 1.77e-06 0
0.000953881 2.78635e-06 0
0.000953881 2.78635e-06 0
0.000950266 4.15317e-06 0
0.000950266 4.15317e-06 0
0.000945796 5.02296e-06 0
0.000945796 5.02296e-06 0
0.000940878 4.73762e-06 0
0.000940878 4.73762e-06 0
0.000936153 3.59453e-06 0
0.000936153 3.59453e-06 0
0.000931813 2.7574e-06 0
0.000931813 2.7574e-06 0
0.000927354 3.26491e-06 0
0.000927354 3.26491e-06 0
0.000922003 5.04745e-06 0
0.000922003 5.04745e-06 0
0.000915477 6.89761e-06 0
0.000915477 6.89761e-06 0
0.000908326 7.41516e-06 0
0.000908326 7.41516e-06 0
0.000901517 6.14097e-06 0
0.000901517 6.14097e-06 0
0.000895646 3.97584e-06 0
0.000895646 3.97584e-06 0
0.000890436 2.55203e-06 0
0.000890436 2.55203e-06 0
0.000884817 3.04705e-06 0
0.000884817 3.04705e-06 0
0.000877572 5.25255e-06 0
0.000877572 5.25255e-06 0
0.000868178 7.56077e-06 0
0.000868178 7.56077e-06 0
0.000857292 8.06637e-06 0
0.000857292 8.06637e-06 0
0.000846404 6.11042e-06 0
0.000846404 6.11042e-06 0
0.000836875 3.00357e-06 0
0.000836875 3.00357e-06 0
0.000829059 1.08589e-06 0
0.000829059 1.08589e-06 0
0.000822146 1.79562e-06 0
0.000822146 1.79562e-06 0
0.000814825 4.52793e-06 0
0.000814825 4.52793e-06 0
0.00080626 7.29615e-06 0
0.00080626 7.29615e-06 0
0.000796515 8.50678e-06 0
0.000796515 8.50678e-06 0
0.000786169 8.10602e-06 0
0.000786169 8.10602e-06 0
0.000775644 7.16937e-06 0
0.000775644 7.16937e-06 0
0.000764927 6.75042e-06 0
0.000764927 6.75042e-06 0
0.000753696 7.2331e-06 0
0.000753696 7.2331e-06 0
0.000741543 8.41293e-06 0
0.000741543 8.41293e-06 0
0.000728171 9.74163e-06 0
0.000728171 9.74163e-06 0
0.000713633 1.05092e-05 0
0.000713633 1.05092e-05 0
0.000698466 1.02217e-05 0
0.000698466 1.02217e-05 0
0.000683394 9.04961e-06 0
0.000683394 9.04961e-06 0
0.000668766 7.72236e-06 0
0.000668766 7.72236e-06 0
0.000654317 6.81816e-06 0
0.000654317 6.81816e-06 0
0.000639581 6.38376e-06 0
0.000639581 6.38376e-06 0
0.000624344 6.47879e-06 0
0.000624344 6.47879e-06 0
0.000608453 7.71941e-06 0
0.000608453 7.71941e-06 0
0.000591268 1.05559e-05 0
0.000591268 1.05559e-05 0
0.000571877 1.3984e-05 0
0.000571877 1.3984e-05 0
0.000550109 1.60147e-05 0
0.000550109 1.60147e-05 0
0.000526813 1.617e-05 0
0.000526813 1.617e-05 0
0.000502502 1.66841e-05 0
0.000502502 1.66841e-05 0
0.00047597 1.99449e-05 0
0.00047597 1.99449e-05 0
0.000445208 2.50015e-05 0
0.000445208 2.50015e-05 0
0.000409949 2.79998e-05 0
0.000409949 2.79998e-05 0
0.000372663 2.63398e-05 0
0.000372663 2.63398e-05 0
0.000336764 2.11495e-05 0
0.000336764 2.11495e-05 0
0.00030432 1.55153e-05 0
0.00030432 1.55153e-05 0
0.000275567 1.16573e-05 0
0.000275567 1.16573e-05 0
0.000249754 9.97434e-06 0
0.000249754 9.97434e-06 0
0.000225894 9.69858e-06 0
0.000225894 9.69858e-06 0
0.000203127 9.92494e-06 0
0.000203127 9.92494e-06 0
0.00018087 1.01259e-05 0
0.00018087 1.01259e-05 0
0.000158829 1.01018e-05 0
0.000158829 1.01018e-05 0
0.000136941 9.82461e-06 0
0.000136941 9.82461e-06 0
0.000115296 9.32656e-06 0
0.000115296 9.32656e-06 0
9.40795e-05 8.63805e-06 0
9.40795e-05 8.63805e-06 0
7.35283e-05 7.77381e-06 0
7.35283e-05 7.77381e-06 0
5.38985e-05 6.74033e-06 0
5.38985e-05 6.74033e-06 0
3.54478e-05 5.54616e-06 0
3.54478e-05 5.54616e-06 0
1.84217e-05 4.21594e-06 0
1.84217e-05 4.21594e-06 0
3.04093e-06 2.79268e-06 0
3.04093e-06 2.79268e-06 0
-1.05098e-05 1.31977e-06 0
-1.05098e-05 1.31977e-06 0
-2.20826e-05 -1.61372e-07 0
-2.20826e-05 -1.61372e-07 0
-3.15683e-05 -1.61219e-06 0
-3.15683e-05 -1.61219e-06 0
-3.89092e-05 -3.00329e-06 0
-3.89092e-05 -3.00329e-06 0
-4.40964e-05 -4.31105e-06 0
-4.40964e-05 -4.31105e-06 0
-4.71592e-05 -5.52046e-06 0
-4.71592e-05 -5.52046e-06 0
-4.81587e-05 -6.62704e-06 0
-4.81587e-05 -6.62704e-06 0
-4.71625e-05 -7.61722e-06 0
-4.71625e-05 -7.61722e-06 0
-4.42954e-05 -8.46005e-06 0
-4.42954e-05 -8.46005e-06 0
-3.97466e-05 -9.13486e-06 0
-3.97466e-05 -9.13486e-06 0
-3.37239e-05 -9.64582e-06 0
-3.37239e-05 -9.64582e-06 0
-2.64758e-05 -1.00269e-05 0
-2.64758e-05 -1.00269e-05 0
-1.82278e-05 -1.03376e-05 0
-1.82278e-05 -1.03376e-05 0
-9.27276e-06 -1.04639e-05 0
-9.27276e-06 -1.04639e-05 0
-4.66933e-06 -1.0444e-05 0
-4.66933e-06 -1.0444e-05 0
5.17744e-07 -9.30405e-06 0
5.17744e-07 -9.30405e-06 0
9.15828e-06 2.36537e-06 0
9.15828e-06 2.36537e-06 0
1.41736e-05 2.77647e-05 0
1.41736e-05 2.77647e-05 0
1.6108e-05 5.91609e-05 0
1.6108e-05 5.91609e-05 0
1.6178e-05 9.19594e-05 0
1.6178e-05 9.19594e-05 0
1.52941e-05 0.000123549 0
1.52941e-05 0.000123549 0
1.40849e-05 0.000152904 0
1.40849e-05 0.000152904 0
1.29049e-05 0.000179786 0
1.29049e-05 0.000179786 0
1.19263e-05 0.000204521 0
1.19263e-05 0.000204521 0
1.12079e-05 0.000227613 0
1.12079e-05 0.000227613 0
1.0746e-05 0.00024957 0
1.0746e-05 0.00024957 0
1.05055e-05 0.00027085 0
1.05055e-05 0.00027085 0
1.04399e-05 0.00029185 0
1.04399e-05 0.00029185 0
1.05043e-05 0.000312877 0
1.05043e-05 0.000312877 0
1.06596e-05 0.000334142 0
1.06596e-05 0.000334142 0
1.08755e-05 0.000355786 0
1.08755e-05 0.000355786 0
1.11299e-05 0.000377903 0
1.11299e-05 0.000377903 0
1.14084e-05 0.000400553 0
1.14084e-05 0.000400553 0
1.17021e-05 0.000423772 0
1.17021e-05 0.000423772 0
1.20068e-05 0.000447584 0
1.20068e-05 0.000447584 0
1.2321e-05 0.000472009 0
1.2321e-05 0.000472009 0
1.26462e-05 0.000497067 0
1.26462e-05 0.000497067 0
1.29844e-05 0.000522781 0
1.29844e-05 0.000522781 0
1.33399e-05 0.000549184 0
1.33399e-05 0.000549184 0
1.37158e-05 0.00057631 0
1.37158e-05 0.00057631 0
1.41187e-05 0.000604212 0
1.41187e-05 0.000604212 0
1.4551e-05 0.00063294 0
1.4551e-05 0.00063294 0
1.50235e-05 0.000662571 0
1.50235e-05 0.000662571 0
1.55347e-05 0.000693173 0
1.55347e-05 0.000693173 0
1.6105e-05 0.000724861 0
1.6105e-05 0.000724861 0
1.67224e-05 0.000757713 0
1.67224e-05 0.000757713 0
1.74324e-05 0.000791909 0
1.74324e-05 0.000791909 0
1.81843e-05 0.000827521 0
1.81843e-05 0.000827521 0
1.91068e-05 0.00086485 0
1.91068e-05 0.00086485 0
2.0027e-05 0.000903925 0
2.0027e-05 0.000903925 0
2.12747e-05 0.000945273 0
2.12747e-05 0.000945273 0
2.24103e-05 0.00098879 0
2.24103e-05 0.00098879 0
2.42066e-05 0.00103547 0
2.42066e-05 0.00103547 0
2.55711e-05 0.00108487 0
2.55711e-05 0.00108487 0
2.83833e-05 0.00113891 0
2.83833e-05 0.00113891 0
2.99396e-05 0.00119641 0
2.99396e-05 0.00119641 0
3.48118e-05 0.00126122 0
3.48118e-05 0.00126122 0
3.63171e-05 0.00133061 0
3.63171e-05 0.00133061 0
4.58291e-05 0.00141247 0
4.58291e-05 0.00141247 0
4.71298e-05 0.00150192 0
4.71298e-05 0.00150192 0
6.88338e-05 0.00161437 0
6.88338e-05 0.00161437 0
7.23757e-05 0.00174618 0
7.23757e-05 0.00174618 0
0.000133815 0.00192499 0
0.000133815 0.00192499 0
0.000163335 0.00216529 0
0.000163335 0.00216529 0
0.000184791 0.00135293 0
0.000184791 0.00135293 0
-0.000246902 -2.85829e-05 0
-0.000246902 -2.85829e-05 0
-0.000142093 -0.000503211 0
-0.000142093 -0.000503211 0
0.000174369 -0.00020502 0
0.000174369 -0.00020502 0
-0.000312477 0.000263675 0
-0.000312477 0.000263675 0
-0.000935928 0.000415557 0
-0.000935928 0.000415557 0
-0.00164311 0.000374903 0
-0.00164311 0.000374903 0
-0.00215745 0.000280508 0
-0.00215745 0.000280508 0
-0.00254949 0.00019523 0
-0.00254949 0.00019523 0
-0.00280325 0.000123346 0
-0.00280325 0.000123346 0
-0.00296012 6.45575e-05 0
-0.00296012 6.45575e-05 0
-0.00302191 1.63162e-05 0
-0.00302191 1.63162e-05 0
-0.00300836 -2.39095e-05 0
-0.00300836 -2.39095e-05 0
-0.00292351 -5.94465e-05 0
-0.00292351 -5.94465e-05 0
-0.00277382 -9.29021e-05 0
-0.00277382 -9.29021e-05 0
-0.00255674 -0.000124682 0
-0.00255674 -0.000124682 0
-0.00227569 -0.000153379 0
-0.00227569 -0.000153379 0
-0.00193458 -0.000175802 0
-0.00193458 -0.000175802 0
-0.0015467 -0.000188056 0
-0.0015467 -0.000188056 0
-0.00113396 -0.000189096 0
-0.00113396 -0.000189096 0
-0.00072213 -0.00018427 0
-0.00072213 -0.00018427 0
-0.000332285 -0.000179278 0
-0.000332285 -0.000179278 0
-2.45519e-06 -0.000149747 0
-2.45519e-06 -0.000149747 0
0.000237802 -8.0295e-05 0
0.000237802 -8.0295e-05 0
0.000406943 -8.01685e-05 0
0.000406943 -8.01685e-05 0
0.000297903 -6.50407e-05 0
0.000297903 -6.50407e-05 0
-6.56775e-06 4.18353e-06 0
-6.56775e-06 4.18353e-06 0
-8.23457e-06 1.28394e-05 0
-8.23457e-06 1.28394e-05 0
-9.88189e-06 3.19361e-05 0
-9.88189e-06 3.19361e-05 0
-9.57239e-06 5.13434e-05 0
-9.57239e-06 5.13434e-05 0
-9.06235e-06 6.91759e-05 0
-9.06235e-06 6.91759e-05 0
-8.69431e-06 8.64472e-05 0
-8.69431e-06 8.64472e-05 0
-8.43023e-06 0.000103029 0
-8.43023e-06 0.000103029 0
-8.20083e-06 0.000119178 0
-8.20083e-06 0.000119178 0
-7.96209e-06 0.000134892 0
-7.96209e-06 0.000134892 0
-7.69342e-06 0.00015011 0
-7.69342e-06 0.00015011 0
-7.38711e-06 0.000164762 0
-7.38711e-06 0.000164762 0
-7.0408e-06 0.000178771 0
-7.0408e-06 0.000178771 0
-6.6542e-06 0.000192056 0
-6.6542e-06 0.000192056 0
-6.22748e-06 0.000204536 0
-6.22748e-06 0.000204536 0
-5.76088e-06 0.000216133 0
-5.76088e-06 0.000216133 0
-5.25509e-06 0.000226766 0
-5.25509e-06 0.000226766 0
-4.71198e-06 0.00023636 0
-4.71198e-06 0.00023636 0
-4.13414e-06 0.000244842 0
-4.13414e-06 0.000244842 0
-3.52454e-06 0.000252142 0
-3.52454e-06 0.000252142 0
-2.88684e-06 0.000258197 0
-2.88684e-06 0.000258197 0
-2.22399e-06 0.000262947 0
-2.22399e-06 0.000262947 0
-1.5397e-06 0.00026635 0
-1.5397e-06 0.00026635 0
-8.31779e-07 0.000268351 0
-8.31779e-07 0.000268351 0
-9.3622e-08 0.000268942 0
-9.3622e-08 0.000268942 0
6.71945e-07 0.000268035 0
6.71945e-07 0.000268035 0
1.45106e-06 0.000265685 0
1.45106e-06 0.000265685 0
2.23303e-06 0.000261771 0
2.23303e-06 0.000261771 0
2.98873e-06 0.000256501 0
2.98873e-06 0.000256501 0
3.73583e-06 0.000249643 0
3.73583e-06 0.000249643 0
4.47086e-06 0.000241633 0
4.47086e-06 0.000241633 0
5.21456e-06 0.000231991 0
5.21456e-06 0.000231991 0
5.91893e-06 0.000221428 0
5.91893e-06 0.000221428 0
6.63727e-06 0.00020927 0
6.63727e-06 0.00020927 0
7.262e-06 0.000196366 0
7.262e-06 0.000196366 0
7.95274e-06 0.000182047 0
7.95274e-06 0.000182047 0
8.48928e-06 0.000167 0
8.48928e-06 0.000167 0
8.87837e-06 0.000150956 0
8.87837e-06 0.000150956 0
9.65983e-06 0.000134353 0
9.65983e-06 0.000134353 0
9.08404e-06 0.000116323 0
9.08404e-06 0.000116323 0
1.03432e-05 9.92972e-05 0
1.03432e-05 9.92972e-05 0
1.13196e-05 8.03415e-05 0
1.13196e-05 8.03415e-05 0
8.46623e-06 5.66706e-05 0
8.46623e-06 5.66706e-05 0
9.87958e-06 4.77708e-05 0
9.87958e-06 4.77708e-05 0
1.62551e-05 1.72064e-05 0
1.62551e-05 1.72064e-05 0
8.09491e-06 8.98935e-07 0
8.09491e-06 8.98935e-07 0
1.21164e-06 -1.55926e-05 0
1.21164e-06 -1.55926e-05 0
6.45411e-06 -2.9871e-05 0
6.45411e-06 -2.9871e-05 0
-1.12712e-05 -4.00323e-05 0
-1.12712e-05 -4.00323e-05 0
-3.30164e-05 -1.39294e-05 0
-3.30164e-05 -1.39294e-05 0
4.01286e-05 1.63598e-05 0
4.01286e-05 1.63598e-05 0
-1.27579e-05 4.22918e-06 0
-1.27579e-05 4.22918e-06 0
-2.55894e-05 4.46469e-06 0
-2.55894e-05 4.46469e-06 0
-3.90345e-05 4.88643e-06 0
-3.90345e-05 4.88643e-06 0
-5.30219e-05 5.40658e-06 0
-5.30219e-05 5.40658e-06 0
-6.78109e-05 6.02439e-06 0
-6.78109e-05 6.02439e-06 0
-8.34549e-05 6.70153e-06 0
-8.34549e-05 6.70153e-06 0
-0.000100011 7.401e-06 0
-0.000100011 7.401e-06 0
-0.000117493 8.09458e-06 0
-0.000117493 8.09458e-06 0
-0.000135879 8.76214e-06 0
-0.000135879 8.76214e-06 0
-0.000155145 9.39743e-06 0
-0.000155145 9.39743e-06 0
-0.000175257 1.00038e-05 0
-0.000175257 1.00038e-05 0
-0.000196197 1.05891e-05 0
-0.000196197 1.05891e-05 0
-0.000217942 1.11583e-05 0
-0.000217942 1.11583e-05 0
-0.000240474 1.17106e-05 0
-0.000240474 1.17106e-05 0
-0.000263761 1.22387e-05 0
-0.000263761 1.22387e-05 0
-0.000287757 1.27293e-05 0
-0.000287757 1.27293e-05 0
-0.000312392 1.3165e-05 0
-0.000312392 1.3165e-05 0
-0.000337578 1.35272e-05 0
-0.000337578 1.35272e-05 0
-0.000363196 1.38038e-05 0
-0.000363196 1.38038e-05 0
-0.000389088 1.39835e-05 0
-0.000389088 1.39835e-05 0
-0.000415061 1.40479e-05 0
-0.000415061 1.40479e-05 0
-0.000440897 1.39755e-05 0
-0.000440897 1.39755e-05 0
-0.000466345 1.37452e-05 0
-0.000466345 1.37452e-05 0
-0.000491121 1.33379e-05 0
-0.000491121 1.33379e-05 0
-0.000514915 1.27375e-05 0
-0.000514915 1.27375e-05 0
-0.000537387 1.19324e-05 0
-0.000537387 1.19324e-05 0
-0.00055818 1.09158e-05 0
-0.00055818 1.09158e-05 0
-0.000576923 9.6864e-06 0
-0.000576923 9.6864e-06 0
-0.000593241 8.24962e-06 0
-0.000593241 8.24962e-06 0
-0.00060677 6.61929e-06 0
-0.00060677 6.61929e-06 0
-0.000617177 4.81874e-06 0
-0.000617177 4.81874e-06 0
-0.000624166 2.89484e-06 0
-0.000624166 2.89484e-06 0
-0.00062749 9.19826e-07 0
-0.00062749 9.19826e-07 0
-0.000627024 -1.05232e-06 0
-0.000627024 -1.05232e-06 0
-0.000622775 -2.98684e-06 0
-0.000622775 -2.98684e-06 0
-0.000614748 -4.87447e-06 0
-0.000614748 -4.87447e-06 0
-0.000602967 -6.71822e-06 0
-0.000602967 -6.71822e-06 0
-0.000587541 -8.49502e-06 0
-0.000587541 -8.49502e-06 0
-0.000568636 -1.01762e-05 0
-0.000568636 -1.01762e-05 0
-0.000546473 -1.17358e-05 0
-0.000546473 -1.17358e-05 0
-0.000521325 -1.31516e-05 0
-0.000521325 -1.31516e-05 0
-0.0004935 -1.44074e-05 0
-0.0004935 -1.44074e-05 0
-0.000463334 -1.54926e-05 0
-0.000463334 -1.54926e-05 0
-0.000431177 -1.64022e-05 0
-0.000431177 -1.64022e-05 0
-0.000397384 -1.71364e-05 0
-0.000397384 -1.71364e-05 0
-0.000362303 -1.76998e-05 0
-0.000362303 -1.76998e-05 0
-0.00032627 -1.81007e-05 0
-0.00032627 -1.81007e-05 0
-0.000289601 -1.83506e-05 0
-0.000289601 -1.83506e-05 0
-0.000252594 -1.84622e-05 0
-0.000252594 -1.84622e-05 0
-0.000215507 -1.84493e-05 0
-0.000215507 -1.84493e-05 0
-0.00017856 -1.83283e-05 0
-0.00017856 -1.83283e-05 0
-0.000141945 -1.81133e-05 0
-0.000141945 -1.81133e-05 0
-0.000105835 -1.78189e-05 0
-0.000105835 -1.78189e-05 0
-7.0372e-05 -1.74608e-05 0
-7.0372e-05 -1.74608e-05 0
-3.56634e-05 -1.70513e-05 0
-3.56634e-05 -1.70513e-05 0
-1.84154e-06 -1.66049e-05 0
-1.84154e-06 -1.66049e-05 0
3.09984e-05 -1.6131e-05 0
3.09984e-05 -1.6131e-05 0
6.28659e-05 -1.56381e-05 0
6.28659e-05 -1.56381e-05 0
9.3753e-05 -1.51351e-05 0
9.3753e-05 -1.51351e-05 0
0.000123629 -1.4629e-05 0
0.000123629 -1.4629e-05 0
0.000152493 -1.41255e-05 0
0.000152493 -1.41255e-05 0
0.000180357 -1.36292e-05 0
0.000180357 -1.36292e-05 0
0.000207237 -1.31435e-05 0
0.000207237 -1.31435e-05 0
0.000233159 -1.26712e-05 0
0.000233159 -1.26712e-05 0
0.000258151 -1.22142e-05 0
0.000258151 -1.22142e-05 0
0.000282246 -1.17738e-05 0
0.000282246 -1.17738e-05 0
0.000305477 -1.13508e-05 0
0.000305477 -1.13508e-05 0
0.000327879 -1.09455e-05 0
0.000327879 -1.09455e-05 0
0.000349489 -1.05579e-05 0
0.000349489 -1.05579e-05 0
0.000370341 -1.0188e-05 0
0.000370341 -1.0188e-05 0
0.000390471 -9.83535e-06 0
0.000390471 -9.83535e-06 0
0.000409912 -9.49953e-06 0
0.000409912 -9.49953e-06 0
0.000428697 -9.18002e-06 0
0.000428697 -9.18002e-06 0
0.000446859 -8.87629e-06 0
0.000446859 -8.87629e-06 0
0.000464429 -8.58776e-06 0
0.000464429 -8.58776e-06 0
0.000481436 -8.31389e-06 0
0.000481436 -8.31389e-06 0
0.000497909 -8.0541e-06 0
0.000497909 -8.0541e-06 0
0.000513875 -7.80786e-06 0
0.000513875 -7.80786e-06 0
0.000529362 -7.57466e-06 0
0.000529362 -7.57466e-06 0
0.000544394 -7.35404e-06 0
0.000544394 -7.35404e-06 0
0.000558997 -7.14555e-06 0
0.000558997 -7.14555e-06 0
0.000573193 -6.94882e-06 0
0.000573193 -6.94882e-06 0
0.00058701 -6.76342e-06 0
0.00058701 -6.76342e-06 0
0.000600461 -6.58902e-06 0
0.000600461 -6.58902e-06 0
0.000613581 -6.42517e-06 0
0.000613581 -6.42517e-06 0
0.000626371 -6.27162e-06 0
0.000626371 -6.27162e-06 0
0.00063888 -6.12793e-06 0
0.00063888 -6.12793e-06 0
0.000651085 -5.99397e-06 0
0.000651085 -5.99397e-06 0
0.000663071 -5.86924e-06 0
0.000663071 -5.86924e-06 0
0.000674754 -5.75387e-06 0
0.000674754 -5.75387e-06 0
0.000686307 -5.64713e-06 0
0.000686307 -5.64713e-06 0
0.000697514 -5.54962e-06 0
0.000697514 -5.54962e-06 0
0.000708747 -5.46006e-06 0
0.000708747 -5.46006e-06 0
0.000719484 -5.38001e-06 0
0.000719484 -5.38001e-06 0
0.000730557 -5.30697e-06 0
0.000730557 -5.30697e-06 0
0.000740755 -5.24436e-06 0
0.000740755 -5.24436e-06 0
0.000751931 -5.18705e-06 0
0.000751931 -5.18705e-06 0
0.000761354 -5.14236e-06 0
0.000761354 -5.14236e-06 0
0.978826 -0.00634212 0
0.978826 -0.00634212 0
1.95689 -0.0126791 0
1.95689 -0.0126791 0
