/*--------------------------------*- C++ -*----------------------------------*\
| =========                 |                                                 |
| \\      /  F ield         | OpenFOAM: The Open Source CFD Toolbox           |
|  \\    /   O peration     | Version:  4.1                                   |
|   \\  /    A nd           | Web:      www.OpenFOAM.org                      |
|    \\/     M anipulation  |                                                 |
\*---------------------------------------------------------------------------*/
FoamFile
{
    version     2.0;
    format      ascii;
    class       surfaceScalarField;
    location    "98";
    object      phi;
}
// * * * * * * * * * * * * * * * * * * * * * * * * * * * * * * * * * * * * * //

dimensions      [0 3 -1 0 0 0 0];

internalField   nonuniform List<scalar> 
87025
(
1.89905e-05
1.00953e-06
1.72867e-05
1.70373e-06
1.54781e-05
1.80861e-06
1.3732e-05
1.74616e-06
1.21162e-05
1.61576e-06
1.06817e-05
1.43449e-06
9.44863e-06
1.23309e-06
8.41132e-06
1.03731e-06
7.55174e-06
8.59586e-07
6.84645e-06
7.05286e-07
6.27063e-06
5.75822e-07
5.80039e-06
4.70241e-07
5.41427e-06
3.8612e-07
5.09391e-06
3.20352e-07
4.8242e-06
2.6971e-07
4.59304e-06
2.31162e-07
4.39102e-06
2.0202e-07
4.211e-06
1.8002e-07
4.04768e-06
1.63319e-07
3.89722e-06
1.50461e-07
3.7569e-06
1.40325e-07
3.62483e-06
1.3207e-07
3.49974e-06
1.25082e-07
3.38082e-06
1.18922e-07
3.26754e-06
1.13282e-07
3.15959e-06
1.07954e-07
3.05678e-06
1.02809e-07
2.95899e-06
9.7787e-08
2.8661e-06
9.28884e-08
2.77793e-06
8.81671e-08
2.69422e-06
8.37178e-08
2.61456e-06
7.96562e-08
2.53847e-06
7.60928e-08
2.46536e-06
7.31068e-08
2.39464e-06
7.07259e-08
2.32572e-06
6.89183e-08
2.25812e-06
6.75969e-08
2.19148e-06
6.66354e-08
2.12559e-06
6.58897e-08
2.06037e-06
6.52209e-08
1.99586e-06
6.45147e-08
1.93217e-06
6.36943e-08
1.86944e-06
6.27263e-08
1.80782e-06
6.16191e-08
1.74741e-06
6.04144e-08
1.68823e-06
5.91762e-08
1.63025e-06
5.79777e-08
1.57336e-06
5.68903e-08
1.51739e-06
5.59741e-08
1.46212e-06
5.52707e-08
1.40732e-06
5.47979e-08
1.35277e-06
5.45476e-08
1.29828e-06
5.44884e-08
1.24371e-06
5.45717e-08
1.18897e-06
5.47403e-08
1.13403e-06
5.49379e-08
1.07892e-06
5.51159e-08
1.02368e-06
5.52373e-08
9.68402e-07
5.5277e-08
9.13183e-07
5.52197e-08
8.58126e-07
5.50567e-08
8.03343e-07
5.47833e-08
7.48946e-07
5.43965e-08
6.95052e-07
5.3894e-08
6.41779e-07
5.32735e-08
5.89246e-07
5.25327e-08
5.37577e-07
5.1669e-08
4.86897e-07
5.06801e-08
4.37334e-07
4.95634e-08
3.89017e-07
4.83168e-08
3.42079e-07
4.69381e-08
2.96653e-07
4.54258e-08
2.52874e-07
4.37787e-08
2.10878e-07
4.19964e-08
1.70799e-07
4.0079e-08
1.32771e-07
3.80278e-08
9.69261e-08
3.58448e-08
6.3393e-08
3.35331e-08
3.22964e-08
3.10966e-08
3.75748e-09
2.85389e-08
-2.21105e-08
2.58679e-08
-4.52677e-08
2.31573e-08
-6.55853e-08
2.03175e-08
-8.3006e-08
1.74207e-08
-9.74738e-08
1.44678e-08
-1.08963e-07
1.14888e-08
-1.17481e-07
8.51805e-09
-1.23058e-07
5.57754e-09
-1.25772e-07
2.71384e-09
-1.25847e-07
7.4871e-11
-1.23237e-07
-2.60973e-09
-1.18267e-07
-4.96996e-09
-1.11352e-07
-6.91565e-09
-1.03046e-07
-8.30583e-09
-9.40571e-08
-8.98875e-09
-8.49173e-08
-9.13973e-09
-7.47721e-08
-1.01452e-08
-5.93647e-08
-1.54074e-08
-3.19421e-08
-2.74226e-08
-3.19421e-08
2.06193e-05
3.90258e-07
2.12418e-05
1.08117e-06
2.15547e-05
1.49579e-06
2.15641e-05
1.73672e-06
2.13116e-05
1.86828e-06
2.08494e-05
1.89669e-06
2.02409e-05
1.84157e-06
1.95437e-05
1.73454e-06
1.88023e-05
1.60096e-06
1.805e-05
1.4576e-06
1.73102e-05
1.31563e-06
1.65981e-05
1.18236e-06
1.59223e-05
1.06186e-06
1.5287e-05
9.55647e-07
1.46932e-05
8.63579e-07
1.41397e-05
7.84594e-07
1.36246e-05
7.17129e-07
1.31451e-05
6.59501e-07
1.26984e-05
6.10077e-07
1.22815e-05
5.67355e-07
1.18918e-05
5.30027e-07
1.15269e-05
4.96995e-07
1.11846e-05
4.67361e-07
1.08631e-05
4.40412e-07
1.05608e-05
4.15598e-07
1.02762e-05
3.92521e-07
1.00081e-05
3.70917e-07
9.75522e-06
3.50659e-07
9.51636e-06
3.31744e-07
9.29025e-06
3.14283e-07
9.0755e-06
2.98464e-07
8.87065e-06
2.8451e-07
8.67412e-06
2.72616e-07
8.48435e-06
2.62883e-07
8.2998e-06
2.55273e-07
8.11914e-06
2.49583e-07
7.94128e-06
2.45453e-07
7.76551e-06
2.42406e-07
7.59148e-06
2.39917e-07
7.41922e-06
2.37485e-07
7.24902e-06
2.34715e-07
7.08134e-06
2.31369e-07
6.91668e-06
2.27393e-07
6.75539e-06
2.22905e-07
6.59765e-06
2.18156e-07
6.44336e-06
2.13464e-07
6.29218e-06
2.09154e-07
6.14358e-06
2.055e-07
5.99686e-06
2.0269e-07
5.85132e-06
2.00808e-07
5.70628e-06
1.99836e-07
5.56116e-06
1.99671e-07
5.4155e-06
2.0015e-07
5.26899e-06
2.01079e-07
5.12147e-06
2.02267e-07
4.97286e-06
2.03542e-07
4.82321e-06
2.04771e-07
4.67259e-06
2.05858e-07
4.52112e-06
2.06741e-07
4.36896e-06
2.07384e-07
4.21625e-06
2.07764e-07
4.06317e-06
2.07868e-07
3.90988e-06
2.07685e-07
3.75657e-06
2.07203e-07
3.60343e-06
2.06412e-07
3.45066e-06
2.05299e-07
3.29848e-06
2.03853e-07
3.1471e-06
2.02062e-07
2.99675e-06
1.99915e-07
2.84766e-06
1.97401e-07
2.70009e-06
1.9451e-07
2.55428e-06
1.91234e-07
2.41049e-06
1.87567e-07
2.26899e-06
1.83504e-07
2.13002e-06
1.79043e-07
1.99386e-06
1.74187e-07
1.86077e-06
1.68941e-07
1.73099e-06
1.63312e-07
1.60477e-06
1.57315e-07
1.48234e-06
1.50969e-07
1.3639e-06
1.44302e-07
1.2497e-06
1.37357e-07
1.13987e-06
1.30151e-07
1.03455e-06
1.22738e-07
9.33851e-07
1.1517e-07
8.37826e-07
1.07514e-07
7.46495e-07
9.98489e-08
6.59813e-07
9.22595e-08
5.77676e-07
8.48509e-08
5e-07
7.77516e-08
4.26344e-07
7.10454e-08
3.56388e-07
6.49861e-08
2.89642e-07
5.98308e-08
2.2544e-07
5.58961e-08
1.63057e-07
5.33941e-08
1.02314e-07
5.16029e-08
4.55675e-08
4.66017e-08
1.45182e-09
2.87083e-08
-1.47008e-08
-1.12701e-08
-4.66429e-08
2.01347e-05
2.55522e-07
2.0511e-05
7.04948e-07
2.09616e-05
1.0451e-06
2.14114e-05
1.28696e-06
2.18126e-05
1.4671e-06
2.21181e-05
1.59114e-06
2.23033e-05
1.65642e-06
2.23664e-05
1.67146e-06
2.23178e-05
1.6495e-06
2.21734e-05
1.60203e-06
2.19507e-05
1.53832e-06
2.16671e-05
1.46599e-06
2.13381e-05
1.39089e-06
2.09767e-05
1.31696e-06
2.05937e-05
1.24659e-06
2.01974e-05
1.18093e-06
1.97942e-05
1.12036e-06
1.93889e-05
1.06474e-06
1.89853e-05
1.01367e-06
1.85861e-05
9.66564e-07
1.81933e-05
9.22821e-07
1.78085e-05
8.81868e-07
1.74326e-05
8.43201e-07
1.70666e-05
8.06413e-07
1.6711e-05
7.71202e-07
1.63662e-05
7.37381e-07
1.60322e-05
7.04888e-07
1.57091e-05
6.73784e-07
1.53966e-05
6.44255e-07
1.50942e-05
6.16596e-07
1.48015e-05
5.9118e-07
1.45176e-05
5.68408e-07
1.42416e-05
5.48645e-07
1.39723e-05
5.32146e-07
1.37086e-05
5.18997e-07
1.34491e-05
5.09058e-07
1.31926e-05
5.01949e-07
1.2938e-05
4.97065e-07
1.26843e-05
4.93625e-07
1.2431e-05
4.90753e-07
1.21781e-05
4.87586e-07
1.19261e-05
4.83384e-07
1.16759e-05
4.77644e-07
1.14286e-05
4.70178e-07
1.11856e-05
4.61156e-07
1.0948e-05
4.51084e-07
1.07164e-05
4.40721e-07
1.0491e-05
4.30942e-07
1.02711e-05
4.22561e-07
1.00557e-05
4.16179e-07
9.84347e-06
4.12084e-07
9.63292e-06
4.10227e-07
9.42278e-06
4.10287e-07
9.21208e-06
4.1178e-07
9.00016e-06
4.14189e-07
8.78665e-06
4.17054e-07
8.57139e-06
4.2003e-07
8.35435e-06
4.22892e-07
8.13558e-06
4.25508e-07
7.91516e-06
4.27808e-07
7.69317e-06
4.29755e-07
7.46972e-06
4.31321e-07
7.24492e-06
4.32484e-07
7.0189e-06
4.33217e-07
6.79182e-06
4.33493e-07
6.56384e-06
4.33284e-07
6.33513e-06
4.32563e-07
6.10589e-06
4.31302e-07
5.87633e-06
4.29473e-07
5.64668e-06
4.2705e-07
5.41718e-06
4.2401e-07
5.18808e-06
4.2033e-07
4.95966e-06
4.15993e-07
4.73218e-06
4.10984e-07
4.50593e-06
4.05293e-07
4.2812e-06
3.98916e-07
4.05828e-06
3.91855e-07
3.83748e-06
3.8412e-07
3.61906e-06
3.75729e-07
3.40332e-06
3.66709e-07
3.19053e-06
3.571e-07
2.98093e-06
3.46953e-07
2.77476e-06
3.36324e-07
2.57221e-06
3.2529e-07
2.37344e-06
3.13938e-07
2.17857e-06
3.02376e-07
1.9877e-06
2.90728e-07
1.80082e-06
2.79135e-07
1.61791e-06
2.67761e-07
1.43887e-06
2.56794e-07
1.26347e-06
2.46448e-07
1.09144e-06
2.37009e-07
9.22456e-07
2.28819e-07
7.56091e-07
2.22261e-07
5.91987e-07
2.17498e-07
4.30381e-07
2.13209e-07
2.74083e-07
2.02899e-07
1.33426e-07
1.69366e-07
3.24585e-08
8.96971e-08
-1.41843e-08
2.00745e-05
1.81006e-07
2.02523e-05
5.27177e-07
2.04854e-05
8.12021e-07
2.07471e-05
1.02526e-06
2.10303e-05
1.18387e-06
2.13208e-05
1.30063e-06
2.15979e-05
1.37932e-06
2.18443e-05
1.42499e-06
2.20487e-05
1.44515e-06
2.22042e-05
1.44653e-06
2.23083e-05
1.43424e-06
2.23618e-05
1.41247e-06
2.23679e-05
1.38475e-06
2.23311e-05
1.3538e-06
2.22562e-05
1.32151e-06
2.2148e-05
1.28908e-06
2.20112e-05
1.25719e-06
2.18498e-05
1.22617e-06
2.16674e-05
1.19605e-06
2.14672e-05
1.16671e-06
2.12521e-05
1.13797e-06
2.10244e-05
1.10959e-06
2.07862e-05
1.08137e-06
2.05394e-05
1.05317e-06
2.02857e-05
1.0249e-06
2.00265e-05
9.96601e-07
1.9763e-05
9.68387e-07
1.94963e-05
9.40504e-07
1.92273e-05
9.13304e-07
1.89566e-05
8.87242e-07
1.8685e-05
8.6284e-07
1.84127e-05
8.40644e-07
1.81402e-05
8.21172e-07
1.78675e-05
8.04839e-07
1.75946e-05
7.91907e-07
1.73212e-05
7.82427e-07
1.70469e-05
7.76217e-07
1.67712e-05
7.72853e-07
1.64931e-05
7.71698e-07
1.62119e-05
7.71938e-07
1.59269e-05
7.72633e-07
1.56375e-05
7.72784e-07
1.53437e-05
7.7139e-07
1.50463e-05
7.67553e-07
1.47469e-05
7.60611e-07
1.44476e-05
7.5032e-07
1.41514e-05
7.37009e-07
1.38607e-05
7.21638e-07
1.35775e-05
7.05688e-07
1.33029e-05
6.90856e-07
1.30363e-05
6.78665e-07
1.27764e-05
6.70106e-07
1.25212e-05
6.65463e-07
1.22686e-05
6.64362e-07
1.20168e-05
6.65996e-07
1.17645e-05
6.6942e-07
1.15107e-05
6.73792e-07
1.12551e-05
6.78504e-07
1.09974e-05
6.83186e-07
1.07376e-05
6.87654e-07
1.04755e-05
6.9182e-07
1.02112e-05
6.95641e-07
9.94459e-06
6.99074e-07
9.67573e-06
7.02075e-07
9.40463e-06
7.04596e-07
9.13133e-06
7.06584e-07
8.8559e-06
7.07989e-07
8.57844e-06
7.08761e-07
8.29906e-06
7.08851e-07
8.0179e-06
7.08214e-07
7.7351e-06
7.06805e-07
7.45085e-06
7.04583e-07
7.16533e-06
7.01512e-07
6.87876e-06
6.9756e-07
6.59135e-06
6.92701e-07
6.30335e-06
6.86917e-07
6.015e-06
6.802e-07
5.72658e-06
6.72549e-07
5.43833e-06
6.63977e-07
5.15053e-06
6.5451e-07
4.86344e-06
6.44187e-07
4.57733e-06
6.33063e-07
4.29244e-06
6.21209e-07
4.00902e-06
6.08717e-07
3.72726e-06
5.95696e-07
3.44735e-06
5.8228e-07
3.16946e-06
5.68625e-07
2.89368e-06
5.54912e-07
2.62009e-06
5.41347e-07
2.34872e-06
5.28168e-07
2.07952e-06
5.15645e-07
1.81243e-06
5.04098e-07
1.54736e-06
4.93895e-07
1.2842e-06
4.85414e-07
1.02297e-06
4.78727e-07
7.64148e-07
4.72035e-07
5.10502e-07
4.56545e-07
2.73076e-07
4.06792e-07
8.30043e-08
2.79769e-07
6.88199e-08
2.00411e-05
1.39893e-07
2.01516e-05
4.16676e-07
2.03047e-05
6.58976e-07
2.04771e-05
8.52808e-07
2.0659e-05
1.00202e-06
2.08449e-05
1.11473e-06
2.10285e-05
1.19569e-06
2.12043e-05
1.24923e-06
2.13682e-05
1.28117e-06
2.15175e-05
1.29732e-06
2.16494e-05
1.30229e-06
2.17623e-05
1.2996e-06
2.1855e-05
1.29203e-06
2.19272e-05
1.28164e-06
2.19788e-05
1.26988e-06
2.20102e-05
1.25762e-06
2.20221e-05
1.24535e-06
2.2015e-05
1.23327e-06
2.19897e-05
1.22137e-06
2.19468e-05
1.20953e-06
2.18873e-05
1.19754e-06
2.18116e-05
1.18521e-06
2.17207e-05
1.17234e-06
2.1615e-05
1.15879e-06
2.14955e-05
1.1445e-06
2.13626e-05
1.12948e-06
2.12171e-05
1.11387e-06
2.10597e-05
1.09788e-06
2.08912e-05
1.08187e-06
2.07121e-05
1.06626e-06
2.05234e-05
1.05158e-06
2.03257e-05
1.03837e-06
2.01197e-05
1.02714e-06
1.99061e-05
1.01839e-06
1.96856e-05
1.01245e-06
1.94585e-05
1.00952e-06
1.92251e-05
1.00962e-06
1.89854e-05
1.01258e-06
1.8739e-05
1.01804e-06
1.84855e-05
1.02551e-06
1.82238e-05
1.03435e-06
1.79528e-05
1.04377e-06
1.76714e-05
1.05279e-06
1.73788e-05
1.06016e-06
1.7075e-05
1.0644e-06
1.67613e-05
1.06404e-06
1.64403e-05
1.05794e-06
1.61162e-05
1.0458e-06
1.57933e-05
1.02851e-06
1.54761e-05
1.00809e-06
1.51675e-05
9.87315e-07
1.48686e-05
9.68976e-07
1.45789e-05
9.55142e-07
1.42965e-05
9.46739e-07
1.4019e-05
9.43538e-07
1.37439e-05
9.44507e-07
1.34694e-05
9.48313e-07
1.31942e-05
9.53746e-07
1.29174e-05
9.59934e-07
1.26387e-05
9.66365e-07
1.23577e-05
9.72785e-07
1.20743e-05
9.79074e-07
1.17882e-05
9.85158e-07
1.14993e-05
9.90966e-07
1.12075e-05
9.96421e-07
1.09126e-05
1.00144e-06
1.06147e-05
1.00595e-06
1.03136e-05
1.00986e-06
1.00093e-05
1.01311e-06
9.70191e-06
1.01563e-06
9.39138e-06
1.01734e-06
9.07777e-06
1.01819e-06
8.76117e-06
1.01811e-06
8.44168e-06
1.01706e-06
8.1194e-06
1.01498e-06
7.79448e-06
1.01184e-06
7.46706e-06
1.00761e-06
7.13733e-06
1.00228e-06
6.80548e-06
9.95836e-07
6.47169e-06
9.88295e-07
6.13619e-06
9.79685e-07
5.7992e-06
9.70054e-07
5.46094e-06
9.59467e-07
5.12164e-06
9.48015e-07
4.78153e-06
9.35812e-07
4.44081e-06
9.22997e-07
4.0997e-06
9.09739e-07
3.75838e-06
8.96232e-07
3.41702e-06
8.82703e-07
3.07578e-06
8.69409e-07
2.73479e-06
8.56639e-07
2.39417e-06
8.44717e-07
2.05406e-06
8.33999e-07
1.71466e-06
8.24821e-07
1.37623e-06
8.17159e-07
1.03944e-06
8.08824e-07
7.07095e-07
7.88886e-07
3.90869e-07
7.23018e-07
1.27506e-07
5.43132e-07
1.96326e-07
2.00255e-05
1.14345e-07
2.01005e-05
3.41677e-07
2.02111e-05
5.48413e-07
2.03407e-05
7.23178e-07
2.04781e-05
8.64691e-07
2.06162e-05
9.76597e-07
2.07497e-05
1.06216e-06
2.08747e-05
1.1243e-06
2.0989e-05
1.16687e-06
2.1092e-05
1.19426e-06
2.11839e-05
1.21041e-06
2.12649e-05
1.21857e-06
2.13356e-05
1.22133e-06
2.13965e-05
1.22076e-06
2.1448e-05
1.21836e-06
2.14905e-05
1.21515e-06
2.15241e-05
1.21177e-06
2.15488e-05
1.20853e-06
2.15646e-05
1.20558e-06
2.15713e-05
1.20288e-06
2.15685e-05
1.20032e-06
2.15559e-05
1.19776e-06
2.15333e-05
1.19502e-06
2.15001e-05
1.19197e-06
2.14561e-05
1.18852e-06
2.14009e-05
1.18466e-06
2.13343e-05
1.18043e-06
2.12562e-05
1.17599e-06
2.11665e-05
1.17158e-06
2.10652e-05
1.16752e-06
2.09526e-05
1.1642e-06
2.08289e-05
1.16205e-06
2.06946e-05
1.1615e-06
2.055e-05
1.16297e-06
2.03957e-05
1.16678e-06
2.0232e-05
1.17318e-06
2.00594e-05
1.18227e-06
1.98779e-05
1.19406e-06
1.96875e-05
1.20844e-06
1.94878e-05
1.22524e-06
1.92779e-05
1.24425e-06
1.90565e-05
1.26517e-06
1.88218e-05
1.28747e-06
1.85718e-05
1.31012e-06
1.83048e-05
1.33143e-06
1.80199e-05
1.34897e-06
1.77178e-05
1.36e-06
1.74014e-05
1.36215e-06
1.70756e-05
1.35438e-06
1.67461e-05
1.33759e-06
1.64188e-05
1.31462e-06
1.60982e-05
1.28958e-06
1.57867e-05
1.26664e-06
1.54845e-05
1.24893e-06
1.51901e-05
1.23789e-06
1.49013e-05
1.23335e-06
1.46156e-05
1.23403e-06
1.4331e-05
1.23833e-06
1.40461e-05
1.2448e-06
1.376e-05
1.25244e-06
1.34722e-05
1.26067e-06
1.3182e-05
1.26919e-06
1.28893e-05
1.27786e-06
1.25937e-05
1.28655e-06
1.2295e-05
1.29516e-06
1.19929e-05
1.30355e-06
1.16872e-05
1.31163e-06
1.13778e-05
1.31928e-06
1.10645e-05
1.3264e-06
1.07472e-05
1.3329e-06
1.04259e-05
1.33869e-06
1.01004e-05
1.34367e-06
9.77074e-06
1.34778e-06
9.43687e-06
1.35093e-06
9.09879e-06
1.35305e-06
8.75654e-06
1.35409e-06
8.41015e-06
1.354e-06
8.05969e-06
1.35274e-06
7.70525e-06
1.35028e-06
7.34694e-06
1.34661e-06
6.98488e-06
1.34174e-06
6.61923e-06
1.33571e-06
6.25013e-06
1.32856e-06
5.87779e-06
1.32036e-06
5.50239e-06
1.31121e-06
5.12413e-06
1.30125e-06
4.74324e-06
1.29063e-06
4.35994e-06
1.27954e-06
3.97445e-06
1.26819e-06
3.58702e-06
1.25684e-06
3.1979e-06
1.24576e-06
2.80736e-06
1.23526e-06
2.41571e-06
1.22565e-06
2.02332e-06
1.21721e-06
1.63064e-06
1.20983e-06
1.23851e-06
1.20096e-06
8.49862e-07
1.17753e-06
4.77032e-07
1.09585e-06
1.60737e-07
8.59427e-07
3.57063e-07
2.00179e-05
9.64775e-08
2.0071e-05
2.88568e-07
2.01519e-05
4.67514e-07
2.02502e-05
6.24874e-07
2.03571e-05
7.57736e-07
2.04666e-05
8.67178e-07
2.05735e-05
9.55183e-07
2.06741e-05
1.02376e-06
2.07655e-05
1.07546e-06
2.08464e-05
1.1133e-06
2.09166e-05
1.14027e-06
2.09762e-05
1.15899e-06
2.10258e-05
1.17166e-06
2.10665e-05
1.18012e-06
2.1099e-05
1.18581e-06
2.11244e-05
1.18981e-06
2.11432e-05
1.19291e-06
2.11562e-05
1.19559e-06
2.11636e-05
1.19817e-06
2.11656e-05
1.20082e-06
2.11624e-05
1.2036e-06
2.11536e-05
1.2065e-06
2.11391e-05
1.20948e-06
2.11186e-05
1.21251e-06
2.10915e-05
1.21557e-06
2.10575e-05
1.21868e-06
2.10161e-05
1.22189e-06
2.09667e-05
1.22533e-06
2.09091e-05
1.22919e-06
2.08429e-05
1.23371e-06
2.07679e-05
1.23918e-06
2.0684e-05
1.24593e-06
2.05913e-05
1.25428e-06
2.04897e-05
1.26455e-06
2.03795e-05
1.27702e-06
2.02607e-05
1.2919e-06
2.01337e-05
1.30934e-06
1.99983e-05
1.32942e-06
1.98545e-05
1.35218e-06
1.97021e-05
1.37771e-06
1.95402e-05
1.40618e-06
1.93675e-05
1.43782e-06
1.91822e-05
1.47274e-06
1.89818e-05
1.51057e-06
1.87633e-05
1.5499e-06
1.85243e-05
1.58803e-06
1.82632e-05
1.62102e-06
1.79808e-05
1.64454e-06
1.76801e-05
1.65508e-06
1.73664e-05
1.65138e-06
1.70459e-05
1.63507e-06
1.67251e-05
1.61042e-06
1.64087e-05
1.58306e-06
1.60993e-05
1.55827e-06
1.57975e-05
1.53969e-06
1.55021e-05
1.52873e-06
1.52112e-05
1.52492e-06
1.49228e-05
1.52672e-06
1.46353e-05
1.53237e-06
1.43473e-05
1.54041e-06
1.4058e-05
1.54991e-06
1.37669e-05
1.56031e-06
1.34735e-05
1.57134e-06
1.31772e-05
1.58278e-06
1.28779e-05
1.5945e-06
1.25751e-05
1.60632e-06
1.22686e-05
1.61811e-06
1.19582e-05
1.62972e-06
1.16436e-05
1.64102e-06
1.13246e-05
1.6519e-06
1.1001e-05
1.66224e-06
1.06728e-05
1.67194e-06
1.03397e-05
1.68088e-06
1.00016e-05
1.68899e-06
9.65848e-06
1.69616e-06
9.31024e-06
1.70233e-06
8.95683e-06
1.70741e-06
8.59822e-06
1.71135e-06
8.2344e-06
1.7141e-06
7.86538e-06
1.71563e-06
7.4912e-06
1.71592e-06
7.11194e-06
1.71498e-06
6.72767e-06
1.71282e-06
6.33852e-06
1.70951e-06
5.94462e-06
1.70511e-06
5.54615e-06
1.69973e-06
5.14329e-06
1.69349e-06
4.73627e-06
1.68656e-06
4.32533e-06
1.67913e-06
3.91075e-06
1.67142e-06
3.49284e-06
1.66367e-06
3.07196e-06
1.65614e-06
2.64851e-06
1.6491e-06
2.22296e-06
1.64276e-06
1.79588e-06
1.63692e-06
1.36819e-06
1.62864e-06
9.43039e-07
1.60269e-06
5.33412e-07
1.50547e-06
1.82737e-07
1.2101e-06
5.398e-07
2.0013e-05
8.35208e-08
2.00515e-05
2.49986e-07
2.01115e-05
4.0751e-07
2.01865e-05
5.49928e-07
2.027e-05
6.74193e-07
2.03571e-05
7.80099e-07
2.04437e-05
8.68644e-07
2.05263e-05
9.41162e-07
2.06023e-05
9.99364e-07
2.06703e-05
1.04535e-06
2.07292e-05
1.08134e-06
2.07788e-05
1.10937e-06
2.08193e-05
1.13123e-06
2.08509e-05
1.14846e-06
2.08744e-05
1.16233e-06
2.08904e-05
1.17385e-06
2.08995e-05
1.18378e-06
2.09024e-05
1.1927e-06
2.08996e-05
1.20099e-06
2.08915e-05
1.20894e-06
2.08784e-05
1.21672e-06
2.08604e-05
1.22444e-06
2.08377e-05
1.23219e-06
2.08102e-05
1.24002e-06
2.07778e-05
1.24801e-06
2.07402e-05
1.25623e-06
2.06973e-05
1.2648e-06
2.06488e-05
1.27386e-06
2.05944e-05
1.28359e-06
2.05339e-05
1.29423e-06
2.0467e-05
1.30601e-06
2.03938e-05
1.3192e-06
2.0314e-05
1.33408e-06
2.02276e-05
1.35091e-06
2.01347e-05
1.36993e-06
2.00353e-05
1.39132e-06
1.99294e-05
1.41524e-06
1.9817e-05
1.4418e-06
1.9698e-05
1.47115e-06
1.95722e-05
1.50354e-06
1.94389e-05
1.53946e-06
1.92971e-05
1.57962e-06
1.91451e-05
1.62478e-06
1.89804e-05
1.67528e-06
1.87999e-05
1.73035e-06
1.86005e-05
1.78747e-06
1.83793e-05
1.84215e-06
1.81353e-05
1.88856e-06
1.78694e-05
1.92104e-06
1.75848e-05
1.93592e-06
1.7287e-05
1.93294e-06
1.69818e-05
1.91556e-06
1.6675e-05
1.88988e-06
1.63706e-05
1.8627e-06
1.60706e-05
1.8396e-06
1.57756e-05
1.82378e-06
1.54845e-05
1.81598e-06
1.51961e-05
1.81518e-06
1.49088e-05
1.81968e-06
1.46214e-05
1.82778e-06
1.43331e-05
1.83825e-06
1.40431e-05
1.85032e-06
1.37508e-05
1.86355e-06
1.3456e-05
1.87766e-06
1.3158e-05
1.89243e-06
1.28567e-05
1.90766e-06
1.25516e-05
1.92318e-06
1.22425e-05
1.93881e-06
1.19291e-05
1.95441e-06
1.16112e-05
1.96982e-06
1.12886e-05
1.98492e-06
1.09609e-05
1.99957e-06
1.06281e-05
2.01367e-06
1.029e-05
2.0271e-06
9.94642e-06
2.03975e-06
9.59722e-06
2.05153e-06
9.2423e-06
2.06234e-06
8.88155e-06
2.0721e-06
8.5149e-06
2.08075e-06
8.14229e-06
2.08824e-06
7.7637e-06
2.09451e-06
7.37912e-06
2.09955e-06
6.98858e-06
2.10337e-06
6.59212e-06
2.10596e-06
6.18985e-06
2.10739e-06
5.78187e-06
2.10771e-06
5.36834e-06
2.10702e-06
4.94946e-06
2.10544e-06
4.52545e-06
2.10313e-06
4.09661e-06
2.10026e-06
3.66326e-06
2.09702e-06
3.22578e-06
2.09362e-06
2.78462e-06
2.09026e-06
2.34029e-06
2.0871e-06
1.89338e-06
2.08382e-06
1.44491e-06
2.07712e-06
9.98176e-07
2.04942e-06
5.66743e-07
1.93691e-06
1.95806e-07
1.58104e-06
7.35605e-07
2.00096e-05
7.39124e-08
2.00383e-05
2.21285e-07
2.00836e-05
3.62258e-07
2.01412e-05
4.92307e-07
2.02066e-05
6.08758e-07
2.02759e-05
7.10854e-07
2.03456e-05
7.98918e-07
2.0413e-05
8.73741e-07
2.04759e-05
9.3646e-07
2.05327e-05
9.88539e-07
2.05825e-05
1.0316e-06
2.06246e-05
1.06724e-06
2.06589e-05
1.09691e-06
2.06855e-05
1.12188e-06
2.07046e-05
1.14324e-06
2.07165e-05
1.16191e-06
2.07217e-05
1.1786e-06
2.07205e-05
1.19387e-06
2.07134e-05
1.20814e-06
2.07006e-05
1.22175e-06
2.06824e-05
1.23491e-06
2.0659e-05
1.24782e-06
2.06306e-05
1.26061e-06
2.05972e-05
1.27341e-06
2.05589e-05
1.28633e-06
2.05156e-05
1.2995e-06
2.04673e-05
1.31308e-06
2.0414e-05
1.32721e-06
2.03554e-05
1.34211e-06
2.02917e-05
1.35797e-06
2.02227e-05
1.37503e-06
2.01483e-05
1.39354e-06
2.00687e-05
1.41374e-06
1.99837e-05
1.43587e-06
1.98935e-05
1.46013e-06
1.97981e-05
1.48671e-06
1.96976e-05
1.51577e-06
1.95919e-05
1.54745e-06
1.94811e-05
1.58196e-06
1.9365e-05
1.61971e-06
1.9243e-05
1.66141e-06
1.91144e-05
1.70819e-06
1.89779e-05
1.76135e-06
1.88312e-05
1.82191e-06
1.86719e-05
1.88972e-06
1.84967e-05
1.96265e-06
1.83028e-05
2.03604e-06
1.80881e-05
2.10321e-06
1.78523e-05
2.15689e-06
1.75968e-05
2.19143e-06
1.73251e-05
2.20464e-06
1.70419e-05
2.19875e-06
1.67522e-05
2.1796e-06
1.64601e-05
2.15471e-06
1.61687e-05
2.13101e-06
1.58793e-05
2.11319e-06
1.55921e-05
2.10324e-06
1.53064e-05
2.1009e-06
1.50213e-05
2.10477e-06
1.47359e-05
2.11317e-06
1.44494e-05
2.12474e-06
1.41612e-05
2.13855e-06
1.38707e-05
2.15404e-06
1.35775e-05
2.17084e-06
1.32812e-05
2.18871e-06
1.29815e-05
2.20739e-06
1.2678e-05
2.22669e-06
1.23704e-05
2.24639e-06
1.20585e-05
2.26634e-06
1.17419e-05
2.28637e-06
1.14205e-05
2.30632e-06
1.1094e-05
2.32606e-06
1.07623e-05
2.34545e-06
1.0425e-05
2.36436e-06
1.00821e-05
2.38268e-06
9.73328e-06
2.4003e-06
9.37853e-06
2.41709e-06
9.01765e-06
2.43298e-06
8.65053e-06
2.44787e-06
8.27709e-06
2.46168e-06
7.89725e-06
2.47436e-06
7.51095e-06
2.48585e-06
7.11819e-06
2.49612e-06
6.71898e-06
2.50517e-06
6.31336e-06
2.51301e-06
5.90141e-06
2.51966e-06
5.48325e-06
2.52517e-06
5.05906e-06
2.52964e-06
4.62904e-06
2.53315e-06
4.19347e-06
2.53584e-06
3.75266e-06
2.53783e-06
3.307e-06
2.53928e-06
2.85693e-06
2.54033e-06
2.40296e-06
2.54106e-06
1.9457e-06
2.54108e-06
1.48617e-06
2.53665e-06
1.02783e-06
2.50776e-06
5.84621e-07
2.38011e-06
2.02817e-07
1.96284e-06
9.38423e-07
2.00073e-05
6.66482e-08
2.0029e-05
1.99548e-07
2.00636e-05
3.27691e-07
2.01082e-05
4.47708e-07
2.01595e-05
5.57384e-07
2.02146e-05
6.55789e-07
2.02707e-05
7.42848e-07
2.03255e-05
8.18959e-07
2.03771e-05
8.84852e-07
2.04241e-05
9.4154e-07
2.04655e-05
9.90206e-07
2.05006e-05
1.03207e-06
2.05293e-05
1.06829e-06
2.05512e-05
1.09992e-06
2.05666e-05
1.1279e-06
2.05754e-05
1.15303e-06
2.05781e-05
1.17597e-06
2.05747e-05
1.19727e-06
2.05655e-05
1.21734e-06
2.05507e-05
1.23653e-06
2.05305e-05
1.25511e-06
2.0505e-05
1.27329e-06
2.04744e-05
1.29126e-06
2.04386e-05
1.30917e-06
2.03977e-05
1.32717e-06
2.03518e-05
1.34542e-06
2.03008e-05
1.36406e-06
2.02448e-05
1.38328e-06
2.01836e-05
1.40327e-06
2.01174e-05
1.42423e-06
2.0046e-05
1.44637e-06
1.99696e-05
1.46992e-06
1.98883e-05
1.49511e-06
1.9802e-05
1.52215e-06
1.97109e-05
1.55124e-06
1.9615e-05
1.58256e-06
1.95145e-05
1.61626e-06
1.94095e-05
1.65252e-06
1.92998e-05
1.6916e-06
1.91855e-05
1.73403e-06
1.90662e-05
1.78076e-06
1.89411e-05
1.83321e-06
1.88093e-05
1.89318e-06
1.8669e-05
1.96218e-06
1.85182e-05
2.04059e-06
1.83542e-05
2.12658e-06
1.81748e-05
2.21551e-06
1.79778e-05
2.3002e-06
1.77623e-05
2.37237e-06
1.75288e-05
2.42494e-06
1.72792e-05
2.45424e-06
1.70167e-05
2.46128e-06
1.6745e-05
2.45131e-06
1.64677e-05
2.43201e-06
1.61876e-05
2.41105e-06
1.59067e-05
2.39416e-06
1.56256e-05
2.38431e-06
1.53444e-05
2.38203e-06
1.50629e-05
2.38633e-06
1.47803e-05
2.39572e-06
1.44962e-05
2.40883e-06
1.42101e-05
2.4247e-06
1.39214e-05
2.44269e-06
1.36299e-05
2.4624e-06
1.33351e-05
2.48352e-06
1.30367e-05
2.50579e-06
1.27344e-05
2.52897e-06
1.24279e-05
2.55286e-06
1.2117e-05
2.57726e-06
1.18014e-05
2.602e-06
1.14808e-05
2.6269e-06
1.1155e-05
2.65181e-06
1.08239e-05
2.67658e-06
1.04872e-05
2.70109e-06
1.01447e-05
2.72519e-06
9.79622e-06
2.74876e-06
9.44164e-06
2.77167e-06
9.08081e-06
2.79382e-06
8.71358e-06
2.81509e-06
8.33985e-06
2.83541e-06
7.95953e-06
2.85467e-06
7.57256e-06
2.87282e-06
7.17889e-06
2.88979e-06
6.77853e-06
2.90554e-06
6.3715e-06
2.92004e-06
5.95785e-06
2.9333e-06
5.5377e-06
2.94533e-06
5.11119e-06
2.95615e-06
4.67852e-06
2.96582e-06
4.23994e-06
2.97441e-06
3.79577e-06
2.982e-06
3.34638e-06
2.98867e-06
2.89219e-06
2.99452e-06
2.4337e-06
2.99955e-06
1.9715e-06
3.00328e-06
1.50661e-06
3.00154e-06
1.04256e-06
2.97181e-06
5.93528e-07
2.82915e-06
2.06325e-07
2.35005e-06
1.14475e-06
2.00056e-05
6.10855e-08
2.00222e-05
1.8289e-07
2.00489e-05
3.01049e-07
2.00836e-05
4.13009e-07
2.0124e-05
5.16972e-07
2.01677e-05
6.12016e-07
2.02127e-05
6.97861e-07
2.0257e-05
7.74644e-07
2.02991e-05
8.42809e-07
2.03376e-05
9.03044e-07
2.03716e-05
9.56202e-07
2.04004e-05
1.00321e-06
2.04238e-05
1.04498e-06
2.04413e-05
1.08239e-06
2.0453e-05
1.11621e-06
2.04589e-05
1.14715e-06
2.0459e-05
1.17581e-06
2.04536e-05
1.2027e-06
2.04427e-05
1.22823e-06
2.04265e-05
1.25275e-06
2.0405e-05
1.27656e-06
2.03785e-05
1.29988e-06
2.03468e-05
1.32292e-06
2.03101e-05
1.34586e-06
2.02684e-05
1.36888e-06
2.02217e-05
1.39214e-06
2.01699e-05
1.41581e-06
2.01132e-05
1.44006e-06
2.00514e-05
1.46508e-06
1.99845e-05
1.49106e-06
1.99127e-05
1.51821e-06
1.98359e-05
1.54673e-06
1.97542e-05
1.57682e-06
1.96676e-05
1.60869e-06
1.95763e-05
1.64253e-06
1.94804e-05
1.6785e-06
1.93799e-05
1.71677e-06
1.92749e-05
1.75752e-06
1.91654e-05
1.80107e-06
1.90514e-05
1.84807e-06
1.89325e-05
1.89966e-06
1.88081e-05
1.95758e-06
1.86773e-05
2.02398e-06
1.85387e-05
2.10081e-06
1.83905e-05
2.18876e-06
1.82308e-05
2.28622e-06
1.80579e-05
2.38849e-06
1.787e-05
2.48803e-06
1.76665e-05
2.57593e-06
1.74472e-05
2.64417e-06
1.72134e-05
2.68806e-06
1.6967e-05
2.7077e-06
1.67105e-05
2.70777e-06
1.64468e-05
2.6958e-06
1.6178e-05
2.67979e-06
1.59061e-05
2.66608e-06
1.56321e-05
2.65833e-06
1.53564e-05
2.6577e-06
1.50791e-05
2.66362e-06
1.48e-05
2.67486e-06
1.45187e-05
2.69015e-06
1.42348e-05
2.70855e-06
1.39481e-05
2.72942e-06
1.36582e-05
2.75232e-06
1.33647e-05
2.77694e-06
1.30675e-05
2.80301e-06
1.27662e-05
2.83028e-06
1.24606e-05
2.85851e-06
1.21503e-05
2.88751e-06
1.18352e-05
2.91708e-06
1.15151e-05
2.94705e-06
1.11896e-05
2.97725e-06
1.08587e-05
3.00753e-06
1.05221e-05
3.03773e-06
1.01795e-05
3.06771e-06
9.83096e-06
3.09733e-06
9.47617e-06
3.12646e-06
9.11502e-06
3.15497e-06
8.74738e-06
3.18274e-06
8.37314e-06
3.20965e-06
7.99221e-06
3.2356e-06
7.60453e-06
3.2605e-06
7.21007e-06
3.28425e-06
6.8088e-06
3.3068e-06
6.40076e-06
3.32808e-06
5.98601e-06
3.34806e-06
5.56464e-06
3.36669e-06
5.13681e-06
3.38398e-06
4.7027e-06
3.39993e-06
4.26257e-06
3.41454e-06
3.81672e-06
3.42785e-06
3.36551e-06
3.43988e-06
2.90936e-06
3.45067e-06
2.44873e-06
3.46017e-06
1.98421e-06
3.46781e-06
1.51681e-06
3.46894e-06
1.05005e-06
3.43857e-06
5.98174e-07
3.28102e-06
2.08207e-07
2.74001e-06
1.35296e-06
2.00043e-05
5.67927e-08
2.00172e-05
1.70027e-07
2.00378e-05
2.80392e-07
2.00649e-05
3.85923e-07
2.00967e-05
4.85169e-07
2.01314e-05
5.77287e-07
2.01674e-05
6.61912e-07
2.0203e-05
7.39019e-07
2.0237e-05
8.08853e-07
2.02681e-05
8.71872e-07
2.02956e-05
9.28687e-07
2.03189e-05
9.79993e-07
2.03373e-05
1.02651e-06
2.03508e-05
1.06894e-06
2.0359e-05
1.10795e-06
2.03621e-05
1.14413e-06
2.03598e-05
1.17803e-06
2.03524e-05
1.2101e-06
2.03399e-05
1.24076e-06
2.03223e-05
1.27033e-06
2.02998e-05
1.29912e-06
2.02723e-05
1.32737e-06
2.02399e-05
1.3553e-06
2.02026e-05
1.38312e-06
2.01605e-05
1.41099e-06
2.01135e-05
1.43911e-06
2.00617e-05
1.46765e-06
2.0005e-05
1.49678e-06
1.99434e-05
1.52668e-06
1.98769e-05
1.55754e-06
1.98056e-05
1.58956e-06
1.97294e-05
1.62291e-06
1.96484e-05
1.6578e-06
1.95627e-05
1.69442e-06
1.94722e-05
1.73294e-06
1.93772e-05
1.77352e-06
1.92777e-05
1.81633e-06
1.91736e-05
1.86157e-06
1.90651e-05
1.9096e-06
1.8952e-05
1.96119e-06
1.8834e-05
2.01767e-06
1.87105e-05
2.08108e-06
1.85805e-05
2.15391e-06
1.84429e-05
2.23844e-06
1.82961e-05
2.33561e-06
1.81384e-05
2.44384e-06
1.79686e-05
2.55829e-06
1.77856e-05
2.67106e-06
1.75888e-05
2.77272e-06
1.73783e-05
2.85463e-06
1.71549e-05
2.91147e-06
1.69199e-05
2.94273e-06
1.6675e-05
2.95265e-06
1.64222e-05
2.94862e-06
1.61633e-05
2.93872e-06
1.58997e-05
2.92961e-06
1.56327e-05
2.92543e-06
1.53626e-05
2.92774e-06
1.50899e-05
2.93636e-06
1.48144e-05
2.95029e-06
1.45362e-05
2.96842e-06
1.42548e-05
2.98987e-06
1.39702e-05
3.01403e-06
1.36821e-05
3.04048e-06
1.33901e-05
3.0689e-06
1.30941e-05
3.09902e-06
1.27938e-05
3.13059e-06
1.2489e-05
3.16336e-06
1.21793e-05
3.19714e-06
1.18647e-05
3.23172e-06
1.15448e-05
3.26692e-06
1.12195e-05
3.30256e-06
1.08885e-05
3.33848e-06
1.05518e-05
3.37451e-06
1.0209e-05
3.4105e-06
9.86e-06
3.4463e-06
9.50471e-06
3.48176e-06
9.14294e-06
3.51674e-06
8.77458e-06
3.55109e-06
8.39953e-06
3.5847e-06
8.01771e-06
3.61742e-06
7.62906e-06
3.64915e-06
7.23355e-06
3.67976e-06
6.83118e-06
3.70917e-06
6.42198e-06
3.73728e-06
6.00603e-06
3.76401e-06
5.58343e-06
3.78929e-06
5.15434e-06
3.81307e-06
4.71896e-06
3.83531e-06
4.27754e-06
3.85596e-06
3.83039e-06
3.875e-06
3.37786e-06
3.89241e-06
2.92037e-06
3.90816e-06
2.45838e-06
3.92216e-06
1.99244e-06
3.93374e-06
1.52356e-06
3.93783e-06
1.05522e-06
3.9069e-06
6.0158e-07
3.73466e-06
2.09666e-07
3.13193e-06
1.56262e-06
2.00033e-05
5.34667e-08
2.00133e-05
1.60056e-07
2.00294e-05
2.64333e-07
2.00505e-05
3.64765e-07
2.00755e-05
4.6018e-07
2.01029e-05
5.49841e-07
2.01315e-05
6.33359e-07
2.01599e-05
7.1062e-07
2.0187e-05
7.81733e-07
2.02119e-05
8.46995e-07
2.02337e-05
9.06838e-07
2.0252e-05
9.61785e-07
2.02661e-05
1.0124e-06
2.02758e-05
1.05924e-06
2.02809e-05
1.10287e-06
2.02812e-05
1.14379e-06
2.02767e-05
1.18248e-06
2.02675e-05
1.21937e-06
2.02534e-05
1.25482e-06
2.02346e-05
1.28917e-06
2.0211e-05
1.3227e-06
2.01827e-05
1.35567e-06
2.01497e-05
1.3883e-06
2.0112e-05
1.4208e-06
2.00696e-05
1.45336e-06
2.00226e-05
1.48617e-06
1.99708e-05
1.5194e-06
1.99144e-05
1.55323e-06
1.98532e-05
1.58784e-06
1.97874e-05
1.6234e-06