/*--------------------------------*- C++ -*----------------------------------*\
| =========                 |                                                 |
| \\      /  F ield         | OpenFOAM: The Open Source CFD Toolbox           |
|  \\    /   O peration     | Version:  4.1                                   |
|   \\  /    A nd           | Web:      www.OpenFOAM.org                      |
|    \\/     M anipulation  |                                                 |
\*---------------------------------------------------------------------------*/
FoamFile
{
    version     2.0;
    format      ascii;
    class       volScalarField;
    location    "95";
    object      p;
}
// * * * * * * * * * * * * * * * * * * * * * * * * * * * * * * * * * * * * * //

dimensions      [0 2 -2 0 0 0 0];

internalField   nonuniform List<scalar> 
43750
(
0.000100663
9.19572e-05
8.58441e-05
8.29405e-05
8.08399e-05
7.87744e-05
7.69825e-05
7.56304e-05
7.4665e-05
7.39914e-05
7.35474e-05
7.32874e-05
7.31684e-05
7.31516e-05
7.32069e-05
7.33127e-05
7.34538e-05
7.36204e-05
7.38065e-05
7.4009e-05
7.42266e-05
7.44593e-05
7.47081e-05
7.49741e-05
7.52588e-05
7.55635e-05
7.58896e-05
7.62379e-05
7.6609e-05
7.70027e-05
7.74183e-05
7.78545e-05
7.83095e-05
7.8781e-05
7.9267e-05
7.97653e-05
8.02743e-05
8.07926e-05
8.13198e-05
8.18555e-05
8.24001e-05
8.29538e-05
8.35172e-05
8.40906e-05
8.46742e-05
8.52677e-05
8.58708e-05
8.64824e-05
8.71016e-05
8.7727e-05
8.83573e-05
8.89914e-05
8.96281e-05
9.02669e-05
9.0907e-05
9.15482e-05
9.21903e-05
9.28332e-05
9.34767e-05
9.41208e-05
9.47651e-05
9.54094e-05
9.60536e-05
9.66971e-05
9.73396e-05
9.79806e-05
9.86196e-05
9.9256e-05
9.98892e-05
0.000100519
0.000101143
0.000101762
0.000102375
0.000102981
0.000103579
0.000104168
0.000104747
0.000105315
0.000105871
0.000106413
0.000106941
0.000107453
0.000107948
0.000108425
0.000108881
0.000109317
0.00010973
0.00011012
0.000110484
0.000110821
0.00011113
0.000111411
0.000111661
0.000111879
0.000112065
0.000112219
0.000112341
0.000112432
0.000112493
0.00011252
8.77496e-05
8.6168e-05
8.39126e-05
8.2036e-05
8.03855e-05
7.8724e-05
7.71891e-05
7.59478e-05
7.50186e-05
7.43496e-05
7.38915e-05
7.36049e-05
7.34531e-05
7.34018e-05
7.34234e-05
7.34979e-05
7.36112e-05
7.37538e-05
7.39196e-05
7.4105e-05
7.43084e-05
7.45293e-05
7.47683e-05
7.5026e-05
7.53037e-05
7.56025e-05
7.59237e-05
7.62679e-05
7.66358e-05
7.70272e-05
7.74414e-05
7.7877e-05
7.8332e-05
7.88042e-05
7.9291e-05
7.97901e-05
8.02997e-05
8.08182e-05
8.13451e-05
8.18801e-05
8.24237e-05
8.29764e-05
8.35389e-05
8.41117e-05
8.46951e-05
8.52889e-05
8.58924e-05
8.65049e-05
8.71251e-05
8.77516e-05
8.8383e-05
8.9018e-05
8.96556e-05
9.02951e-05
9.09357e-05
9.15774e-05
9.22198e-05
9.2863e-05
9.35067e-05
9.4151e-05
9.47956e-05
9.54402e-05
9.60846e-05
9.67284e-05
9.73711e-05
9.80124e-05
9.86516e-05
9.92882e-05
9.99216e-05
0.000100551
0.000101176
0.000101795
0.000102409
0.000103015
0.000103613
0.000104202
0.00010478
0.000105348
0.000105904
0.000106446
0.000106974
0.000107486
0.000107981
0.000108458
0.000108914
0.00010935
0.000109763
0.000110153
0.000110517
0.000110854
0.000111164
0.000111443
0.000111693
0.000111911
0.000112097
0.00011225
0.00011237
0.000112459
0.000112518
0.000112548
8.57266e-05
8.49886e-05
8.33498e-05
8.15629e-05
8.00284e-05
7.86707e-05
7.74376e-05
7.63811e-05
7.55328e-05
7.48773e-05
7.43876e-05
7.40418e-05
7.38193e-05
7.36982e-05
7.36576e-05
7.36801e-05
7.37519e-05
7.38626e-05
7.40045e-05
7.41726e-05
7.43634e-05
7.45752e-05
7.48073e-05
7.50598e-05
7.53332e-05
7.56284e-05
7.59462e-05
7.62874e-05
7.66524e-05
7.70412e-05
7.7453e-05
7.78866e-05
7.83399e-05
7.88108e-05
7.92968e-05
7.97955e-05
8.03051e-05
8.08241e-05
8.13515e-05
8.18872e-05
8.24311e-05
8.29839e-05
8.35461e-05
8.41184e-05
8.47011e-05
8.52943e-05
8.58977e-05
8.65105e-05
8.71314e-05
8.7759e-05
8.83917e-05
8.90279e-05
8.96666e-05
9.03069e-05
9.09483e-05
9.15905e-05
9.22335e-05
9.28772e-05
9.35216e-05
9.41665e-05
9.48118e-05
9.54573e-05
9.61026e-05
9.67474e-05
9.73912e-05
9.80336e-05
9.86741e-05
9.9312e-05
9.99467e-05
0.000100578
0.000101204
0.000101825
0.000102439
0.000103047
0.000103646
0.000104237
0.000104818
0.000105387
0.000105944
0.000106488
0.000107018
0.000107531
0.000108028
0.000108506
0.000108964
0.000109402
0.000109816
0.000110207
0.000110572
0.000110911
0.000111222
0.000111503
0.000111753
0.000111972
0.000112158
0.00011231
0.000112429
0.000112515
0.000112574
0.00011261
8.32641e-05
8.27472e-05
8.17026e-05
8.04698e-05
7.93207e-05
7.82747e-05
7.72993e-05
7.64244e-05
7.56892e-05
7.51007e-05
7.46458e-05
7.43093e-05
7.40774e-05
7.39353e-05
7.38679e-05
7.38614e-05
7.39047e-05
7.39892e-05
7.41081e-05
7.42565e-05
7.44311e-05
7.46296e-05
7.48511e-05
7.50949e-05
7.53612e-05
7.56502e-05
7.59625e-05
7.62985e-05
7.66582e-05
7.70415e-05
7.74477e-05
7.78757e-05
7.83238e-05
7.879e-05
7.92722e-05
7.97683e-05
8.02764e-05
8.0795e-05
8.13232e-05
8.18604e-05
8.24066e-05
8.29619e-05
8.35265e-05
8.41009e-05
8.46851e-05
8.5279e-05
8.58825e-05
8.64949e-05
8.71153e-05
8.77424e-05
8.83749e-05
8.90113e-05
8.96503e-05
9.02911e-05
9.0933e-05
9.15757e-05
9.22193e-05
9.28637e-05
9.35089e-05
9.41549e-05
9.48014e-05
9.54482e-05
9.60951e-05
9.67416e-05
9.73873e-05
9.80318e-05
9.86744e-05
9.93147e-05
9.9952e-05
0.000100585
0.000101215
0.000101838
0.000102456
0.000103067
0.00010367
0.000104264
0.000104848
0.000105421
0.000105982
0.000106529
0.000107062
0.000107579
0.000108079
0.000108561
0.000109023
0.000109463
0.000109881
0.000110275
0.000110643
0.000110985
0.000111298
0.000111581
0.000111833
0.000112053
0.000112239
0.000112391
0.000112509
0.000112593
0.000112652
0.000112694
8.14677e-05
8.11733e-05
8.0517e-05
7.96493e-05
7.87543e-05
7.7902e-05
7.70987e-05
7.63647e-05
7.57296e-05
7.52061e-05
7.47899e-05
7.44717e-05
7.4242e-05
7.40908e-05
7.40075e-05
7.3982e-05
7.40055e-05
7.40709e-05
7.41726e-05
7.4306e-05
7.44679e-05
7.46561e-05
7.48691e-05
7.51059e-05
7.53662e-05
7.56497e-05
7.59566e-05
7.62868e-05
7.66403e-05
7.70168e-05
7.74155e-05
7.78356e-05
7.82756e-05
7.87341e-05
7.92093e-05
7.96995e-05
8.02033e-05
8.07194e-05
8.1247e-05
8.17854e-05
8.23343e-05
8.28936e-05
8.34631e-05
8.40424e-05
8.46311e-05
8.52287e-05
8.58346e-05
8.64481e-05
8.70684e-05
8.76947e-05
8.8326e-05
8.89611e-05
8.95991e-05
9.02391e-05
9.08806e-05
9.15232e-05
9.2167e-05
9.28118e-05
9.34577e-05
9.41046e-05
9.47523e-05
9.54006e-05
9.60492e-05
9.66977e-05
9.73457e-05
9.79927e-05
9.86382e-05
9.92815e-05
9.99221e-05
0.000100559
0.000101192
0.00010182
0.000102442
0.000103057
0.000103664
0.000104263
0.000104852
0.00010543
0.000105996
0.000106549
0.000107087
0.000107609
0.000108115
0.000108601
0.000109068
0.000109514
0.000109936
0.000110335
0.000110707
0.000111052
0.000111369
0.000111655
0.00011191
0.000112132
0.000112319
0.000112472
0.000112589
0.000112672
0.000112731
0.000112776
8.00794e-05
7.98909e-05
7.94433e-05
7.88096e-05
7.81153e-05
7.74324e-05
7.67819e-05
7.61786e-05
7.5643e-05
7.51887e-05
7.48179e-05
7.45268e-05
7.43098e-05
7.41609e-05
7.40729e-05
7.40385e-05
7.4051e-05
7.41048e-05
7.41951e-05
7.43179e-05
7.44704e-05
7.46502e-05
7.48557e-05
7.50859e-05
7.53401e-05
7.56179e-05
7.59189e-05
7.62429e-05
7.65896e-05
7.69586e-05
7.73493e-05
7.77607e-05
7.81919e-05
7.86415e-05
7.91083e-05
7.9591e-05
8.00884e-05
8.05997e-05
8.11241e-05
8.16611e-05
8.22105e-05
8.27721e-05
8.33454e-05
8.39299e-05
8.45247e-05
8.51285e-05
8.57399e-05
8.63576e-05
8.69806e-05
8.76078e-05
8.82387e-05
8.88725e-05
8.95089e-05
9.01474e-05
9.07876e-05
9.14294e-05
9.20726e-05
9.27174e-05
9.33635e-05
9.40109e-05
9.46595e-05
9.53091e-05
9.59592e-05
9.66095e-05
9.72597e-05
9.79091e-05
9.85573e-05
9.92038e-05
9.98477e-05
0.000100488
0.000101125
0.000101758
0.000102384
0.000103004
0.000103617
0.000104221
0.000104815
0.000105399
0.000105971
0.00010653
0.000107074
0.000107603
0.000108114
0.000108607
0.00010908
0.000109532
0.00010996
0.000110364
0.000110742
0.000111092
0.000111413
0.000111703
0.000111961
0.000112186
0.000112376
0.00011253
0.000112647
0.00011273
0.000112788
0.000112834
7.89408e-05
7.88078e-05
7.84883e-05
7.8022e-05
7.74907e-05
7.69508e-05
7.64261e-05
7.59311e-05
7.5482e-05
7.50921e-05
7.47671e-05
7.45067e-05
7.43086e-05
7.4169e-05
7.40835e-05
7.4047e-05
7.40544e-05
7.41014e-05
7.4184e-05
7.42991e-05
7.4444e-05
7.46166e-05
7.48153e-05
7.50392e-05
7.52872e-05
7.55588e-05
7.58535e-05
7.6171e-05
7.65107e-05
7.68721e-05
7.72546e-05
7.76575e-05
7.80798e-05
7.85205e-05
7.89787e-05
7.94532e-05
7.99433e-05
8.04481e-05
8.09671e-05
8.15001e-05
8.20468e-05
8.26072e-05
8.3181e-05
8.37678e-05
8.43664e-05
8.49754e-05
8.55927e-05
8.62161e-05
8.68438e-05
8.74743e-05
8.81068e-05
8.87409e-05
8.93765e-05
9.00137e-05
9.06526e-05
9.12933e-05
9.19357e-05
9.25799e-05
9.32259e-05
9.38735e-05
9.45225e-05
9.51728e-05
9.5824e-05
9.64757e-05
9.71275e-05
9.7779e-05
9.84296e-05
9.90788e-05
9.97258e-05
0.00010037
0.000101011
0.000101647
0.000102278
0.000102903
0.00010352
0.00010413
0.00010473
0.000105319
0.000105897
0.000106462
0.000107013
0.000107548
0.000108066
0.000108566
0.000109045
0.000109503
0.000109937
0.000110347
0.00011073
0.000111086
0.000111412
0.000111706
0.000111968
0.000112196
0.000112389
0.000112545
0.000112664
0.000112747
0.000112805
0.000112852
7.79786e-05
7.78819e-05
7.76486e-05
7.73016e-05
7.68938e-05
7.64669e-05
7.60431e-05
7.56373e-05
7.52633e-05
7.49329e-05
7.46527e-05
7.44249e-05
7.4249e-05
7.41233e-05
7.40451e-05
7.4011e-05
7.40177e-05
7.40617e-05
7.41399e-05
7.42499e-05
7.43893e-05
7.45563e-05
7.47494e-05
7.49677e-05
7.521e-05
7.54759e-05
7.57646e-05
7.60756e-05
7.64085e-05
7.67627e-05
7.71375e-05
7.75323e-05
7.79462e-05
7.83785e-05
7.88282e-05
7.92947e-05
7.97771e-05
8.02748e-05
8.07875e-05
8.13148e-05
8.18567e-05
8.24132e-05
8.29842e-05
8.35694e-05
8.41681e-05
8.47788e-05
8.53992e-05
8.60267e-05
8.66586e-05
8.72929e-05
8.79281e-05
8.85637e-05
8.91998e-05
8.98367e-05
9.0475e-05
9.11148e-05
9.17564e-05
9.24e-05
9.30455e-05
9.36929e-05
9.43421e-05
9.49927e-05
9.56444e-05
9.62971e-05
9.69501e-05
9.76031e-05
9.82555e-05
9.89067e-05
9.95562e-05
0.000100203
0.000100847
0.000101487
0.000102121
0.00010275
0.000103372
0.000103987
0.000104592
0.000105187
0.00010577
0.000106341
0.000106898
0.000107439
0.000107963
0.000108469
0.000108954
0.000109418
0.000109858
0.000110274
0.000110663
0.000111024
0.000111354
0.000111653
0.000111919
0.000112151
0.000112347
0.000112505
0.000112626
0.00011271
0.000112769
0.000112815
7.71454e-05
7.70735e-05
7.68994e-05
7.66368e-05
7.63215e-05
7.59837e-05
7.56426e-05
7.53116e-05
7.50027e-05
7.4726e-05
7.44882e-05
7.42926e-05
7.41403e-05
7.40309e-05
7.39631e-05
7.39349e-05
7.39439e-05
7.39879e-05
7.40644e-05
7.41715e-05
7.43072e-05
7.44701e-05
7.46587e-05
7.48722e-05
7.51095e-05
7.53701e-05
7.56532e-05
7.59582e-05
7.62847e-05
7.66321e-05
7.69998e-05
7.7387e-05
7.77932e-05
7.82176e-05
7.86596e-05
7.91183e-05
7.95933e-05
8.0084e-05
8.059e-05
8.11111e-05
8.16473e-05
8.21985e-05
8.27648e-05
8.3346e-05
8.39416e-05
8.45503e-05
8.51702e-05
8.57983e-05
8.64319e-05
8.70682e-05
8.77054e-05
8.83425e-05
8.89795e-05
8.96168e-05
9.02548e-05
9.08942e-05
9.15353e-05
9.21783e-05
9.28233e-05
9.34703e-05
9.41192e-05
9.47698e-05
9.54217e-05
9.60747e-05
9.67284e-05
9.73823e-05
9.80359e-05
9.86886e-05
9.93399e-05
9.99889e-05
0.000100635
0.000101278
0.000101915
0.000102548
0.000103173
0.000103792
0.000104401
0.000105
0.000105589
0.000106165
0.000106726
0.000107273
0.000107802
0.000108313
0.000108804
0.000109274
0.00010972
0.00011014
0.000110534
0.0001109
0.000111235
0.000111538
0.000111808
0.000112043
0.000112241
0.000112403
0.000112526
0.000112611
0.00011267
0.000112716
7.64082e-05
7.63537e-05
7.62215e-05
7.60204e-05
7.57754e-05
7.55085e-05
7.52348e-05
7.49661e-05
7.47126e-05
7.44831e-05
7.42841e-05
7.41192e-05
7.39904e-05
7.38984e-05
7.38428e-05
7.38226e-05
7.38363e-05
7.38824e-05
7.39592e-05
7.4065e-05
7.41985e-05
7.43584e-05
7.45436e-05
7.4753e-05
7.49859e-05
7.52416e-05
7.55195e-05
7.5819e-05
7.61395e-05
7.64806e-05
7.68415e-05
7.72218e-05
7.76208e-05
7.80379e-05
7.84725e-05
7.89239e-05
7.93918e-05
7.98756e-05
8.03751e-05
8.08899e-05
8.142e-05
8.19654e-05
8.25261e-05
8.31021e-05
8.36928e-05
8.42972e-05
8.49135e-05
8.55392e-05
8.61712e-05
8.68069e-05
8.74441e-05
8.80815e-05
8.87187e-05
8.9356e-05
8.99939e-05
9.06329e-05
9.12734e-05
9.19158e-05
9.25601e-05
9.32065e-05
9.38548e-05
9.45049e-05
9.51565e-05
9.58094e-05
9.64631e-05
9.71173e-05
9.77715e-05
9.8425e-05
9.90774e-05
9.97278e-05
0.000100376
0.00010102
0.00010166
0.000102295
0.000102924
0.000103545
0.000104158
0.000104761
0.000105353
0.000105933
0.000106499
0.00010705
0.000107584
0.000108099
0.000108595
0.000109069
0.000109519
0.000109944
0.000110342
0.000110712
0.000111051
0.000111358
0.000111631
0.000111868
0.00011207
0.000112233
0.000112358
0.000112445
0.000112504
0.00011255
7.57436e-05
7.57018e-05
7.56003e-05
7.54451e-05
7.52539e-05
7.5043e-05
7.48241e-05
7.4607e-05
7.44005e-05
7.42122e-05
7.4048e-05
7.39117e-05
7.38057e-05
7.37312e-05
7.36887e-05
7.36777e-05
7.36976e-05
7.37473e-05
7.38257e-05
7.39317e-05
7.40642e-05
7.42221e-05
7.44045e-05
7.46106e-05
7.48396e-05
7.50909e-05
7.5364e-05
7.56583e-05
7.59732e-05
7.63082e-05
7.66628e-05
7.70365e-05
7.74286e-05
7.78387e-05
7.82663e-05
7.87108e-05
7.91718e-05
7.96488e-05
8.01417e-05
8.06501e-05
8.11741e-05
8.17134e-05
8.22682e-05
8.28383e-05
8.34231e-05
8.40219e-05
8.46328e-05
8.52537e-05
8.58817e-05
8.65143e-05
8.71492e-05
8.7785e-05
8.84211e-05
8.90575e-05
8.96946e-05
9.03326e-05
9.09722e-05
9.16135e-05
9.22568e-05
9.29021e-05
9.35493e-05
9.41985e-05
9.48492e-05
9.55014e-05
9.61546e-05
9.68085e-05
9.74625e-05
9.81162e-05
9.87689e-05
9.94199e-05
0.000100069
0.000100714
0.000101356
0.000101992
0.000102623
0.000103246
0.000103861
0.000104467
0.000105062
0.000105645
0.000106215
0.000106769
0.000107306
0.000107826
0.000108325
0.000108802
0.000109256
0.000109685
0.000110087
0.000110459
0.000110801
0.000111111
0.000111387
0.000111627
0.00011183
0.000111996
0.000112122
0.00011221
0.000112269
0.000112316
7.51346e-05
7.51024e-05
7.50239e-05
7.49034e-05
7.47539e-05
7.45874e-05
7.4413e-05
7.42387e-05
7.4072e-05
7.39194e-05
7.37862e-05
7.3676e-05
7.35914e-05
7.3534e-05
7.35047e-05
7.35036e-05
7.35304e-05
7.35848e-05
7.36659e-05
7.3773e-05
7.39053e-05
7.4062e-05
7.42423e-05
7.44456e-05
7.46712e-05
7.49186e-05
7.51872e-05
7.54765e-05
7.5786e-05
7.61153e-05
7.64638e-05
7.68311e-05
7.72167e-05
7.76201e-05
7.80408e-05
7.84784e-05
7.89326e-05
7.94029e-05
7.98891e-05
8.0391e-05
8.09085e-05
8.14416e-05
8.199e-05
8.25538e-05
8.31322e-05
8.37244e-05
8.43289e-05
8.49435e-05
8.55657e-05
8.61933e-05
8.6824e-05
8.74564e-05
8.80898e-05
8.87239e-05
8.9359e-05
8.99953e-05
9.06331e-05
9.12727e-05
9.19143e-05
9.25579e-05
9.32035e-05
9.3851e-05
9.45003e-05
9.51511e-05
9.58031e-05
9.64559e-05
9.71091e-05
9.7762e-05
9.84143e-05
9.90651e-05
9.97138e-05
0.00010036
0.000101002
0.000101639
0.000102271
0.000102895
0.000103512
0.00010412
0.000104717
0.000105302
0.000105874
0.00010643
0.00010697
0.000107492
0.000107994
0.000108475
0.000108931
0.000109363
0.000109767
0.000110142
0.000110486
0.000110798
0.000111076
0.000111318
0.000111523
0.000111689
0.000111817
0.000111905
0.000111965
0.000112012
7.45687e-05
7.45437e-05
7.44828e-05
7.4389e-05
7.42721e-05
7.4141e-05
7.40029e-05
7.38642e-05
7.37311e-05
7.36093e-05
7.35032e-05
7.34165e-05
7.33517e-05
7.33106e-05
7.32941e-05
7.3303e-05
7.33373e-05
7.33969e-05
7.34813e-05
7.35902e-05
7.3723e-05
7.3879e-05
7.40578e-05
7.42587e-05
7.44813e-05
7.47251e-05
7.49895e-05
7.52741e-05
7.55785e-05
7.59022e-05
7.62449e-05
7.6606e-05
7.69852e-05
7.73819e-05
7.77959e-05
7.82267e-05
7.8674e-05
7.91375e-05
7.96169e-05
8.01121e-05
8.06229e-05
8.11492e-05
8.1691e-05
8.22479e-05
8.28194e-05
8.34045e-05
8.40017e-05
8.4609e-05
8.52243e-05
8.58454e-05
8.64704e-05
8.70978e-05
8.77269e-05
8.83574e-05
8.89892e-05
8.96225e-05
9.02576e-05
9.08946e-05
9.15335e-05
9.21746e-05
9.28178e-05
9.3463e-05
9.411e-05
9.47586e-05
9.54086e-05
9.60595e-05
9.6711e-05
9.73625e-05
9.80134e-05
9.86632e-05
9.9311e-05
9.99562e-05
0.000100598
0.000101235
0.000101867
0.000102492
0.000103109
0.000103718
0.000104316
0.000104902
0.000105475
0.000106033
0.000106575
0.000107099
0.000107603
0.000108085
0.000108543
0.000108976
0.000109382
0.000109759
0.000110105
0.000110419
0.000110698
0.000110941
0.000111147
0.000111314
0.000111442
0.00011153
0.000111591
0.000111638
7.40362e-05
7.40167e-05
7.39695e-05
7.38966e-05
7.38054e-05
7.37028e-05
7.35943e-05
7.34851e-05
7.33804e-05
7.32849e-05
7.32027e-05
7.3137e-05
7.30901e-05
7.3064e-05
7.30599e-05
7.30785e-05
7.31203e-05
7.31853e-05
7.32735e-05
7.33847e-05
7.35183e-05
7.36742e-05
7.38518e-05
7.40507e-05
7.42706e-05
7.4511e-05
7.47714e-05
7.50516e-05
7.53511e-05
7.56694e-05
7.60064e-05
7.63614e-05
7.67342e-05
7.71245e-05
7.75317e-05
7.79557e-05
7.83961e-05
7.88526e-05
7.9325e-05
7.98132e-05
8.03169e-05
8.08362e-05
8.13708e-05
8.19204e-05
8.24844e-05
8.30618e-05
8.3651e-05
8.42504e-05
8.48579e-05
8.54714e-05
8.60894e-05
8.67105e-05
8.73339e-05
8.79593e-05
8.85865e-05
8.92157e-05
8.98468e-05
9.048e-05
9.11154e-05
9.1753e-05
9.23928e-05
9.30347e-05
9.36786e-05
9.43242e-05
9.49712e-05
9.56194e-05
9.62682e-05
9.69173e-05
9.7566e-05
9.82137e-05
9.88598e-05
9.95033e-05
0.000100144
0.00010078
0.00010141
0.000102035
0.000102652
0.00010326
0.000103858
0.000104445
0.000105018
0.000105577
0.000106119
0.000106644
0.000107149
0.000107632
0.000108091
0.000108526
0.000108933
0.00010931
0.000109657
0.000109971
0.000110251
0.000110495
0.000110701
0.000110869
0.000110997
0.000111086
0.000111146
0.000111193
7.35294e-05
7.35144e-05
7.34779e-05
7.34215e-05
7.33509e-05
7.32713e-05
7.3187e-05
7.31023e-05
7.30216e-05
7.29487e-05
7.28872e-05
7.284e-05
7.28094e-05
7.27971e-05
7.28044e-05
7.28323e-05
7.28814e-05
7.29519e-05
7.3044e-05
7.31575e-05
7.32924e-05
7.34483e-05
7.36251e-05
7.38223e-05
7.40397e-05
7.42769e-05
7.45336e-05
7.48094e-05
7.51041e-05
7.54172e-05
7.57485e-05
7.60976e-05
7.64642e-05
7.68479e-05
7.72484e-05
7.76655e-05
7.80988e-05
7.85482e-05
7.90134e-05
7.94942e-05
7.99906e-05
8.05024e-05
8.10294e-05
8.15712e-05
8.21272e-05
8.26963e-05
8.3277e-05
8.38678e-05
8.44666e-05
8.50717e-05
8.56816e-05
8.62952e-05
8.69117e-05
8.75307e-05
8.8152e-05
8.87757e-05
8.94017e-05
9.003e-05
9.06607e-05
9.12938e-05
9.19292e-05
9.25668e-05
9.32065e-05
9.3848e-05
9.44912e-05
9.51356e-05
9.57808e-05
9.64265e-05
9.70719e-05
9.77166e-05
9.83598e-05
9.90007e-05
9.96386e-05
0.000100272
0.000100901
0.000101524
0.000102139
0.000102746
0.000103343
0.000103929
0.000104502
0.00010506
0.000105602
0.000106127
0.000106632
0.000107115
0.000107575
0.000108009
0.000108416
0.000108794
0.000109142
0.000109456
0.000109736
0.00010998
0.000110186
0.000110354
0.000110481
0.00011057
0.00011063
0.000110677
7.30427e-05
7.30312e-05
7.30033e-05
7.296e-05
7.29059e-05
7.2845e-05
7.27807e-05
7.27165e-05
7.26559e-05
7.26023e-05
7.25588e-05
7.25279e-05
7.25116e-05
7.25118e-05
7.25297e-05
7.25663e-05
7.26223e-05
7.26982e-05
7.2794e-05
7.29101e-05
7.30462e-05
7.32024e-05
7.33784e-05
7.35741e-05
7.37892e-05
7.40233e-05
7.42764e-05
7.45481e-05
7.4838e-05
7.5146e-05
7.54717e-05
7.58148e-05
7.61751e-05
7.65523e-05
7.6946e-05
7.73561e-05
7.77823e-05
7.82243e-05
7.86821e-05
7.91554e-05
7.96441e-05
8.0148e-05
8.06669e-05
8.12005e-05
8.17479e-05
8.23081e-05
8.28798e-05
8.34612e-05
8.40507e-05
8.46466e-05
8.52475e-05
8.58525e-05
8.64609e-05
8.70723e-05
8.76865e-05
8.83034e-05
8.89231e-05
8.95453e-05
9.01701e-05
9.07975e-05
9.14274e-05
9.20596e-05
9.26941e-05
9.33305e-05
9.39687e-05
9.46082e-05
9.52488e-05
9.58899e-05
9.6531e-05
9.71715e-05
9.78108e-05
9.8448e-05
9.90823e-05
9.97129e-05
0.000100339
0.000100959
0.000101571
0.000102176
0.000102771
0.000103354
0.000103926
0.000104482
0.000105023
0.000105547
0.00010605
0.000106533
0.000106992
0.000107426
0.000107832
0.00010821
0.000108557
0.000108871
0.00010915
0.000109394
0.0001096
0.000109767
0.000109894
0.000109981
0.000110041
0.000110089
7.25713e-05
7.25626e-05
7.25415e-05
7.25089e-05
7.24682e-05
7.24225e-05
7.23747e-05
7.23276e-05
7.2284e-05
7.22469e-05
7.22189e-05
7.22022e-05
7.21987e-05
7.221e-05
7.22375e-05
7.22821e-05
7.23445e-05
7.24254e-05
7.25249e-05
7.26434e-05
7.27808e-05
7.29373e-05
7.31127e-05
7.33069e-05
7.35197e-05
7.37509e-05
7.40004e-05
7.42679e-05
7.45533e-05
7.48561e-05
7.51763e-05
7.55134e-05
7.58674e-05
7.6238e-05
7.66249e-05
7.70278e-05
7.74467e-05
7.78812e-05
7.83312e-05
7.87967e-05
7.92773e-05
7.9773e-05
8.02835e-05
8.08083e-05
8.13466e-05
8.18975e-05
8.24595e-05
8.3031e-05
8.36104e-05
8.41962e-05
8.47873e-05
8.53827e-05
8.59819e-05
8.65846e-05
8.71905e-05
8.77995e-05
8.84116e-05
8.90265e-05
8.96443e-05
9.02648e-05
9.0888e-05
9.15136e-05
9.21417e-05
9.27718e-05
9.34039e-05
9.40375e-05
9.46722e-05
9.53077e-05
9.59433e-05
9.65784e-05
9.72125e-05
9.78448e-05
9.84744e-05
9.91005e-05
9.97219e-05
0.000100338
0.000100947
0.000101548
0.000102139
0.00010272
0.000103288
0.000103842
0.000104381
0.000104902
0.000105404
0.000105884
0.000106342
0.000106774
0.000107179
0.000107556
0.000107901
0.000108214
0.000108493
0.000108735
0.00010894
0.000109106
0.000109233
0.000109319
0.000109378
0.000109426
7.21115e-05
7.21051e-05
7.20895e-05
7.20655e-05
7.20357e-05
7.20026e-05
7.19684e-05
7.19355e-05
7.19064e-05
7.18833e-05
7.18686e-05
7.18643e-05
7.1872e-05
7.18932e-05
7.19293e-05
7.19811e-05
7.20494e-05
7.21348e-05
7.22378e-05
7.23585e-05
7.24971e-05
7.26538e-05
7.28286e-05
7.30213e-05
7.32318e-05
7.34602e-05
7.37062e-05
7.39696e-05
7.42502e-05
7.45479e-05
7.48625e-05
7.51937e-05
7.55414e-05
7.59052e-05
7.62851e-05
7.66808e-05
7.70921e-05
7.75189e-05
7.7961e-05
7.84183e-05
7.88905e-05
7.93776e-05
7.98792e-05
8.03948e-05
8.09236e-05
8.14646e-05
8.20163e-05
8.25772e-05
8.31459e-05
8.37209e-05
8.43013e-05
8.48862e-05
8.54753e-05
8.60681e-05
8.66646e-05
8.72645e-05
8.78678e-05
8.84742e-05
8.90837e-05
8.96961e-05
9.03113e-05
9.09293e-05
9.15497e-05
9.21724e-05
9.27971e-05
9.34235e-05
9.40512e-05
9.46797e-05
9.53086e-05
9.59372e-05
9.65649e-05
9.71909e-05
9.78145e-05
9.84348e-05
9.90507e-05
9.96612e-05
0.000100265
0.000100861
0.000101448
0.000102024
0.000102589
0.000103139
0.000103674
0.000104192
0.00010469
0.000105168
0.000105623
0.000106053
0.000106456
0.00010683
0.000107174
0.000107485
0.000107762
0.000108003
0.000108206
0.000108371
0.000108496
0.000108581
0.000108639
0.000108687
7.16603e-05
7.16557e-05
7.16446e-05
7.16277e-05
7.16068e-05
7.1584e-05
7.15612e-05
7.15403e-05
7.15232e-05
7.15121e-05
7.15088e-05
7.15151e-05
7.15326e-05
7.15626e-05
7.16062e-05
7.16645e-05
7.17381e-05
7.18276e-05
7.19336e-05
7.20563e-05
7.2196e-05
7.23528e-05
7.25268e-05
7.2718e-05
7.29263e-05
7.31517e-05
7.33941e-05
7.36534e-05
7.39294e-05
7.42219e-05
7.45308e-05
7.4856e-05
7.51972e-05
7.55543e-05
7.5927e-05
7.63153e-05
7.67189e-05
7.71377e-05
7.75715e-05
7.80203e-05
7.84839e-05
7.8962e-05
7.94543e-05
7.99603e-05
8.04791e-05
8.10096e-05
8.15504e-05
8.21002e-05
8.26574e-05
8.3221e-05
8.37898e-05
8.43634e-05
8.49413e-05
8.55233e-05
8.61092e-05
8.66989e-05
8.72921e-05
8.78888e-05
8.84888e-05
8.90919e-05
8.9698e-05
9.03069e-05
9.09185e-05
9.15324e-05
9.21486e-05
9.27665e-05
9.33858e-05
9.40061e-05
9.46269e-05
9.52476e-05
9.58676e-05
9.64861e-05
9.71023e-05
9.77154e-05
9.83244e-05
9.89281e-05
9.95256e-05
0.000100115
0.000100696
0.000101267
0.000101826
0.000102371
0.000102901
0.000103414
0.000103908
0.000104382
0.000104833
0.000105259
0.000105659
0.000106031
0.000106371
0.00010668
0.000106954
0.000107193
0.000107394
0.000107557
0.000107681
0.000107764
0.000107821
0.000107869
7.12151e-05
7.1212e-05
7.12047e-05
7.11935e-05
7.118e-05
7.11658e-05
7.11524e-05
7.11414e-05
7.11346e-05
7.11336e-05
7.11401e-05
7.11556e-05
7.11815e-05
7.12191e-05
7.12694e-05
7.13333e-05
7.14115e-05
7.15047e-05
7.16133e-05
7.17377e-05
7.18782e-05
7.2035e-05
7.22081e-05
7.23976e-05
7.26036e-05
7.2826e-05
7.30648e-05
7.33199e-05
7.35911e-05
7.38784e-05
7.41816e-05
7.45006e-05
7.48353e-05
7.51854e-05
7.55508e-05
7.59315e-05
7.63272e-05
7.67377e-05
7.71631e-05
7.76031e-05
7.80576e-05
7.85263e-05
7.90089e-05
7.95048e-05
8.00131e-05
8.05327e-05
8.10622e-05
8.16001e-05
8.21453e-05
8.26965e-05
8.32531e-05
8.38144e-05
8.43802e-05
8.49504e-05
8.55247e-05
8.6103e-05
8.66851e-05
8.72708e-05
8.78601e-05
8.84526e-05
8.90483e-05
8.96469e-05
9.02484e-05
9.08523e-05
9.14585e-05
9.20666e-05
9.26762e-05
9.3287e-05
9.38983e-05
9.45097e-05
9.51205e-05
9.573e-05
9.63374e-05
9.69419e-05
9.75424e-05
9.8138e-05
9.87275e-05
9.93096e-05
9.98831e-05
0.000100446
0.000100998
0.000101537
0.000102061
0.000102568
0.000103056
0.000103525
0.000103971
0.000104392
0.000104788
0.000105155
0.000105492
0.000105797
0.000106068
0.000106304
0.000106503
0.000106663
0.000106784
0.000106866
0.000106921
0.000106969
7.0774e-05
7.07722e-05
7.07678e-05
7.07614e-05
7.0754e-05
7.07469e-05
7.07414e-05
7.07387e-05
7.07405e-05
7.07481e-05
7.07629e-05
7.07863e-05
7.08195e-05
7.08636e-05
7.09197e-05
7.09884e-05
7.10707e-05
7.1167e-05
7.12778e-05
7.14036e-05
7.15446e-05
7.17011e-05
7.18731e-05
7.20609e-05
7.22644e-05
7.24837e-05
7.27188e-05
7.29695e-05
7.32359e-05
7.35179e-05
7.38153e-05
7.4128e-05
7.44559e-05
7.47989e-05
7.51569e-05
7.55297e-05
7.59172e-05
7.63194e-05
7.67359e-05
7.71668e-05
7.76119e-05
7.80709e-05
7.85434e-05
7.90288e-05
7.95261e-05
8.00342e-05
8.05517e-05
8.10773e-05
8.16097e-05
8.2148e-05
8.26914e-05
8.32396e-05
8.37925e-05
8.43498e-05
8.49114e-05
8.54772e-05
8.60471e-05
8.66207e-05
8.7198e-05
8.77787e-05
8.83627e-05
8.89498e-05
8.95397e-05
9.01323e-05
9.07271e-05
9.1324e-05
9.19226e-05
9.25223e-05
9.31228e-05
9.37234e-05
9.43235e-05
9.49225e-05
9.55195e-05
9.61138e-05
9.67043e-05
9.72901e-05
9.787e-05
9.84428e-05
9.90072e-05
9.95618e-05
0.000100105
0.000100636
0.000101152
0.000101651
0.000102133
0.000102594
0.000103034
0.000103449
0.000103839
0.000104201
0.000104533
0.000104833
0.0001051
0.000105332
0.000105527
0.000105684
0.000105803
0.000105882
0.000105936
0.000105983
7.03353e-05
7.03345e-05
7.03327e-05
7.03302e-05
7.03278e-05
7.03266e-05
7.03276e-05
7.03319e-05
7.03409e-05
7.03557e-05
7.03776e-05
7.04077e-05
7.04471e-05
7.04968e-05
7.05577e-05
7.06307e-05
7.07163e-05
7.08152e-05
7.09278e-05
7.10546e-05
7.11958e-05
7.13517e-05
7.15225e-05
7.17084e-05
7.19093e-05
7.21253e-05
7.23565e-05
7.26028e-05
7.28643e-05
7.31407e-05
7.34321e-05
7.37384e-05
7.40595e-05
7.43952e-05
7.47456e-05
7.51103e-05
7.54895e-05
7.58828e-05
7.62903e-05
7.67118e-05
7.71471e-05
7.7596e-05
7.8058e-05
7.85323e-05
7.90182e-05
7.95143e-05
8.00193e-05
8.05319e-05
8.10509e-05
8.15755e-05
8.21051e-05
8.26394e-05
8.31783e-05
8.37218e-05
8.42698e-05
8.48221e-05
8.53785e-05
8.59389e-05
8.6503e-05
8.70706e-05
8.76416e-05
8.82158e-05
8.87929e-05
8.93727e-05
8.99548e-05
9.05391e-05
9.1125e-05
9.17123e-05
9.23003e-05
9.28885e-05
9.34764e-05
9.40633e-05
9.46483e-05
9.52307e-05
9.58095e-05
9.63838e-05
9.69524e-05
9.75141e-05
9.80677e-05
9.86118e-05
9.91449e-05
9.96654e-05
0.000100172
0.000100662
0.000101135
0.000101588
0.000102019
0.000102427
0.00010281
0.000103165
0.000103491
0.000103786
0.000104047
0.000104274
0.000104465
0.000104618
0.000104732
0.000104808
0.00010486
0.000104907
6.98977e-05
6.98977e-05
6.9898e-05
6.98987e-05
6.99005e-05
6.99041e-05
6.99106e-05
6.99208e-05
6.99358e-05
6.99566e-05
6.99844e-05
7.00201e-05
7.00648e-05
7.01192e-05
7.01843e-05
7.02607e-05
7.03491e-05
7.04501e-05
7.05641e-05
7.06914e-05
7.08326e-05
7.09877e-05
7.1157e-05
7.13406e-05
7.15387e-05
7.17513e-05
7.19785e-05
7.22202e-05
7.24766e-05
7.27474e-05
7.30327e-05
7.33324e-05
7.36464e-05
7.39747e-05
7.43171e-05
7.46736e-05
7.50441e-05
7.54284e-05
7.58265e-05
7.62383e-05
7.66635e-05
7.71019e-05
7.75529e-05
7.80158e-05
7.84897e-05
7.89733e-05
7.94653e-05
7.99643e-05
8.04693e-05
8.09795e-05
8.14944e-05
8.2014e-05
8.25382e-05
8.30669e-05
8.36002e-05
8.41379e-05
8.46798e-05
8.52257e-05
8.57754e-05
8.63287e-05
8.68854e-05
8.74453e-05
8.80082e-05
8.85738e-05
8.91418e-05
8.9712e-05
9.02838e-05
9.08569e-05
9.14309e-05
9.20052e-05
9.25791e-05
9.31521e-05
9.37234e-05
9.42922e-05
9.48575e-05
9.54184e-05
9.59738e-05
9.65226e-05
9.70634e-05
9.7595e-05
9.81159e-05
9.86246e-05
9.91194e-05
9.95987e-05
0.000100061
0.000100503
0.000100925
0.000101324
0.000101697
0.000102044
0.000102362
0.00010265
0.000102905
0.000103125
0.00010331
0.000103458
0.000103569
0.000103641
0.00010369
0.000103736
6.946e-05
6.94608e-05
6.94627e-05
6.9466e-05
6.94713e-05
6.9479e-05
6.94899e-05
6.9505e-05
6.9525e-05
6.95509e-05
6.95836e-05
6.96241e-05
6.96731e-05
6.97314e-05
6.97999e-05
6.98791e-05
6.99698e-05
7.00723e-05
7.01871e-05
7.03147e-05
7.04554e-05
7.06094e-05
7.07769e-05
7.09582e-05
7.11533e-05
7.13623e-05
7.15853e-05
7.18223e-05
7.20733e-05
7.23383e-05
7.26173e-05
7.29102e-05
7.3217e-05
7.35377e-05
7.3872e-05
7.422e-05
7.45815e-05
7.49566e-05
7.5345e-05
7.57467e-05
7.61614e-05
7.65889e-05
7.70285e-05
7.74796e-05
7.79411e-05
7.84117e-05
7.88901e-05
7.93749e-05
7.98652e-05
8.03603e-05
8.08598e-05
8.13638e-05
8.18724e-05
8.23854e-05
8.2903e-05
8.3425e-05
8.39513e-05
8.44816e-05
8.50157e-05
8.55535e-05
8.60946e-05
8.66389e-05
8.71862e-05
8.77361e-05
8.82885e-05
8.88429e-05
8.93991e-05
8.99565e-05
9.05148e-05
9.10733e-05
9.16316e-05
9.21889e-05
9.27446e-05
9.32978e-05
9.38476e-05
9.43932e-05
9.49334e-05
9.54672e-05
9.59932e-05
9.65102e-05
9.70168e-05
9.75115e-05
9.79926e-05
9.84586e-05
9.89077e-05
9.9338e-05
9.97478e-05
0.000100135
0.000100498
0.000100835
0.000101143
0.000101421
0.000101668
0.000101881
0.000102059
0.000102201
0.000102306
0.000102373
0.000102419
0.000102464
6.90213e-05
6.90226e-05
6.9026e-05
6.90315e-05
6.90396e-05
6.90506e-05
6.90653e-05
6.90843e-05
6.91085e-05
6.91386e-05
6.91754e-05
6.92197e-05
6.92723e-05
6.93338e-05
6.9405e-05
6.94865e-05
6.95788e-05
6.96823e-05
6.97977e-05
6.99251e-05
7.0065e-05
7.02175e-05
7.0383e-05
7.05616e-05
7.07535e-05
7.09587e-05
7.11773e-05
7.14093e-05
7.16549e-05
7.19139e-05
7.21865e-05
7.24724e-05
7.27718e-05
7.30845e-05
7.34105e-05
7.37498e-05
7.41021e-05
7.44676e-05
7.4846e-05
7.52373e-05
7.56412e-05
7.60574e-05
7.64853e-05
7.69241e-05
7.73727e-05
7.78297e-05
7.82939e-05
7.8764e-05
7.92389e-05
7.97183e-05
8.02017e-05