/*--------------------------------*- C++ -*----------------------------------*\
| =========                 |                                                 |
| \\      /  F ield         | OpenFOAM: The Open Source CFD Toolbox           |
|  \\    /   O peration     | Version:  4.1                                   |
|   \\  /    A nd           | Web:      www.OpenFOAM.org                      |
|    \\/     M anipulation  |                                                 |
\*---------------------------------------------------------------------------*/
FoamFile
{
    version     2.0;
    format      ascii;
    class       surfaceScalarField;
    location    "95";
    object      phi;
}
// * * * * * * * * * * * * * * * * * * * * * * * * * * * * * * * * * * * * * //

dimensions      [0 3 -1 0 0 0 0];

internalField   nonuniform List<scalar> 
87025
(
1.89906e-05
1.00941e-06
1.72872e-05
1.70342e-06
1.5479e-05
1.80813e-06
1.37335e-05
1.74553e-06
1.21185e-05
1.615e-06
1.06849e-05
1.43363e-06
9.45275e-06
1.23213e-06
8.41647e-06
1.03628e-06
7.55798e-06
8.58492e-07
6.85384e-06
7.04132e-07
6.27924e-06
5.74607e-07
5.81028e-06
4.6896e-07
5.42551e-06
3.84769e-07
5.10659e-06
3.18923e-07
4.83839e-06
2.68198e-07
4.60883e-06
2.29561e-07
4.4085e-06
2.00324e-07
4.23028e-06
1.78218e-07
4.06888e-06
1.614e-07
3.92047e-06
1.48408e-07
3.78236e-06
1.38118e-07
3.65267e-06
1.29686e-07
3.53018e-06
1.22495e-07
3.41407e-06
1.16105e-07
3.30386e-06
1.10214e-07
3.19923e-06
1.04627e-07
3.09999e-06
9.92364e-08
3.00598e-06
9.40144e-08
2.91698e-06
8.89978e-08
2.83271e-06
8.42748e-08
2.75274e-06
7.9963e-08
2.67656e-06
7.61802e-08
2.60355e-06
7.3015e-08
2.53305e-06
7.05026e-08
2.46443e-06
6.86133e-08
2.39717e-06
6.72571e-08
2.33088e-06
6.62991e-08
2.26529e-06
6.55841e-08
2.20033e-06
6.49616e-08
2.13602e-06
6.43075e-08
2.07248e-06
6.3538e-08
2.00987e-06
6.26157e-08
1.94832e-06
6.15481e-08
1.88794e-06
6.03788e-08
1.82877e-06
5.91755e-08
1.77075e-06
5.80163e-08
1.71377e-06
5.69774e-08
1.65765e-06
5.61225e-08
1.60216e-06
5.54941e-08
1.54705e-06
5.51085e-08
1.49209e-06
5.49539e-08
1.4371e-06
5.4994e-08
1.38192e-06
5.51757e-08
1.32648e-06
5.5439e-08
1.27076e-06
5.57268e-08
1.21477e-06
5.59918e-08
1.15857e-06
5.61994e-08
1.10224e-06
5.63271e-08
1.04588e-06
5.63622e-08
9.8958e-07
5.62975e-08
9.33451e-07
5.61293e-08
8.77596e-07
5.58552e-08
8.22123e-07
5.5473e-08
7.67143e-07
5.49802e-08
7.12768e-07
5.43744e-08
6.59115e-07
5.36529e-08
6.06302e-07
5.28128e-08
5.54451e-07
5.18514e-08
5.03685e-07
5.0766e-08
4.54131e-07
4.95541e-08
4.05917e-07
4.82137e-08
3.59174e-07
4.6743e-08
3.14033e-07
4.51408e-08
2.70627e-07
4.34068e-08
2.29085e-07
4.15412e-08
1.8954e-07
3.95454e-08
1.52118e-07
3.74217e-08
1.16945e-07
3.51737e-08
8.41383e-08
3.28063e-08
5.38123e-08
3.03259e-08
2.6072e-08
2.77403e-08
1.01448e-09
2.50576e-08
-2.12828e-08
2.22973e-08
-4.0792e-08
1.95092e-08
-5.7442e-08
1.665e-08
-7.12082e-08
1.37662e-08
-8.21035e-08
1.08952e-08
-9.01555e-08
8.05205e-09
-9.5433e-08
5.27752e-09
-9.80625e-08
2.62947e-09
-9.83119e-08
2.49414e-10
-9.62595e-08
-2.05238e-09
-9.22864e-08
-3.97312e-09
-8.69676e-08
-5.31879e-09
-8.10115e-08
-5.95617e-09
-7.49652e-08
-6.04633e-09
-6.79908e-08
-6.97438e-09
-5.57218e-08
-1.2269e-08
-3.09891e-08
-2.47327e-08
-3.09891e-08
2.06193e-05
3.90143e-07
2.12419e-05
1.08078e-06
2.15549e-05
1.4951e-06
2.15648e-05
1.7357e-06
2.13129e-05
1.86691e-06
2.08515e-05
1.89498e-06
2.02441e-05
1.83953e-06
1.95482e-05
1.73217e-06
1.88084e-05
1.59828e-06
1.8058e-05
1.4546e-06
1.73203e-05
1.3123e-06
1.66105e-05
1.1787e-06
1.59374e-05
1.05784e-06
1.53051e-05
9.51247e-07
1.47145e-05
8.58775e-07
1.41648e-05
7.79356e-07
1.36536e-05
7.11429e-07
1.31786e-05
6.53301e-07
1.27366e-05
6.03337e-07
1.2325e-05
5.60035e-07
1.1941e-05
5.22087e-07
1.15823e-05
4.88396e-07
1.12467e-05
4.58074e-07
1.09324e-05
4.30421e-07
1.06377e-05
4.04918e-07
1.03611e-05
3.81207e-07
1.01013e-05
3.59087e-07
9.8568e-06
3.38506e-07
9.62626e-06
3.19541e-07
9.40817e-06
3.0237e-07
9.20091e-06
2.87219e-07
9.00279e-06
2.74297e-07
8.81209e-06
2.63722e-07
8.62712e-06
2.55472e-07
8.44639e-06
2.49344e-07
8.26868e-06
2.44964e-07
8.09315e-06
2.41825e-07
7.91938e-06
2.39355e-07
7.74734e-06
2.37005e-07
7.57731e-06
2.34331e-07
7.40979e-06
2.31059e-07
7.2453e-06
2.27113e-07
7.08423e-06
2.2261e-07
6.9268e-06
2.17814e-07
6.77291e-06
2.13067e-07
6.6222e-06
2.08721e-07
6.47411e-06
2.05072e-07
6.32791e-06
2.02321e-07
6.18285e-06
2.00555e-07
6.03821e-06
1.99748e-07
5.89338e-06
1.9978e-07
5.74791e-06
2.00472e-07
5.60146e-06
2.0162e-07
5.45388e-06
2.03021e-07
5.3051e-06
2.04507e-07
5.15514e-06
2.05946e-07
5.00409e-06
2.07252e-07
4.85205e-06
2.08369e-07
4.69915e-06
2.09266e-07
4.54552e-06
2.09927e-07
4.39131e-06
2.10338e-07
4.23667e-06
2.1049e-07
4.08177e-06
2.10372e-07
3.92678e-06
2.09973e-07
3.77187e-06
2.0928e-07
3.61725e-06
2.08282e-07
3.46309e-06
2.06965e-07
3.30963e-06
2.05318e-07
3.15706e-06
2.03328e-07
3.00563e-06
2.00985e-07
2.85557e-06
1.98278e-07
2.70711e-06
1.95199e-07
2.56051e-06
1.91741e-07
2.41602e-06
1.879e-07
2.27389e-06
1.83675e-07
2.13436e-06
1.79066e-07
1.99771e-06
1.7408e-07
1.86416e-06
1.68723e-07
1.73395e-06
1.63012e-07
1.60731e-06
1.56963e-07
1.48445e-06
1.50601e-07
1.36555e-06
1.43958e-07
1.25078e-06
1.37075e-07
1.14028e-06
1.30002e-07
1.03415e-06
1.2278e-07
9.32447e-07
1.15473e-07
8.35184e-07
1.08158e-07
7.42321e-07
1.00915e-07
6.53754e-07
9.3844e-08
5.69319e-07
8.70646e-08
4.8884e-07
8.07281e-08
4.11834e-07
7.4954e-08
3.37827e-07
7.00335e-08
2.66219e-07
6.629e-08
1.96325e-07
6.39375e-08
1.27988e-07
6.22906e-08
6.35627e-08
5.74509e-08
1.1883e-08
3.94107e-08
-1.11907e-08
-1.65891e-09
-4.21799e-08
2.01348e-05
2.55385e-07
2.0511e-05
7.04518e-07
2.09618e-05
1.04435e-06
2.14116e-05
1.28585e-06
2.18129e-05
1.4656e-06
2.21187e-05
1.58919e-06
2.23042e-05
1.654e-06
2.23679e-05
1.66854e-06
2.23201e-05
1.64605e-06
2.21767e-05
1.59802e-06
2.19553e-05
1.53371e-06
2.16732e-05
1.46076e-06
2.13461e-05
1.38498e-06
2.0987e-05
1.31034e-06
2.06066e-05
1.2392e-06
2.02132e-05
1.17271e-06
1.98134e-05
1.11126e-06
1.9412e-05
1.05469e-06
1.90127e-05
1.0026e-06
1.86183e-05
9.54414e-07
1.82309e-05
9.09534e-07
1.78519e-05
8.67399e-07
1.74824e-05
8.27531e-07
1.71233e-05
7.89557e-07
1.6775e-05
7.53227e-07
1.64378e-05
7.18423e-07
1.61117e-05
6.85167e-07
1.57966e-05
6.53616e-07
1.54921e-05
6.24055e-07
1.51976e-05
5.96859e-07
1.49124e-05
5.72449e-07
1.46354e-05
5.51216e-07
1.43657e-05
5.33451e-07
1.41019e-05
5.19269e-07
1.38427e-05
5.08554e-07
1.35867e-05
5.00935e-07
1.33328e-05
4.95795e-07
1.30798e-05
4.92317e-07
1.28272e-05
4.8957e-07
1.25749e-05
4.86618e-07
1.23234e-05
4.82641e-07
1.20734e-05
4.77057e-07
1.18264e-05
4.69625e-07
1.15837e-05
4.6049e-07
1.13466e-05
4.5018e-07
1.11158e-05
4.39511e-07
1.08915e-05
4.29433e-07
1.0673e-05
4.20831e-07
1.04592e-05
4.14352e-07
1.02486e-05
4.10295e-07
1.00398e-05
4.08588e-07
9.8314e-06
4.08872e-07
9.6224e-06
4.10624e-07
9.41212e-06
4.133e-07
9.20019e-06
4.16433e-07
8.98646e-06
4.19683e-07
8.77087e-06
4.22837e-07
8.55346e-06
4.25779e-07
8.33428e-06
4.28451e-07
8.11338e-06
4.30822e-07
7.89085e-06
4.32869e-07
7.66677e-06
4.3457e-07
7.44124e-06
4.359e-07
7.21439e-06
4.36831e-07
6.98633e-06
4.37335e-07
6.75723e-06
4.37385e-07
6.52724e-06
4.3695e-07
6.29656e-06
4.36004e-07
6.06537e-06
4.34518e-07
5.83389e-06
4.32467e-07
5.60234e-06
4.29826e-07
5.37096e-06
4.26574e-07
5.14001e-06
4.22691e-07
4.90975e-06
4.18164e-07
4.68044e-06
4.12982e-07
4.45237e-06
4.0714e-07
4.22581e-06
4.00641e-07
4.00104e-06
3.93493e-07
3.77834e-06
3.85713e-07
3.55797e-06
3.77327e-07
3.3402e-06
3.68371e-07
3.12527e-06
3.58893e-07
2.91339e-06
3.48954e-07
2.70476e-06
3.38626e-07
2.49955e-06
3.27991e-07
2.29787e-06
3.17151e-07
2.09981e-06
3.06224e-07
1.90538e-06
2.95343e-07
1.71456e-06
2.84665e-07
1.52725e-06
2.74372e-07
1.34331e-06
2.64676e-07
1.16244e-06
2.5582e-07
9.84336e-07
2.48136e-07
8.08632e-07
2.41994e-07
6.35012e-07
2.37557e-07
4.63747e-07
2.33556e-07
2.97651e-07
2.23547e-07
1.47148e-07
1.89913e-07
3.77115e-08
1.07778e-07
-4.46838e-09
2.00745e-05
1.80842e-07
2.02524e-05
5.26685e-07
2.04855e-05
8.11188e-07
2.07473e-05
1.02407e-06
2.10306e-05
1.18229e-06
2.13212e-05
1.29862e-06
2.15984e-05
1.37684e-06
2.18449e-05
1.42199e-06
2.20494e-05
1.44158e-06
2.22051e-05
1.44233e-06
2.23094e-05
1.42935e-06
2.23633e-05
1.40684e-06
2.237e-05
1.37831e-06
2.23339e-05
1.34647e-06
2.22599e-05
1.31322e-06
2.21528e-05
1.27974e-06
2.20174e-05
1.24673e-06
2.18576e-05
1.21449e-06
2.16771e-05
1.18306e-06
2.14792e-05
1.15234e-06
2.12666e-05
1.12214e-06
2.10417e-05
1.09225e-06
2.08068e-05
1.06251e-06
2.05635e-05
1.03281e-06
2.03136e-05
1.00315e-06
2.00584e-05
9.7362e-07
1.97991e-05
9.44444e-07
1.95368e-05
9.15964e-07
1.92722e-05
8.88634e-07
1.90061e-05
8.62989e-07
1.87389e-05
8.39601e-07
1.84711e-05
8.19021e-07
1.82028e-05
8.01705e-07
1.79342e-05
7.87956e-07
1.76649e-05
7.7786e-07
1.73945e-05
7.71263e-07
1.71226e-05
7.67757e-07
1.68482e-05
7.66704e-07
1.65705e-05
7.67269e-07
1.62886e-05
7.68471e-07
1.6002e-05
7.69232e-07
1.57106e-05
7.68446e-07
1.54152e-05
7.65089e-07
1.51173e-05
7.58385e-07
1.48194e-05
7.48023e-07
1.45246e-05
7.34342e-07
1.42356e-05
7.184e-07
1.39546e-05
7.01826e-07
1.36825e-05
6.86469e-07
1.34189e-05
6.73954e-07
1.31622e-05
6.65299e-07
1.29103e-05
6.60747e-07
1.26611e-05
6.5985e-07
1.24126e-05
6.61731e-07
1.21637e-05
6.65405e-07
1.19133e-05
6.70027e-07
1.16611e-05
6.75005e-07
1.14069e-05
6.80001e-07
1.11505e-05
6.84848e-07
1.08919e-05
6.89477e-07
1.06309e-05
6.93846e-07
1.03675e-05
6.97917e-07
1.01018e-05
7.01646e-07
9.83365e-06
7.04984e-07
9.56311e-06
7.07878e-07
9.29021e-06
7.1028e-07
9.01502e-06
7.12139e-07
8.73762e-06
7.13406e-07
8.4581e-06
7.14034e-07
8.17659e-06
7.13977e-07
7.89323e-06
7.13192e-07
7.60816e-06
7.11637e-07
7.32158e-06
7.09277e-07
7.03366e-06
7.06081e-07
6.74462e-06
7.02022e-07
6.45468e-06
6.97082e-07
6.16407e-06
6.91252e-07
5.87303e-06
6.8453e-07
5.58182e-06
6.76928e-07
5.29068e-06
6.68467e-07
4.99986e-06
6.59185e-07
4.70962e-06
6.49134e-07
4.42019e-06
6.3838e-07
4.13181e-06
6.27012e-07
3.84467e-06
6.15131e-07
3.55896e-06
6.02863e-07
3.27482e-06
5.90355e-07
2.99239e-06
5.77776e-07
2.71174e-06
5.6532e-07
2.4329e-06
5.53212e-07
2.15587e-06
5.41706e-07
1.88059e-06
5.31096e-07
1.607e-06
5.21723e-07
1.33505e-06
5.13943e-07
1.06479e-06
5.07824e-07
7.96729e-07
5.01615e-07
5.33696e-07
4.8658e-07
2.86841e-07
4.36768e-07
8.79872e-08
3.06632e-07
8.35188e-08
2.00411e-05
1.39712e-07
2.01517e-05
4.16129e-07
2.03048e-05
6.58056e-07
2.04774e-05
8.51501e-07
2.06594e-05
1.00031e-06
2.08454e-05
1.11259e-06
2.10291e-05
1.19309e-06
2.1205e-05
1.24613e-06
2.13691e-05
1.27753e-06
2.15183e-05
1.29309e-06
2.16502e-05
1.29741e-06
2.17631e-05
1.29401e-06
2.18557e-05
1.28565e-06
2.19278e-05
1.2744e-06
2.19793e-05
1.26169e-06
2.20107e-05
1.24839e-06
2.20224e-05
1.23499e-06
2.20152e-05
1.22169e-06
2.19898e-05
1.20847e-06
2.19469e-05
1.19522e-06
2.18873e-05
1.18176e-06
2.18116e-05
1.1679e-06
2.17207e-05
1.15348e-06
2.16151e-05
1.13841e-06
2.14955e-05
1.12268e-06
2.13628e-05
1.1064e-06
2.12175e-05
1.08976e-06
2.10603e-05
1.0731e-06
2.08921e-05
1.05685e-06
2.07136e-05
1.04151e-06
2.05255e-05
1.02766e-06
2.03287e-05
1.01585e-06
2.01238e-05
1.00657e-06
1.99116e-05
1.00021e-06
1.96924e-05
9.97012e-07
1.94667e-05
9.97016e-07
1.92344e-05
1.00008e-06
1.89952e-05
1.00588e-06
1.87485e-05
1.01393e-06
1.84934e-05
1.02362e-06
1.82285e-05
1.03413e-06
1.79525e-05
1.04437e-06
1.76647e-05
1.05294e-06
1.73649e-05
1.05816e-06
1.70546e-05
1.05831e-06
1.67368e-05
1.05217e-06
1.64158e-05
1.03945e-06
1.60964e-05
1.02122e-06
1.5783e-05
9.99801e-07
1.54788e-05
9.78227e-07
1.51846e-05
9.59436e-07
1.48999e-05
9.4551e-07
1.46224e-05
9.37274e-07
1.43498e-05
9.34355e-07
1.40796e-05
9.35611e-07
1.381e-05
9.39665e-07
1.35396e-05
9.45319e-07
1.32679e-05
9.51747e-07
1.29943e-05
9.58484e-07
1.27184e-05
9.65306e-07
1.24402e-05
9.72106e-07
1.21593e-05
9.78817e-07
1.18756e-05
9.85365e-07
1.15889e-05
9.91674e-07
1.12991e-05
9.97664e-07
1.10061e-05
1.00326e-06
1.07099e-05
1.00838e-06
1.04103e-05
1.01295e-06
1.01075e-05
1.01691e-06
9.80125e-06
1.02018e-06
9.49173e-06
1.02271e-06
9.17893e-06
1.02443e-06
8.86293e-06
1.02528e-06
8.5438e-06
1.02521e-06
8.22163e-06
1.02418e-06
7.89656e-06
1.02215e-06
7.56873e-06
1.01909e-06
7.23827e-06
1.01498e-06
6.90538e-06
1.00982e-06
6.57023e-06
1.00362e-06
6.23302e-06
9.96395e-07
5.89396e-06
9.88197e-07
5.55325e-06
9.79086e-07
5.21112e-06
9.69143e-07
4.86778e-06
9.58474e-07
4.52343e-06
9.47209e-07
4.17828e-06
9.35502e-07
3.83253e-06
9.23534e-07
3.48633e-06
9.11515e-07
3.13986e-06
8.99683e-07
2.79326e-06
8.88305e-07
2.44668e-06
8.77678e-07
2.10027e-06
8.68127e-07
1.75426e-06
8.59961e-07
1.40894e-06
8.53142e-07
1.06504e-06
8.45518e-07
7.25415e-07
8.262e-07
4.01875e-07
7.60308e-07
1.317e-07
5.76807e-07
2.15218e-07
2.00256e-05
1.14148e-07
2.01006e-05
3.41082e-07
2.02113e-05
5.47416e-07
2.0341e-05
7.21769e-07
2.04784e-05
8.62855e-07
2.06167e-05
9.74316e-07
2.07504e-05
1.05941e-06
2.08755e-05
1.12106e-06
2.09899e-05
1.1631e-06
2.10931e-05
1.18992e-06
2.1185e-05
1.20547e-06
2.1266e-05
1.21297e-06
2.13367e-05
1.21501e-06
2.13974e-05
1.21366e-06
2.14487e-05
1.21041e-06
2.14908e-05
1.20628e-06
2.15239e-05
1.20189e-06
2.1548e-05
1.19757e-06
2.1563e-05
1.19346e-06
2.15687e-05
1.18952e-06
2.15648e-05
1.18568e-06
2.15509e-05
1.18178e-06
2.15267e-05
1.17769e-06
2.14918e-05
1.17333e-06
2.14458e-05
1.16864e-06
2.13886e-05
1.16368e-06
2.13197e-05
1.15857e-06
2.12393e-05
1.15354e-06
2.11472e-05
1.1489e-06
2.10437e-05
1.14504e-06
2.0929e-05
1.14238e-06
2.08035e-05
1.14139e-06
2.06675e-05
1.14248e-06
2.05217e-05
1.14602e-06
2.03665e-05
1.15226e-06
2.02022e-05
1.16134e-06
2.00289e-05
1.1733e-06
1.98467e-05
1.18807e-06
1.96551e-05
1.20554e-06
1.94532e-05
1.22555e-06
1.92395e-05
1.24785e-06
1.9012e-05
1.27185e-06
1.87686e-05
1.29639e-06
1.85073e-05
1.31946e-06
1.82273e-05
1.33829e-06
1.79297e-05
1.34979e-06
1.76176e-05
1.35149e-06
1.72963e-05
1.34252e-06
1.6972e-05
1.32415e-06
1.66505e-05
1.29973e-06
1.63362e-05
1.27371e-06
1.60313e-05
1.25043e-06
1.57357e-05
1.23289e-06
1.54477e-05
1.2223e-06
1.51651e-05
1.21827e-06
1.48854e-05
1.21937e-06
1.46067e-05
1.22396e-06
1.43278e-05
1.23066e-06
1.40478e-05
1.23854e-06
1.3766e-05
1.24708e-06
1.3482e-05
1.25604e-06
1.31956e-05
1.26526e-06
1.29063e-05
1.27463e-06
1.2614e-05
1.28403e-06
1.23183e-05
1.29336e-06
1.2019e-05
1.3025e-06
1.17161e-05
1.31135e-06
1.14092e-05
1.31981e-06
1.10983e-05
1.32779e-06
1.07833e-05
1.3352e-06
1.04641e-05
1.34195e-06
1.01405e-05
1.34796e-06
9.81268e-06
1.35315e-06
9.48045e-06
1.35745e-06
9.14383e-06
1.3608e-06
8.80285e-06
1.36313e-06
8.45754e-06
1.3644e-06
8.10795e-06
1.36457e-06
7.75415e-06
1.36362e-06
7.39624e-06
1.36153e-06
7.03433e-06
1.3583e-06
6.66856e-06
1.35397e-06
6.29907e-06
1.34857e-06
5.92604e-06
1.34217e-06
5.54965e-06
1.33487e-06
5.17009e-06
1.32677e-06
4.78758e-06
1.31802e-06
4.40232e-06
1.30879e-06
4.01457e-06
1.29927e-06
3.62454e-06
1.28971e-06
3.23251e-06
1.28034e-06
2.83875e-06
1.27144e-06
2.44359e-06
1.26329e-06
2.0474e-06
1.25615e-06
1.65067e-06
1.24987e-06
1.25425e-06
1.24193e-06
8.61159e-07
1.2193e-06
4.83848e-07
1.13762e-06
1.63393e-07
8.97262e-07
3.78611e-07
2.00179e-05
9.62649e-08
2.0071e-05
2.8793e-07
2.0152e-05
4.6645e-07
2.02504e-05
6.23375e-07
2.03575e-05
7.55793e-07
2.0467e-05
8.64776e-07
2.05741e-05
9.52306e-07
2.06748e-05
1.02039e-06
2.07663e-05
1.07156e-06
2.08474e-05
1.10884e-06
2.09176e-05
1.13523e-06
2.09773e-05
1.15332e-06
2.1027e-05
1.16532e-06
2.10676e-05
1.17306e-06
2.11e-05
1.17799e-06
2.11251e-05
1.18118e-06
2.11436e-05
1.1834e-06
2.1156e-05
1.18516e-06
2.11627e-05
1.18677e-06
2.11638e-05
1.1884e-06
2.11594e-05
1.19012e-06
2.11492e-05
1.19194e-06
2.1133e-05
1.19386e-06
2.11105e-05
1.19587e-06
2.10811e-05
1.19798e-06
2.10446e-05
1.20027e-06
2.10003e-05
1.20285e-06
2.09479e-05
1.2059e-06
2.08871e-05
1.20967e-06
2.08177e-05
1.21444e-06
2.07396e-05
1.22054e-06
2.06527e-05
1.22832e-06
2.0557e-05
1.2381e-06
2.04529e-05
1.25018e-06
2.03404e-05
1.26478e-06
2.02196e-05
1.28207e-06
2.00908e-05
1.30216e-06
1.99537e-05
1.32515e-06
1.9808e-05
1.35119e-06
1.9653e-05
1.38057e-06
1.94872e-05
1.41364e-06
1.93086e-05
1.45052e-06
1.91142e-05
1.4907e-06
1.89013e-05
1.53242e-06
1.86671e-05
1.57247e-06
1.84105e-05
1.60639e-06
1.81325e-05
1.62953e-06
1.78365e-05
1.63847e-06
1.75282e-05
1.63243e-06
1.72142e-05
1.61374e-06
1.69006e-05
1.58732e-06
1.65919e-05
1.55912e-06
1.62904e-05
1.53441e-06
1.59962e-05
1.5165e-06
1.57081e-05
1.5064e-06
1.54241e-05
1.50336e-06
1.51423e-05
1.5057e-06
1.48613e-05
1.5117e-06
1.45798e-05
1.52002e-06
1.42971e-05
1.52979e-06
1.40126e-05
1.54055e-06
1.37258e-05
1.55205e-06
1.34363e-05
1.56409e-06
1.31438e-05
1.57652e-06
1.2848e-05
1.5892e-06
1.25485e-05
1.60197e-06
1.22452e-05
1.6147e-06
1.19377e-05
1.62727e-06
1.1626e-05
1.63957e-06
1.13097e-05
1.65148e-06
1.09887e-05
1.6629e-06
1.0663e-05
1.67373e-06
1.03322e-05
1.68387e-06
9.99644e-06
1.69324e-06
9.65549e-06
1.70175e-06
9.30931e-06
1.70932e-06
8.95783e-06
1.71588e-06
8.60103e-06
1.72138e-06
8.23889e-06
1.72576e-06
7.87141e-06
1.729e-06
7.49864e-06
1.73108e-06
7.12062e-06
1.73199e-06
6.73743e-06
1.73176e-06
6.34919e-06
1.73042e-06
5.95602e-06
1.72804e-06
5.55808e-06
1.72471e-06
5.15556e-06
1.72054e-06
4.74866e-06
1.71568e-06
4.33764e-06
1.71029e-06
3.92277e-06
1.70458e-06
3.50435e-06
1.69875e-06
3.08275e-06
1.69304e-06
2.65837e-06
1.68767e-06
2.23168e-06
1.68284e-06
1.80326e-06
1.6783e-06
1.37405e-06
1.67114e-06
9.47239e-07
1.64611e-06
5.35924e-07
1.54893e-06
1.83726e-07
1.24946e-06
5.62337e-07
2.0013e-05
8.3295e-08
2.00516e-05
2.49311e-07
2.01117e-05
4.06385e-07
2.01867e-05
5.48349e-07
2.02703e-05
6.72154e-07
2.03575e-05
7.7759e-07
2.04442e-05
8.65652e-07
2.05269e-05
9.37672e-07
2.06031e-05
9.95354e-07
2.06711e-05
1.0408e-06
2.07301e-05
1.07621e-06
2.07798e-05
1.10364e-06
2.08203e-05
1.12487e-06
2.08519e-05
1.14143e-06
2.08753e-05
1.15461e-06
2.08911e-05
1.16539e-06
2.08999e-05
1.17456e-06
2.09024e-05
1.18268e-06
2.0899e-05
1.19015e-06
2.08902e-05
1.19725e-06
2.08761e-05
1.20417e-06
2.0857e-05
1.21105e-06
2.08329e-05
1.21798e-06
2.08037e-05
1.22505e-06
2.07693e-05
1.23236e-06
2.07296e-05
1.24003e-06
2.06842e-05
1.24821e-06
2.0633e-05
1.2571e-06
2.05758e-05
1.26692e-06
2.05123e-05
1.27792e-06
2.04424e-05
1.29038e-06
2.03662e-05
1.30459e-06
2.02835e-05
1.32081e-06
2.01943e-05
1.3393e-06
2.00989e-05
1.36026e-06
1.99971e-05
1.38386e-06
1.9889e-05
1.41024e-06
1.97745e-05
1.4396e-06
1.96534e-05
1.47231e-06
1.9525e-05
1.50899e-06
1.93881e-05
1.55053e-06
1.92409e-05
1.59777e-06
1.90806e-05
1.65092e-06
1.89042e-05
1.70884e-06
1.87083e-05
1.76834e-06
1.84905e-05
1.82423e-06
1.82499e-05
1.87018e-06
1.79878e-05
1.90052e-06
1.77081e-05
1.91209e-06
1.74163e-05
1.90557e-06
1.71183e-05
1.88533e-06
1.68194e-05
1.85806e-06
1.65231e-05
1.83063e-06
1.62314e-05
1.80827e-06
1.59442e-05
1.79363e-06
1.56605e-05
1.78698e-06
1.53792e-05
1.78708e-06
1.50987e-05
1.79217e-06
1.4818e-05
1.80066e-06
1.45364e-05
1.81145e-06
1.42531e-05
1.82386e-06
1.39676e-05
1.83751e-06
1.36796e-05
1.85214e-06
1.33885e-05
1.86755e-06
1.30942e-05
1.88354e-06
1.27962e-05
1.89994e-06
1.24943e-05
1.9166e-06
1.21882e-05
1.93335e-06
1.18777e-05
1.95007e-06
1.15626e-05
1.96664e-06
1.12426e-05
1.98292e-06
1.09175e-05
1.9988e-06
1.05872e-05
2.01417e-06
1.02515e-05
2.02893e-06
9.91026e-06
2.04298e-06
9.56335e-06
2.05622e-06
9.21066e-06
2.06857e-06
8.85208e-06
2.07995e-06
8.48755e-06
2.09029e-06
8.11701e-06
2.09954e-06
7.74043e-06
2.10766e-06
7.35781e-06
2.11462e-06
6.96916e-06
2.12041e-06
6.57453e-06
2.12504e-06
6.17402e-06
2.12855e-06
5.76772e-06
2.131e-06
5.3558e-06
2.13246e-06
4.93845e-06
2.13304e-06
4.51588e-06
2.13286e-06
4.08839e-06
2.13207e-06
3.65629e-06
2.13085e-06
3.21997e-06
2.12936e-06
2.77986e-06
2.12778e-06
2.33647e-06
2.12623e-06
1.89039e-06
2.12438e-06
1.44262e-06
2.11891e-06
9.96515e-07
2.09221e-06
5.6569e-07
1.97976e-06
1.95391e-07
1.61976e-06
7.57728e-07
2.00096e-05
7.36745e-08
2.00384e-05
2.20575e-07
2.00837e-05
3.61078e-07
2.01414e-05
4.90656e-07
2.02069e-05
6.06633e-07
2.02762e-05
7.0825e-07
2.0346e-05
7.95827e-07
2.04136e-05
8.7015e-07
2.04766e-05
9.32354e-07
2.05335e-05
9.83901e-07
2.05833e-05
1.02641e-06
2.06254e-05
1.06148e-06
2.06597e-05
1.09055e-06
2.06863e-05
1.1149e-06
2.07053e-05
1.13563e-06
2.0717e-05
1.15363e-06
2.07219e-05
1.16964e-06
2.07204e-05
1.18422e-06
2.07128e-05
1.19779e-06
2.06993e-05
1.21069e-06
2.06803e-05
1.22315e-06
2.0656e-05
1.23539e-06
2.06264e-05
1.24755e-06
2.05917e-05
1.25979e-06
2.05518e-05
1.27224e-06
2.05068e-05
1.28507e-06
2.04565e-05
1.29846e-06
2.0401e-05
1.3126e-06
2.03402e-05
1.32772e-06
2.02741e-05
1.34406e-06
2.02026e-05
1.36187e-06
2.01258e-05
1.3814e-06
2.00437e-05
1.40291e-06
1.99564e-05
1.42661e-06
1.98639e-05
1.45271e-06
1.97664e-05
1.48137e-06
1.96639e-05
1.51276e-06
1.95563e-05
1.54717e-06
1.94435e-05
1.58512e-06
1.9325e-05
1.62753e-06
1.91998e-05
1.67571e-06
1.90665e-05
1.73111e-06
1.89228e-05
1.79462e-06
1.87659e-05
1.86567e-06
1.85929e-05
1.94135e-06
1.8401e-05
2.01613e-06
1.81885e-05
2.08268e-06
1.79554e-05
2.13362e-06
1.77037e-05
2.16384e-06
1.7437e-05
2.17227e-06
1.716e-05
2.16229e-06
1.68775e-05
2.14057e-06
1.65933e-05
2.11485e-06
1.63098e-05
2.09172e-06
1.60282e-05
2.07523e-06
1.57485e-05
2.06672e-06
1.547e-05
2.06559e-06
1.51918e-05
2.0703e-06
1.49132e-05
2.07926e-06
1.46335e-05
2.09122e-06
1.43519e-05
2.10539e-06
1.40682e-05
2.12128e-06
1.37817e-05
2.13857e-06
1.34923e-05
2.157e-06
1.31995e-05
2.17636e-06
1.2903e-05
2.19644e-06
1.26025e-05
2.21707e-06
1.22978e-05
2.23807e-06
1.19886e-05
2.25928e-06
1.16746e-05
2.28057e-06
1.13557e-05
2.30181e-06
1.10317e-05
2.32285e-06
1.07023e-05
2.34358e-06
1.03673e-05
2.36389e-06
1.00267e-05
2.38365e-06
9.68013e-06
2.40276e-06
9.32758e-06
2.42112e-06
8.96889e-06
2.43864e-06
8.60396e-06
2.45522e-06
8.2327e-06
2.47081e-06
7.85503e-06
2.48532e-06
7.47093e-06
2.49872e-06
7.08038e-06
2.51096e-06
6.68338e-06
2.52204e-06
6.27999e-06
2.53194e-06
5.8703e-06
2.5407e-06
5.45441e-06
2.54834e-06
5.03251e-06
2.55494e-06
4.60481e-06
2.56056e-06
4.17156e-06
2.56532e-06
3.73308e-06
2.56932e-06
3.28976e-06
2.57268e-06
2.84203e-06
2.57551e-06
2.39039e-06
2.57787e-06
1.93543e-06
2.57934e-06
1.47817e-06
2.57617e-06
1.02207e-06
2.54832e-06
5.8109e-07
2.42074e-06
2.0143e-07
1.99942e-06
9.59158e-07
2.00073e-05
6.63992e-08
2.0029e-05
1.98807e-07
2.00637e-05
3.26461e-07
2.01083e-05
4.45992e-07
2.01598e-05
5.55182e-07
2.02149e-05
6.531e-07
2.02711e-05
7.39667e-07
2.0326e-05
8.15279e-07
2.03776e-05
8.80664e-07
2.04247e-05
9.36831e-07
2.04662e-05
9.84963e-07
2.05014e-05
1.02628e-06
2.053e-05
1.06194e-06
2.05519e-05
1.093e-06
2.05671e-05
1.1204e-06
2.05758e-05
1.14493e-06
2.05782e-05
1.16727e-06
2.05744e-05
1.18796e-06
2.05648e-05
1.20743e-06
2.05494e-05
1.22604e-06
2.05285e-05
1.24405e-06
2.05022e-05
1.26171e-06
2.04706e-05
1.2792e-06
2.04336e-05
1.2967e-06
2.03915e-05
1.31439e-06
2.03441e-05
1.33245e-06
2.02915e-05
1.35105e-06
2.02337e-05
1.3704e-06
2.01707e-05
1.39072e-06
2.01026e-05
1.41222e-06
2.00293e-05
1.43515e-06
1.9951e-05
1.45973e-06
1.98677e-05
1.4862e-06
1.97795e-05
1.51476e-06
1.96866e-05
1.5456e-06
1.95891e-05
1.5789e-06
1.9487e-05
1.61485e-06
1.93804e-05
1.6538e-06
1.9269e-05
1.69644e-06
1.91527e-05
1.74392e-06
1.90304e-05
1.79793e-06
1.89012e-05
1.86039e-06
1.87631e-05
1.93271e-06
1.8614e-05
2.01477e-06
1.84514e-05
2.10388e-06
1.82732e-05
2.19439e-06
1.80775e-05
2.27833e-06
1.78639e-05
2.34723e-06
1.76332e-05
2.39459e-06
1.73875e-05
2.41796e-06
1.71301e-05
2.41971e-06
1.68645e-05
2.40614e-06
1.65941e-05
2.38528e-06
1.63213e-05
2.3645e-06
1.60477e-05
2.34884e-06
1.57739e-05
2.34055e-06
1.54998e-05
2.33965e-06
1.52251e-05
2.34498e-06
1.49493e-05
2.35505e-06
1.46719e-05
2.36863e-06
1.43924e-05
2.38489e-06
1.41104e-05
2.40327e-06
1.38256e-05
2.42341e-06
1.35375e-05
2.44505e-06
1.3246e-05
2.46792e-06
1.29506e-05
2.4918e-06
1.26512e-05
2.51651e-06
1.23474e-05
2.54185e-06
1.2039e-05
2.56765e-06
1.17259e-05
2.59376e-06
1.14076e-05
2.62004e-06
1.10841e-05
2.64634e-06
1.07552e-05
2.67252e-06
1.04206e-05
2.69846e-06
1.00802e-05
2.72404e-06
9.73387e-06
2.74913e-06
9.38137e-06
2.77362e-06
9.02261e-06
2.7974e-06
8.65748e-06
2.82036e-06
8.28586e-06
2.84242e-06
7.90769e-06
2.86349e-06
7.5229e-06
2.8835e-06
7.13148e-06
2.90239e-06
6.73342e-06
2.9201e-06
6.32875e-06
2.93661e-06
5.91755e-06
2.9519e-06
5.49993e-06
2.96597e-06
5.07603e-06
2.97884e-06
4.64606e-06
2.99053e-06
4.21027e-06
3.00111e-06
3.76898e-06
3.01061e-06
3.32255e-06
3.01911e-06
2.8714e-06
3.02666e-06
2.41601e-06
3.03326e-06
1.95696e-06
3.03839e-06
1.49526e-06
3.03787e-06
1.03442e-06
3.00916e-06
5.8858e-07
2.86657e-06
2.04392e-07
2.38361e-06
1.16355e-06
2.00056e-05
6.08263e-08
2.00223e-05
1.8212e-07
2.00489e-05
2.99773e-07
2.00837e-05
4.11233e-07
2.01242e-05
5.147e-07
2.0168e-05
6.09249e-07
2.02131e-05
6.946e-07
2.02575e-05
7.70886e-07
2.02996e-05
8.38549e-07
2.03382e-05
8.98275e-07
2.03722e-05
9.50919e-07
2.04011e-05
9.97404e-07
2.04244e-05
1.03865e-06
2.04419e-05
1.07552e-06
2.04534e-05
1.10881e-06
2.04592e-05
1.13922e-06
2.04591e-05
1.16735e-06
2.04533e-05
1.19372e-06
2.0442e-05
1.21874e-06
2.04253e-05
1.24278e-06
2.04032e-05
1.26613e-06
2.03759e-05
1.28904e-06
2.03433e-05
1.31173e-06
2.03056e-05
1.33439e-06
2.02628e-05
1.35723e-06
2.02148e-05
1.38041e-06
2.01617e-05
1.40414e-06
2.01035e-05
1.42862e-06
2.00402e-05
1.45404e-06
1.99718e-05
1.48062e-06
1.98984e-05
1.50857e-06
1.982e-05
1.5381e-06
1.97368e-05
1.56945e-06
1.96488e-05
1.60279e-06
1.95561e-05
1.6383e-06
1.94588e-05
1.67617e-06
1.9357e-05
1.71661e-06
1.92508e-05
1.76004e-06
1.91399e-05
1.80728e-06
1.90241e-05
1.85973e-06
1.89027e-05
1.91941e-06
1.87744e-05
1.98863e-06
1.86379e-05
2.06919e-06
1.84914e-05
2.16126e-06
1.83331e-05
2.26224e-06
1.81612e-05
2.36632e-06
1.79744e-05
2.46507e-06
1.77723e-05
2.54932e-06
1.75553e-05
2.61165e-06
1.73245e-05
2.64867e-06
1.70823e-05
2.66199e-06
1.68309e-05
2.65747e-06
1.65731e-05
2.64315e-06
1.63108e-05
2.6268e-06
1.60456e-05
2.61404e-06
1.57784e-05
2.60776e-06
1.55095e-05
2.60854e-06
1.52389e-05
2.61555e-06
1.49664e-05
2.62753e-06
1.46917e-05
2.64333e-06
1.44145e-05
2.66211e-06
1.41344e-05
2.68334e-06
1.38512e-05
2.70664e-06
1.35645e-05
2.73171e-06
1.32741e-05
2.7583e-06
1.29798e-05
2.78618e-06
1.26811e-05
2.81513e-06
1.2378e-05
2.84495e-06
1.20702e-05
2.87548e-06
1.17574e-05
2.90654e-06
1.14395e-05
2.93797e-06
1.11162e-05
2.96964e-06
1.07873e-05
3.00138e-06
1.04527e-05
3.03307e-06
1.01122e-05
3.06456e-06
9.76562e-06
3.09573e-06
9.41279e-06
3.12644e-06
9.05361e-06
3.15657e-06
8.68796e-06
3.18601e-06
8.31575e-06
3.21464e-06
7.93688e-06
3.24236e-06
7.55132e-06
3.26906e-06
7.15904e-06
3.29467e-06
6.76004e-06
3.3191e-06
6.35435e-06
3.3423e-06
5.94205e-06
3.3642e-06
5.52324e-06
3.38477e-06
5.09809e-06
3.40399e-06
4.66679e-06
3.42183e-06
4.22959e-06
3.4383e-06
3.78681e-06
3.4534e-06
3.33879e-06
3.46713e-06
2.88595e-06
3.4795e-06
2.42876e-06
3.49045e-06
1.96777e-06
3.49938e-06
1.50397e-06
3.50167e-06
1.04088e-06
3.47225e-06
5.92647e-07
3.3148e-06
2.06063e-07
2.77019e-06
1.36961e-06
2.00043e-05
5.65239e-08
2.00172e-05
1.6923e-07
2.00379e-05
2.79075e-07
2.0065e-05
3.84092e-07
2.00969e-05
4.82831e-07
2.01317e-05
5.7445e-07
2.01677e-05
6.58578e-07
2.02034e-05
7.35191e-07
2.02374e-05
8.0453e-07
2.02687e-05
8.67051e-07
2.02962e-05
9.23368e-07
2.03194e-05
9.74176e-07
2.03379e-05
1.0202e-06
2.03513e-05
1.06214e-06
2.03594e-05
1.10066e-06
2.03623e-05
1.13636e-06
2.03598e-05
1.16979e-06
2.03521e-05
1.20142e-06
2.03392e-05
1.23165e-06
2.03212e-05
1.26083e-06
2.02981e-05
1.28926e-06
2.02699e-05
1.3172e-06
2.02367e-05
1.34488e-06
2.01986e-05
1.37252e-06
2.01555e-05
1.40031e-06
2.01075e-05
1.42845e-06
2.00545e-05
1.45713e-06
1.99966e-05
1.48655e-06
1.99337e-05
1.5169e-06
1.98659e-05
1.54839e-06
1.97933e-05
1.58122e-06
1.97158e-05
1.61558e-06
1.96336e-05
1.65168e-06
1.95466e-05
1.68972e-06
1.94551e-05
1.72984e-06
1.9359e-05
1.77224e-06
1.92585e-05
1.81716e-06
1.91535e-05
1.86507e-06
1.90438e-05
1.91692e-06
1.89292e-05
1.97437e-06
1.88088e-05
2.03975e-06
1.86817e-05
2.11572e-06
1.85465e-05
2.20442e-06
1.84016e-05
2.30617e-06
1.82455e-05
2.41835e-06
1.80769e-05
2.53488e-06
1.78951e-05
2.6469e-06
1.76997e-05
2.74467e-06
1.74912e-05
2.82017e-06
1.72705e-05
2.86939e-06
1.7039e-05
2.89347e-06
1.67985e-05
2.89796e-06
1.65508e-05
2.89083e-06
1.62976e-05
2.88e-06
1.60402e-05
2.87146e-06
1.57795e-05
2.86851e-06
1.55159e-05
2.87213e-06
1.52496e-05
2.88179e-06
1.49807e-05
2.89644e-06
1.4709e-05
2.91504e-06
1.44343e-05
2.93684e-06
1.41563e-05
2.9613e-06
1.38749e-05
2.98808e-06
1.35897e-05
3.01687e-06
1.33006e-05
3.04742e-06
1.30073e-05
3.0795e-06
1.27095e-05
3.11289e-06
1.24071e-05
3.14738e-06
1.20998e-05
3.18279e-06
1.17874e-05
3.21895e-06
1.14697e-05
3.25569e-06
1.11464e-05
3.29286e-06
1.08175e-05
3.3303e-06
1.04827e-05
3.36787e-06
1.01419e-05
3.4054e-06
9.79484e-06
3.44277e-06
9.44147e-06
3.47982e-06
9.08162e-06
3.51642e-06
8.71521e-06
3.55243e-06
8.34213e-06
3.58772e-06
7.96232e-06
3.62217e-06
7.57573e-06
3.65565e-06
7.18235e-06
3.68805e-06
6.78218e-06
3.71926e-06
6.37529e-06
3.74919e-06
5.96174e-06
3.77775e-06
5.54166e-06
3.80485e-06
5.11521e-06
3.83044e-06
4.68261e-06
3.85444e-06
4.24411e-06
3.87681e-06
3.80001e-06
3.89749e-06
3.35069e-06
3.91646e-06
2.89654e-06
3.93365e-06
2.43803e-06
3.94897e-06
1.97569e-06
3.96172e-06
1.51051e-06
3.96685e-06
1.04594e-06
3.93682e-06
5.96027e-07
3.76471e-06
2.07527e-07
3.15869e-06
1.57714e-06
2.00033e-05
5.31889e-08
2.00133e-05
1.59233e-07
2.00294e-05
2.62976e-07
2.00506e-05
3.62883e-07
2.00757e-05
4.57783e-07
2.01032e-05
5.46938e-07
2.01318e-05
6.29959e-07
2.01603e-05
7.06727e-07
2.01875e-05
7.77351e-07
2.02124e-05
8.42127e-07
2.02343e-05
9.0149e-07
2.02525e-05
9.5596e-07
2.02666e-05
1.0061e-06
2.02762e-05
1.05249e-06
2.02812e-05
1.09567e-06
2.02814e-05
1.13617e-06
2.02767e-05
1.17445e-06
2.02672e-05
1.21096e-06
2.02528e-05
1.24606e-06
2.02336e-05
1.28009e-06
2.02095e-05
1.31334e-06
2.01806e-05
1.34609e-06
2.01469e-05
1.37855e-06
2.01085e-05
1.41096e-06
2.00653e-05
1.44352e-06
2.00173e-05
1.47642e-06
1.99646e-05
1.50986e-06
1.99071e-05
1.54403e-06
1.98449e-05
1.57912e-06
1.97779e-05
1.61533e-06
1.97063e-05