# vtk DataFile Version 2.0
sampleSurface
ASCII
DATASET POLYDATA
POINTS 652 double
0 0 0
0.02 0 0
0.02 0 0.1
0 0 0.1
0.04 0 0
0.04 0 0.1
0.06 0 0
0.06 0 0.1
0.08 0 0
0.08 0 0.1
0.1 0 0
0.1 0 0.1
0.12 0 0
0.12 0 0.1
0.14 0 0
0.14 0 0.1
0.16 0 0
0.16 0 0.1
0.18 0 0
0.18 0 0.1
0.2 0 0
0.2 0 0.1
0.22 0 0
0.22 0 0.1
0.24 0 0
0.24 0 0.1
0.26 0 0
0.26 0 0.1
0.28 0 0
0.28 0 0.1
0.3 0 0
0.3 0 0.1
0.32 0 0
0.32 0 0.1
0.34 0 0
0.34 0 0.1
0.36 0 0
0.36 0 0.1
0.38 0 0
0.38 0 0.1
0.4 0 0
0.4 0 0.1
0.42 0 0
0.42 0 0.1
0.44 0 0
0.44 0 0.1
0.46 0 0
0.46 0 0.1
0.48 0 0
0.48 0 0.1
0.5 0 0
0.5 0 0.1
0.52 0 0
0.52 0 0.1
0.54 0 0
0.54 0 0.1
0.56 0 0
0.56 0 0.1
0.58 0 0
0.58 0 0.1
0.6 0 0
0.6 0 0.1
0.62 0 0
0.62 0 0.1
0.64 0 0
0.64 0 0.1
0.66 0 0
0.66 0 0.1
0.68 0 0
0.68 0 0.1
0.7 0 0
0.7 0 0.1
0.72 0 0
0.72 0 0.1
0.74 0 0
0.74 0 0.1
0.76 0 0
0.76 0 0.1
0.78 0 0
0.78 0 0.1
0.8 0 0
0.8 0 0.1
0.82 0 0
0.82 0 0.1
0.84 0 0
0.84 0 0.1
0.86 0 0
0.86 0 0.1
0.88 0 0
0.88 0 0.1
0.9 0 0
0.9 0 0.1
0.92 0 0
0.92 0 0.1
0.94 0 0
0.94 0 0.1
0.96 0 0
0.96 0 0.1
0.98 0 0
0.98 0 0.1
1 0 0
1 0 0.1
1.02 0 0
1.02 0 0.1
1.04 0 0
1.04 0 0.1
1.06 0 0
1.06 0 0.1
1.08 0 0
1.08 0 0.1
1.1 0 0
1.1 0 0.1
1.12 0 0
1.12 0 0.1
1.14 0 0
1.14 0 0.1
1.16 0 0
1.16 0 0.1
1.18 0 0
1.18 0 0.1
1.2 0 0
1.2 0 0.1
1.22 0 0
1.22 0 0.1
1.24 0 0
1.24 0 0.1
1.26 0 0
1.26 0 0.1
1.28 0 0
1.28 0 0.1
1.3 0 0
1.3 0 0.1
1.32 0 0
1.32 0 0.1
1.34 0 0
1.34 0 0.1
1.36 0 0
1.36 0 0.1
1.38 0 0
1.38 0 0.1
1.4 0 0
1.4 0 0.1
1.42 0 0
1.42 0 0.1
1.44 0 0
1.44 0 0.1
1.46 0 0
1.46 0 0.1
1.48 0 0
1.48 0 0.1
1.5 0 0
1.5 0 0.1
1.52 0 0
1.52 0 0.1
1.54 0 0
1.54 0 0.1
1.56 0 0
1.56 0 0.1
1.58 0 0
1.58 0 0.1
1.6 0 0
1.6 0 0.1
1.62 0 0
1.62 0 0.1
1.64 0 0
1.64 0 0.1
1.66 0 0
1.66 0 0.1
1.68 0 0
1.68 0 0.1
1.7 0 0
1.7 0 0.1
1.72 0 0
1.72 0 0.1
1.74 0 0
1.74 0 0.1
1.76 0 0
1.76 0 0.1
1.78 0 0
1.78 0 0.1
1.8 0 0
1.8 0 0.1
1.82 0 0
1.82 0 0.1
1.84 0 0
1.84 0 0.1
1.86 0 0
1.86 0 0.1
1.88 0 0
1.88 0 0.1
1.9 0 0
1.9 0 0.1
1.92 0 0
1.92 0 0.1
1.94 0 0
1.94 0 0.1
1.96 0 0
1.96 0 0.1
1.98 0 0
1.98 0 0.1
2 0 0
2 0 0.1
2 0.02 0
2 0.02 0.1
2 0.04 0
2 0.04 0.1
2 0.06 0
2 0.06 0.1
2 0.08 0
2 0.08 0.1
2 0.1 0
2 0.1 0.1
2 0.12 0
2 0.12 0.1
2 0.14 0
2 0.14 0.1
2 0.16 0
2 0.16 0.1
2 0.18 0
2 0.18 0.1
2 0.2 0
2 0.2 0.1
2 0.22 0
2 0.22 0.1
2 0.24 0
2 0.24 0.1
2 0.26 0
2 0.26 0.1
2 0.28 0
2 0.28 0.1
2 0.3 0
2 0.3 0.1
2 0.32 0
2 0.32 0.1
2 0.34 0
2 0.34 0.1
2 0.36 0
2 0.36 0.1
2 0.38 0
2 0.38 0.1
2 0.4 0
2 0.4 0.1
2 0.42 0
2 0.42 0.1
2 0.44 0
2 0.44 0.1
2 0.46 0
2 0.46 0.1
2 0.48 0
2 0.48 0.1
2 0.5 0
2 0.5 0.1
2 0.52 0
2 0.52 0.1
2 0.54 0
2 0.54 0.1
2 0.56 0
2 0.56 0.1
2 0.58 0
2 0.58 0.1
2 0.6 0
2 0.6 0.1
2 0.62 0
2 0.62 0.1
2 0.64 0
2 0.64 0.1
2 0.66 0
2 0.66 0.1
2 0.68 0
2 0.68 0.1
2 0.7 0
2 0.7 0.1
2 0.72 0
2 0.72 0.1
2 0.74 0
2 0.74 0.1
2 0.76 0
2 0.76 0.1
2 0.78 0
2 0.78 0.1
2 0.8 0
2 0.8 0.1
2 0.82 0
2 0.82 0.1
2 0.84 0
2 0.84 0.1
2 0.86 0
2 0.86 0.1
2 0.88 0
2 0.88 0.1
2 0.9 0
2 0.9 0.1
2 0.92 0
2 0.92 0.1
2 0.94 0
2 0.94 0.1
2 0.96 0
2 0.96 0.1
2 0.98 0
2 0.98 0.1
2 1 0
2 1 0.1
2.02 1 0
2.02 1 0.1
2.04 1 0
2.04 1 0.1
2.06 1 0
2.06 1 0.1
2.08 1 0
2.08 1 0.1
2.1 1 0
2.1 1 0.1
2.12 1 0
2.12 1 0.1
2.14 1 0
2.14 1 0.1
2.16 1 0
2.16 1 0.1
2.18 1 0
2.18 1 0.1
2.2 1 0
2.2 1 0.1
2.22 1 0
2.22 1 0.1
2.24 1 0
2.24 1 0.1
2.26 1 0
2.26 1 0.1
2.28 1 0
2.28 1 0.1
2.3 1 0
2.3 1 0.1
2.32 1 0
2.32 1 0.1
2.34 1 0
2.34 1 0.1
2.36 1 0
2.36 1 0.1
2.38 1 0
2.38 1 0.1
2.4 1 0
2.4 1 0.1
2.42 1 0
2.42 1 0.1
2.44 1 0
2.44 1 0.1
2.46 1 0
2.46 1 0.1
2.48 1 0
2.48 1 0.1
2.5 1 0
2.5 1 0.1
2.5 0 0
2.5 0 0.1
2.5 0.02 0.1
2.5 0.02 0
2.5 0.04 0.1
2.5 0.04 0
2.5 0.06 0.1
2.5 0.06 0
2.5 0.08 0.1
2.5 0.08 0
2.5 0.1 0.1
2.5 0.1 0
2.5 0.12 0.1
2.5 0.12 0
2.5 0.14 0.1
2.5 0.14 0
2.5 0.16 0.1
2.5 0.16 0
2.5 0.18 0.1
2.5 0.18 0
2.5 0.2 0.1
2.5 0.2 0
2.5 0.22 0.1
2.5 0.22 0
2.5 0.24 0.1
2.5 0.24 0
2.5 0.26 0.1
2.5 0.26 0
2.5 0.28 0.1
2.5 0.28 0
2.5 0.3 0.1
2.5 0.3 0
2.5 0.32 0.1
2.5 0.32 0
2.5 0.34 0.1
2.5 0.34 0
2.5 0.36 0.1
2.5 0.36 0
2.5 0.38 0.1
2.5 0.38 0
2.5 0.4 0.1
2.5 0.4 0
2.5 0.42 0.1
2.5 0.42 0
2.5 0.44 0.1
2.5 0.44 0
2.5 0.46 0.1
2.5 0.46 0
2.5 0.48 0.1
2.5 0.48 0
2.5 0.5 0.1
2.5 0.5 0
2.5 0.52 0.1
2.5 0.52 0
2.5 0.54 0.1
2.5 0.54 0
2.5 0.56 0.1
2.5 0.56 0
2.5 0.58 0.1
2.5 0.58 0
2.5 0.6 0.1
2.5 0.6 0
2.5 0.62 0.1
2.5 0.62 0
2.5 0.64 0.1
2.5 0.64 0
2.5 0.66 0.1
2.5 0.66 0
2.5 0.68 0.1
2.5 0.68 0
2.5 0.7 0.1
2.5 0.7 0
2.5 0.72 0.1
2.5 0.72 0
2.5 0.74 0.1
2.5 0.74 0
2.5 0.76 0.1
2.5 0.76 0
2.5 0.78 0.1
2.5 0.78 0
2.5 0.8 0.1
2.5 0.8 0
2.5 0.82 0.1
2.5 0.82 0
2.5 0.84 0.1
2.5 0.84 0
2.5 0.86 0.1
2.5 0.86 0
2.5 0.88 0.1
2.5 0.88 0
2.5 0.9 0.1
2.5 0.9 0
2.5 0.92 0.1
2.5 0.92 0
2.5 0.94 0.1
2.5 0.94 0
2.5 0.96 0.1
2.5 0.96 0
2.5 0.98 0.1
2.5 0.98 0
2.52 0 0
2.52 0 0.1
2.54 0 0
2.54 0 0.1
2.56 0 0
2.56 0 0.1
2.58 0 0
2.58 0 0.1
2.6 0 0
2.6 0 0.1
2.62 0 0
2.62 0 0.1
2.64 0 0
2.64 0 0.1
2.66 0 0
2.66 0 0.1
2.68 0 0
2.68 0 0.1
2.7 0 0
2.7 0 0.1
2.72 0 0
2.72 0 0.1
2.74 0 0
2.74 0 0.1
2.76 0 0
2.76 0 0.1
2.78 0 0
2.78 0 0.1
2.8 0 0
2.8 0 0.1
2.82 0 0
2.82 0 0.1
2.84 0 0
2.84 0 0.1
2.86 0 0
2.86 0 0.1
2.88 0 0
2.88 0 0.1
2.9 0 0
2.9 0 0.1
2.92 0 0
2.92 0 0.1
2.94 0 0
2.94 0 0.1
2.96 0 0
2.96 0 0.1
2.98 0 0
2.98 0 0.1
3 0 0
3 0 0.1
3.02 0 0
3.02 0 0.1
3.04 0 0
3.04 0 0.1
3.06 0 0
3.06 0 0.1
3.08 0 0
3.08 0 0.1
3.1 0 0
3.1 0 0.1
3.12 0 0
3.12 0 0.1
3.14 0 0
3.14 0 0.1
3.16 0 0
3.16 0 0.1
3.18 0 0
3.18 0 0.1
3.2 0 0
3.2 0 0.1
3.22 0 0
3.22 0 0.1
3.24 0 0
3.24 0 0.1
3.26 0 0
3.26 0 0.1
3.28 0 0
3.28 0 0.1
3.3 0 0
3.3 0 0.1
3.32 0 0
3.32 0 0.1
3.34 0 0
3.34 0 0.1
3.36 0 0
3.36 0 0.1
3.38 0 0
3.38 0 0.1
3.4 0 0
3.4 0 0.1
3.42 0 0
3.42 0 0.1
3.44 0 0
3.44 0 0.1
3.46 0 0
3.46 0 0.1
3.48 0 0
3.48 0 0.1
3.5 0 0
3.5 0 0.1
3.52 0 0
3.52 0 0.1
3.54 0 0
3.54 0 0.1
3.56 0 0
3.56 0 0.1
3.58 0 0
3.58 0 0.1
3.6 0 0
3.6 0 0.1
3.62 0 0
3.62 0 0.1
3.64 0 0
3.64 0 0.1
3.66 0 0
3.66 0 0.1
3.68 0 0
3.68 0 0.1
3.7 0 0
3.7 0 0.1
3.72 0 0
3.72 0 0.1
3.74 0 0
3.74 0 0.1
3.76 0 0
3.76 0 0.1
3.78 0 0
3.78 0 0.1
3.8 0 0
3.8 0 0.1
3.82 0 0
3.82 0 0.1
3.84 0 0
3.84 0 0.1
3.86 0 0
3.86 0 0.1
3.88 0 0
3.88 0 0.1
3.9 0 0
3.9 0 0.1
3.92 0 0
3.92 0 0.1
3.94 0 0
3.94 0 0.1
3.96 0 0
3.96 0 0.1
3.98 0 0
3.98 0 0.1
4 0 0
4 0 0.1
4.02 0 0
4.02 0 0.1
4.04 0 0
4.04 0 0.1
4.06 0 0
4.06 0 0.1
4.08 0 0
4.08 0 0.1
4.1 0 0
4.1 0 0.1
4.12 0 0
4.12 0 0.1
4.14 0 0
4.14 0 0.1
4.16 0 0
4.16 0 0.1
4.18 0 0
4.18 0 0.1
4.2 0 0
4.2 0 0.1
4.22 0 0
4.22 0 0.1
4.24 0 0
4.24 0 0.1
4.26 0 0
4.26 0 0.1
4.28 0 0
4.28 0 0.1
4.3 0 0
4.3 0 0.1
4.32 0 0
4.32 0 0.1
4.34 0 0
4.34 0 0.1
4.36 0 0
4.36 0 0.1
4.38 0 0
4.38 0 0.1
4.4 0 0
4.4 0 0.1
4.42 0 0
4.42 0 0.1
4.44 0 0
4.44 0 0.1
4.46 0 0
4.46 0 0.1
4.48 0 0
4.48 0 0.1
4.5 0 0
4.5 0 0.1

POLYGONS 325 1625
4 0 1 2 3
4 1 4 5 2
4 4 6 7 5
4 6 8 9 7
4 8 10 11 9
4 10 12 13 11
4 12 14 15 13
4 14 16 17 15
4 16 18 19 17
4 18 20 21 19
4 20 22 23 21
4 22 24 25 23
4 24 26 27 25
4 26 28 29 27
4 28 30 31 29
4 30 32 33 31
4 32 34 35 33
4 34 36 37 35
4 36 38 39 37
4 38 40 41 39
4 40 42 43 41
4 42 44 45 43
4 44 46 47 45
4 46 48 49 47
4 48 50 51 49
4 50 52 53 51
4 52 54 55 53
4 54 56 57 55
4 56 58 59 57
4 58 60 61 59
4 60 62 63 61
4 62 64 65 63
4 64 66 67 65
4 66 68 69 67
4 68 70 71 69
4 70 72 73 71
4 72 74 75 73
4 74 76 77 75
4 76 78 79 77
4 78 80 81 79
4 80 82 83 81
4 82 84 85 83
4 84 86 87 85
4 86 88 89 87
4 88 90 91 89
4 90 92 93 91
4 92 94 95 93
4 94 96 97 95
4 96 98 99 97
4 98 100 101 99
4 100 102 103 101
4 102 104 105 103
4 104 106 107 105
4 106 108 109 107
4 108 110 111 109
4 110 112 113 111
4 112 114 115 113
4 114 116 117 115
4 116 118 119 117
4 118 120 121 119
4 120 122 123 121
4 122 124 125 123
4 124 126 127 125
4 126 128 129 127
4 128 130 131 129
4 130 132 133 131
4 132 134 135 133
4 134 136 137 135
4 136 138 139 137
4 138 140 141 139
4 140 142 143 141
4 142 144 145 143
4 144 146 147 145
4 146 148 149 147
4 148 150 151 149
4 150 152 153 151
4 152 154 155 153
4 154 156 157 155
4 156 158 159 157
4 158 160 161 159
4 160 162 163 161
4 162 164 165 163
4 164 166 167 165
4 166 168 169 167
4 168 170 171 169
4 170 172 173 171
4 172 174 175 173
4 174 176 177 175
4 176 178 179 177
4 178 180 181 179
4 180 182 183 181
4 182 184 185 183
4 184 186 187 185
4 186 188 189 187
4 188 190 191 189
4 190 192 193 191
4 192 194 195 193
4 194 196 197 195
4 196 198 199 197
4 198 200 201 199
4 200 202 203 201
4 202 204 205 203
4 204 206 207 205
4 206 208 209 207
4 208 210 211 209
4 210 212 213 211
4 212 214 215 213
4 214 216 217 215
4 216 218 219 217
4 218 220 221 219
4 220 222 223 221
4 222 224 225 223
4 224 226 227 225
4 226 228 229 227
4 228 230 231 229
4 230 232 233 231
4 232 234 235 233
4 234 236 237 235
4 236 238 239 237
4 238 240 241 239
4 240 242 243 241
4 242 244 245 243
4 244 246 247 245
4 246 248 249 247
4 248 250 251 249
4 250 252 253 251
4 252 254 255 253
4 254 256 257 255
4 256 258 259 257
4 258 260 261 259
4 260 262 263 261
4 262 264 265 263
4 264 266 267 265
4 266 268 269 267
4 268 270 271 269
4 270 272 273 271
4 272 274 275 273
4 274 276 277 275
4 276 278 279 277
4 278 280 281 279
4 280 282 283 281
4 282 284 285 283
4 284 286 287 285
4 286 288 289 287
4 288 290 291 289
4 290 292 293 291
4 292 294 295 293
4 294 296 297 295
4 296 298 299 297
4 298 300 301 299
4 300 302 303 301
4 302 304 305 303
4 304 306 307 305
4 306 308 309 307
4 308 310 311 309
4 310 312 313 311
4 312 314 315 313
4 314 316 317 315
4 316 318 319 317
4 318 320 321 319
4 320 322 323 321
4 322 324 325 323
4 324 326 327 325
4 326 328 329 327
4 328 330 331 329
4 330 332 333 331
4 332 334 335 333
4 334 336 337 335
4 336 338 339 337
4 338 340 341 339
4 340 342 343 341
4 342 344 345 343
4 344 346 347 345
4 346 348 349 347
4 348 350 351 349
4 352 353 354 355
4 355 354 356 357
4 357 356 358 359
4 359 358 360 361
4 361 360 362 363
4 363 362 364 365
4 365 364 366 367
4 367 366 368 369
4 369 368 370 371
4 371 370 372 373
4 373 372 374 375
4 375 374 376 377
4 377 376 378 379
4 379 378 380 381
4 381 380 382 383
4 383 382 384 385
4 385 384 386 387
4 387 386 388 389
4 389 388 390 391
4 391 390 392 393
4 393 392 394 395
4 395 394 396 397
4 397 396 398 399
4 399 398 400 401
4 401 400 402 403
4 403 402 404 405
4 405 404 406 407
4 407 406 408 409
4 409 408 410 411
4 411 410 412 413
4 413 412 414 415
4 415 414 416 417
4 417 416 418 419
4 419 418 420 421
4 421 420 422 423
4 423 422 424 425
4 425 424 426 427
4 427 426 428 429
4 429 428 430 431
4 431 430 432 433
4 433 432 434 435
4 435 434 436 437
4 437 436 438 439
4 439 438 440 441
4 441 440 442 443
4 443 442 444 445
4 445 444 446 447
4 447 446 448 449
4 449 448 450 451
4 451 450 351 350
4 352 452 453 353
4 452 454 455 453
4 454 456 457 455
4 456 458 459 457
4 458 460 461 459
4 460 462 463 461
4 462 464 465 463
4 464 466 467 465
4 466 468 469 467
4 468 470 471 469
4 470 472 473 471
4 472 474 475 473
4 474 476 477 475
4 476 478 479 477
4 478 480 481 479
4 480 482 483 481
4 482 484 485 483
4 484 486 487 485
4 486 488 489 487
4 488 490 491 489
4 490 492 493 491
4 492 494 495 493
4 494 496 497 495
4 496 498 499 497
4 498 500 501 499
4 500 502 503 501
4 502 504 505 503
4 504 506 507 505
4 506 508 509 507
4 508 510 511 509
4 510 512 513 511
4 512 514 515 513
4 514 516 517 515
4 516 518 519 517
4 518 520 521 519
4 520 522 523 521
4 522 524 525 523
4 524 526 527 525
4 526 528 529 527
4 528 530 531 529
4 530 532 533 531
4 532 534 535 533
4 534 536 537 535
4 536 538 539 537
4 538 540 541 539
4 540 542 543 541
4 542 544 545 543
4 544 546 547 545
4 546 548 549 547
4 548 550 551 549
4 550 552 553 551
4 552 554 555 553
4 554 556 557 555
4 556 558 559 557
4 558 560 561 559
4 560 562 563 561
4 562 564 565 563
4 564 566 567 565
4 566 568 569 567
4 568 570 571 569
4 570 572 573 571
4 572 574 575 573
4 574 576 577 575
4 576 578 579 577
4 578 580 581 579
4 580 582 583 581
4 582 584 585 583
4 584 586 587 585
4 586 588 589 587
4 588 590 591 589
4 590 592 593 591
4 592 594 595 593
4 594 596 597 595
4 596 598 599 597
4 598 600 601 599
4 600 602 603 601
4 602 604 605 603
4 604 606 607 605
4 606 608 609 607
4 608 610 611 609
4 610 612 613 611
4 612 614 615 613
4 614 616 617 615
4 616 618 619 617
4 618 620 621 619
4 620 622 623 621
4 622 624 625 623
4 624 626 627 625
4 626 628 629 627
4 628 630 631 629
4 630 632 633 631
4 632 634 635 633
4 634 636 637 635
4 636 638 639 637
4 638 640 641 639
4 640 642 643 641
4 642 644 645 643
4 644 646 647 645
4 646 648 649 647
4 648 650 651 649
POINT_DATA 652
FIELD attributes 1
U 3 652 float
2.47716 0.0239342 0.012789
1.23908 0.0119658 0.0063945
1.23908 0.0119658 0.0063945
2.47716 0.0239342 0.012789
0.000988228 -3.8121e-06 0
0.000988228 -3.8121e-06 0
0.000990018 -4.55033e-06 0
0.000990018 -4.55033e-06 0
0.000990754 -2.55628e-06 0
0.000990754 -2.55628e-06 0
0.000989493 3.3987e-07 0
0.000989493 3.3987e-07 0
0.00098773 2.12922e-06 0
0.00098773 2.12922e-06 0
0.000986837 1.98463e-06 0
0.000986837 1.98463e-06 0
0.000987032 1.1728e-06 0
0.000987032 1.1728e-06 0
0.000987322 1.33343e-06 0
0.000987322 1.33343e-06 0
0.000986506 2.43338e-06 0
0.000986506 2.43338e-06 0
0.000984417 3.14139e-06 0
0.000984417 3.14139e-06 0
0.000981914 2.62139e-06 0
0.000981914 2.62139e-06 0
0.000979905 1.43706e-06 0
0.000979905 1.43706e-06 0
0.000978534 9.53183e-07 0
0.000978534 9.53183e-07 0
0.000977138 2.01342e-06 0
0.000977138 2.01342e-06 0
0.000974829 4.08517e-06 0
0.000974829 4.08517e-06 0
0.000971255 5.58922e-06 0
0.000971255 5.58922e-06 0
0.000966961 5.15725e-06 0
0.000966961 5.15725e-06 0
0.000963008 2.80996e-06 0
0.000963008 2.80996e-06 0
0.000960123 4.38815e-08 0
0.000960123 4.38815e-08 0
0.000958083 -1.28028e-06 0
0.000958083 -1.28028e-06 0
0.000955804 -3.09184e-07 0
0.000955804 -3.09184e-07 0
0.000952071 2.26142e-06 0
0.000952071 2.26142e-06 0
0.000946366 4.77558e-06 0
0.000946366 4.77558e-06 0
0.000939179 5.74725e-06 0
0.000939179 5.74725e-06 0
0.000931651 4.72518e-06 0
0.000931651 4.72518e-06 0
0.000924934 2.50349e-06 0
0.000924934 2.50349e-06 0
0.000919712 6.18438e-07 0
0.000919712 6.18438e-07 0
0.000915937 3.85946e-07 0
0.000915937 3.85946e-07 0
0.000912808 2.06757e-06 0
0.000912808 2.06757e-06 0
0.000909136 4.63345e-06 0
0.000909136 4.63345e-06 0
0.000904059 6.40154e-06 0
0.000904059 6.40154e-06 0
0.000897599 6.28615e-06 0
0.000897599 6.28615e-06 0
0.00089055 4.65428e-06 0
0.00089055 4.65428e-06 0
0.000883723 2.9831e-06 0
0.000883723 2.9831e-06 0
0.000877262 2.60281e-06 0
0.000877262 2.60281e-06 0
0.000870642 3.66522e-06 0
0.000870642 3.66522e-06 0
0.000863263 5.24106e-06 0
0.000863263 5.24106e-06 0
0.000854968 6.31161e-06 0
0.000854968 6.31161e-06 0
0.000846002 6.57266e-06 0
0.000846002 6.57266e-06 0
0.00083664 6.32882e-06 0
0.00083664 6.32882e-06 0
0.000827015 5.84537e-06 0
0.000827015 5.84537e-06 0
0.000817286 5.05143e-06 0
0.000817286 5.05143e-06 0
0.000807742 3.90632e-06 0
0.000807742 3.90632e-06 0
0.000798567 2.83138e-06 0
0.000798567 2.83138e-06 0
0.000789546 2.52105e-06 0
0.000789546 2.52105e-06 0
0.000780153 3.27811e-06 0
0.000780153 3.27811e-06 0
0.000770043 4.68034e-06 0
0.000770043 4.68034e-06 0
0.000759377 6.02512e-06 0
0.000759377 6.02512e-06 0
0.000748534 7.04912e-06 0
0.000748534 7.04912e-06 0
0.000737485 8.05962e-06 0
0.000737485 8.05962e-06 0
0.000725596 9.3324e-06 0
0.000725596 9.3324e-06 0
0.000712201 1.05561e-05 0
0.000712201 1.05561e-05 0
0.000697368 1.10862e-05 0
0.000697368 1.10862e-05 0
0.000681962 1.08086e-05 0
0.000681962 1.08086e-05 0
0.000666777 1.0592e-05 0
0.000666777 1.0592e-05 0
0.000651548 1.16379e-05 0
0.000651548 1.16379e-05 0
0.000634864 1.42554e-05 0
0.000634864 1.42554e-05 0
0.000615207 1.73245e-05 0
0.000615207 1.73245e-05 0
0.000592231 1.90983e-05 0
0.000592231 1.90983e-05 0
0.000567131 1.85978e-05 0
0.000567131 1.85978e-05 0
0.000541857 1.62342e-05 0
0.000541857 1.62342e-05 0
0.000518 1.32544e-05 0
0.000518 1.32544e-05 0
0.000496241 1.07896e-05 0
0.000496241 1.07896e-05 0
0.00047645 9.32462e-06 0
0.00047645 9.32462e-06 0
0.000458056 8.75161e-06 0
0.000458056 8.75161e-06 0
0.000440398 8.72018e-06 0
0.000440398 8.72018e-06 0
0.000422944 8.91567e-06 0
0.000422944 8.91567e-06 0
0.000405361 9.14729e-06 0
0.000405361 9.14729e-06 0
0.000387484 9.33756e-06 0
0.000387484 9.33756e-06 0
0.00036926 9.47436e-06 0
0.00036926 9.47436e-06 0
0.000350694 9.56715e-06 0
0.000350694 9.56715e-06 0
0.000331818 9.6238e-06 0
0.000331818 9.6238e-06 0
0.000312674 9.64471e-06 0
0.000312674 9.64471e-06 0
0.000293313 9.62466e-06 0
0.000293313 9.62466e-06 0
0.00027379 9.55538e-06 0
0.00027379 9.55538e-06 0
0.000254173 9.42767e-06 0
0.000254173 9.42767e-06 0
0.00023454 9.23266e-06 0
0.00023454 9.23266e-06 0
0.000214982 8.96186e-06 0
0.000214982 8.96186e-06 0
0.000195601 8.60752e-06 0
0.000195601 8.60752e-06 0
0.000176513 8.16315e-06 0
0.000176513 8.16315e-06 0
0.000157845 7.62422e-06 0
0.000157845 7.62422e-06 0
0.000139729 6.9892e-06 0
0.000139729 6.9892e-06 0
0.000122308 6.25997e-06 0
0.000122308 6.25997e-06 0
0.000105722 5.44212e-06 0
0.000105722 5.44212e-06 0
9.01073e-05 4.54542e-06 0
9.01073e-05 4.54542e-06 0
7.55915e-05 3.58372e-06 0
7.55915e-05 3.58372e-06 0
6.22861e-05 2.57481e-06 0
6.22861e-05 2.57481e-06 0
5.02814e-05 1.54136e-06 0
5.02814e-05 1.54136e-06 0
3.96418e-05 5.10202e-07 0
3.96418e-05 5.10202e-07 0
3.04027e-05 -4.92304e-07 0
3.04027e-05 -4.92304e-07 0
2.25679e-05 -1.44281e-06 0
2.25679e-05 -1.44281e-06 0
1.61084e-05 -2.32059e-06 0
1.61084e-05 -2.32059e-06 0
1.09619e-05 -3.10716e-06 0
1.09619e-05 -3.10716e-06 0
7.03054e-06 -3.78786e-06 0
7.03054e-06 -3.78786e-06 0
4.18685e-06 -4.35161e-06 0
4.18685e-06 -4.35161e-06 0
2.26401e-06 -4.79631e-06 0
2.26401e-06 -4.79631e-06 0
1.07848e-06 -5.1292e-06 0
1.07848e-06 -5.1292e-06 0
4.08138e-07 -5.32706e-06 0
4.08138e-07 -5.32706e-06 0
1.67664e-07 -5.38539e-06 0
1.67664e-07 -5.38539e-06 0
4.71382e-06 4.24761e-07 0
4.71382e-06 4.24761e-07 0
1.12689e-05 1.91082e-05 0
1.12689e-05 1.91082e-05 0
1.36857e-05 4.57567e-05 0
1.36857e-05 4.57567e-05 0
1.38157e-05 7.36924e-05 0
1.38157e-05 7.36924e-05 0
1.30503e-05 0.000100859 0
1.30503e-05 0.000100859 0
1.2104e-05 0.000125947 0
1.2104e-05 0.000125947 0
1.13007e-05 0.00014931 0
1.13007e-05 0.00014931 0
1.07387e-05 0.000171331 0
1.07387e-05 0.000171331 0
1.04124e-05 0.000192499 0
1.04124e-05 0.000192499 0
1.02751e-05 0.000213223 0
1.02751e-05 0.000213223 0
1.02721e-05 0.00023382 0
1.02721e-05 0.00023382 0
1.03564e-05 0.000254515 0
1.03564e-05 0.000254515 0
1.04934e-05 0.000275444 0
1.04934e-05 0.000275444 0
1.06601e-05 0.000296682 0
1.06601e-05 0.000296682 0
1.08429e-05 0.00031827 0
1.08429e-05 0.00031827 0
1.10347e-05 0.000340232 0
1.10347e-05 0.000340232 0
1.12328e-05 0.000362581 0
1.12328e-05 0.000362581 0
1.14372e-05 0.00038533 0
1.14372e-05 0.00038533 0
1.16495e-05 0.000408492 0
1.16495e-05 0.000408492 0
1.1872e-05 0.000432086 0
1.1872e-05 0.000432086 0
1.21072e-05 0.000456135 0
1.21072e-05 0.000456135 0
1.2358e-05 0.000480666 0
1.2358e-05 0.000480666 0
1.26268e-05 0.000505715 0
1.26268e-05 0.000505715 0
1.29174e-05 0.00053132 0
1.29174e-05 0.00053132 0
1.32314e-05 0.000557526 0
1.32314e-05 0.000557526 0
1.35749e-05 0.000584389 0
1.35749e-05 0.000584389 0
1.39476e-05 0.000611962 0
1.39476e-05 0.000611962 0
1.436e-05 0.00064032 0
1.436e-05 0.00064032 0
1.48079e-05 0.00066953 0
1.48079e-05 0.00066953 0
1.53105e-05 0.000699693 0
1.53105e-05 0.000699693 0
1.58552e-05 0.000730888 0
1.58552e-05 0.000730888 0
1.64801e-05 0.000763261 0
1.64801e-05 0.000763261 0
1.71498e-05 0.0007969 0
1.71498e-05 0.0007969 0
1.79498e-05 0.000832032 0
1.79498e-05 0.000832032 0
1.87773e-05 0.000868732 0
1.87773e-05 0.000868732 0
1.98475e-05 0.000907385 0
1.98475e-05 0.000907385 0
2.0874e-05 0.000948012 0
2.0874e-05 0.000948012 0
2.23846e-05 0.000991298 0
2.23846e-05 0.000991298 0
2.36547e-05 0.0010371 0
2.36547e-05 0.0010371 0
2.5961e-05 0.00108675 0
2.5961e-05 0.00108675 0
2.74746e-05 0.00113964 0
2.74746e-05 0.00113964 0
3.14176e-05 0.0011985 0
3.14176e-05 0.0011985 0
3.29599e-05 0.00126171 0
3.29599e-05 0.00126171 0
4.07123e-05 0.00133493 0
4.07123e-05 0.00133493 0
4.2027e-05 0.0014152 0
4.2027e-05 0.0014152 0
5.95175e-05 0.0015137 0
5.95175e-05 0.0015137 0
6.23475e-05 0.00162908 0
6.23475e-05 0.00162908 0
0.000111393 0.00178127 0
0.000111393 0.00178127 0
0.00013266 0.00198365 0
0.00013266 0.00198365 0
0.00013473 0.00127956 0
0.00013473 0.00127956 0
-0.000323963 0.000303594 0
-0.000323963 0.000303594 0
-0.000767619 0.000123018 0
-0.000767619 0.000123018 0
-0.00102579 9.03725e-05 0
-0.00102579 9.03725e-05 0
-0.00135831 5.92018e-05 0
-0.00135831 5.92018e-05 0
-0.00147639 1.23194e-05 0
-0.00147639 1.23194e-05 0
-0.00145179 -9.3905e-05 0
-0.00145179 -9.3905e-05 0
-0.00114997 -0.000262364 0
-0.00114997 -0.000262364 0
-0.000565099 -0.000459366 0
-0.000565099 -0.000459366 0
0.000332851 -0.000552657 0
0.000332851 -0.000552657 0
0.00126244 -0.000499761 0
0.00126244 -0.000499761 0
0.0020724 -0.000408934 0
0.0020724 -0.000408934 0
0.00267751 -0.00029596 0
0.00267751 -0.00029596 0
0.00306809 -0.000154601 0
0.00306809 -0.000154601 0
0.00324387 -5.47583e-05 0
0.00324387 -5.47583e-05 0
0.00320589 6.74329e-05 0
0.00320589 6.74329e-05 0
0.0029811 0.000243845 0
0.0029811 0.000243845 0
0.00259036 0.000290714 0
0.00259036 0.000290714 0
0.00195585 0.000278562 0
0.00195585 0.000278562 0
0.00145018 0.000295926 0
0.00145018 0.000295926 0
0.00118795 0.000184628 0
0.00118795 0.000184628 0
0.00126485 -3.58321e-05 0
0.00126485 -3.58321e-05 0
0.00113228 -0.000282458 0
0.00113228 -0.000282458 0
0.0010463 -6.70015e-05 0
0.0010463 -6.70015e-05 0
4.2401e-06 0.000846704 0
4.2401e-06 0.000846704 0
-0.000732415 0.00156348 0
-0.000732415 0.00156348 0
-8.51865e-06 7.17872e-06 0
-8.51865e-06 7.17872e-06 0
-9.31975e-06 1.64285e-05 0
-9.31975e-06 1.64285e-05 0
-9.96094e-06 3.56286e-05 0
-9.96094e-06 3.56286e-05 0
-9.66634e-06 5.46013e-05 0
-9.66634e-06 5.46013e-05 0
-9.47231e-06 7.27226e-05 0
-9.47231e-06 7.27226e-05 0
-9.37853e-06 9.08283e-05 0
-9.37853e-06 9.08283e-05 0
-9.30929e-06 0.00010878 0
-9.30929e-06 0.00010878 0
-9.23106e-06 0.000126607 0
-9.23106e-06 0.000126607 0
-9.13299e-06 0.000144291 0
-9.13299e-06 0.000144291 0
-9.01101e-06 0.000161785 0
-9.01101e-06 0.000161785 0
-8.86206e-06 0.000179041 0
-8.86206e-06 0.000179041 0
-8.68283e-06 0.000196002 0
-8.68283e-06 0.000196002 0
-8.46936e-06 0.000212608 0
-8.46936e-06 0.000212608 0
-8.21791e-06 0.000228786 0
-8.21791e-06 0.000228786 0
-7.92488e-06 0.000244458 0
-7.92488e-06 0.000244458 0
-7.58615e-06 0.000259537 0
-7.58615e-06 0.000259537 0
-7.19861e-06 0.00027393 0
-7.19861e-06 0.00027393 0
-6.7606e-06 0.000287538 0
-6.7606e-06 0.000287538 0
-6.27123e-06 0.000300259 0
-6.27123e-06 0.000300259 0
-5.73073e-06 0.000311984 0
-5.73073e-06 0.000311984 0
-5.14124e-06 0.000322605 0
-5.14124e-06 0.000322605 0
-4.50498e-06 0.000332023 0
-4.50498e-06 0.000332023 0
-3.8254e-06 0.000340138 0
-3.8254e-06 0.000340138 0
-3.10701e-06 0.000346866 0
-3.10701e-06 0.000346866 0
-2.35965e-06 0.000352126 0
-2.35965e-06 0.000352126 0
-1.58713e-06 0.000355882 0
-1.58713e-06 0.000355882 0
-7.78198e-07 0.000358072 0
-7.78198e-07 0.000358072 0
6.58099e-08 0.000358729 0
6.58099e-08 0.000358729 0
9.54093e-07 0.000357702 0
9.54093e-07 0.000357702 0
1.86789e-06 0.000355203 0
1.86789e-06 0.000355203 0
2.77179e-06 0.000350938 0
2.77179e-06 0.000350938 0
3.57543e-06 0.00034578 0
3.57543e-06 0.00034578 0
4.28101e-06 0.000338625 0
4.28101e-06 0.000338625 0
4.78306e-06 0.000332048 0
4.78306e-06 0.000332048 0
5.14141e-06 0.00032304 0
5.14141e-06 0.00032304 0
5.19533e-06 0.000316721 0
5.19533e-06 0.000316721 0
4.95607e-06 0.000307559 0
4.95607e-06 0.000307559 0
4.04475e-06 0.000303823 0
4.04475e-06 0.000303823 0
2.79361e-06 0.000297218 0
2.79361e-06 0.000297218 0
4.36147e-07 0.000299243 0
4.36147e-07 0.000299243 0
-2.49812e-06 0.000298739 0
-2.49812e-06 0.000298739 0
-3.29985e-06 0.000315278 0
-3.29985e-06 0.000315278 0
-1.91639e-05 0.00031578 0
-1.91639e-05 0.00031578 0
-1.24443e-05 0.000376876 0
-1.24443e-05 0.000376876 0
-2.57404e-05 0.000386949 0
-2.57404e-05 0.000386949 0
-5.73536e-05 0.000462231 0
-5.73536e-05 0.000462231 0
-0.000110684 0.000585443 0
-0.000110684 0.000585443 0
-9.85376e-05 0.000742906 0
-9.85376e-05 0.000742906 0
-0.000250466 0.000995095 0
-0.000250466 0.000995095 0
-0.000310604 0.00138504 0
-0.000310604 0.00138504 0
-1.63623e-05 7.14044e-06 0
-1.63623e-05 7.14044e-06 0
-3.24457e-05 7.22147e-06 0
-3.24457e-05 7.22147e-06 0
-4.89939e-05 7.44529e-06 0
-4.89939e-05 7.44529e-06 0
-6.56894e-05 7.67806e-06 0
-6.56894e-05 7.67806e-06 0
-8.26669e-05 7.95403e-06 0
-8.26669e-05 7.95403e-06 0
-9.99588e-05 8.25568e-06 0
-9.99588e-05 8.25568e-06 0
-0.000117558 8.56225e-06 0
-0.000117558 8.56225e-06 0
-0.000135469 8.85696e-06 0
-0.000135469 8.85696e-06 0
-0.000153646 9.12253e-06 0
-0.000153646 9.12253e-06 0
-0.00017205 9.34385e-06 0
-0.00017205 9.34385e-06 0
-0.000190607 9.50841e-06 0
-0.000190607 9.50841e-06 0
-0.000209248 9.60787e-06 0
-0.000209248 9.60787e-06 0
-0.000227881 9.63909e-06 0
-0.000227881 9.63909e-06 0
-0.000246413 9.6048e-06 0
-0.000246413 9.6048e-06 0
-0.000264731 9.50597e-06 0
-0.000264731 9.50597e-06 0
-0.000282718 9.33743e-06 0
-0.000282718 9.33743e-06 0
-0.000300245 9.09226e-06 0
-0.000300245 9.09226e-06 0
-0.00031717 8.7634e-06 0
-0.00031717 8.7634e-06 0
-0.000333341 8.34433e-06 0
-0.000333341 8.34433e-06 0
-0.000348591 7.82898e-06 0
-0.000348591 7.82898e-06 0
-0.000362746 7.21245e-06 0
-0.000362746 7.21245e-06 0
-0.00037562 6.49198e-06 0
-0.00037562 6.49198e-06 0
-0.000387025 5.6671e-06 0
-0.000387025 5.6671e-06 0
-0.000396773 4.73967e-06 0
-0.000396773 4.73967e-06 0
-0.000404684 3.71557e-06 0
-0.000404684 3.71557e-06 0
-0.00041059 2.60703e-06 0
-0.00041059 2.60703e-06 0
-0.000414345 1.43324e-06 0
-0.000414345 1.43324e-06 0
-0.000415811 2.25661e-07 0
-0.000415811 2.25661e-07 0
-0.000414928 -9.83165e-07 0
-0.000414928 -9.83165e-07 0
-0.000411676 -2.18547e-06 0
-0.000411676 -2.18547e-06 0
-0.000406023 -3.38464e-06 0
-0.000406023 -3.38464e-06 0
-0.000397966 -4.57435e-06 0
-0.000397966 -4.57435e-06 0
-0.000387537 -5.74186e-06 0
-0.000387537 -5.74186e-06 0
-0.000374797 -6.87194e-06 0
-0.000374797 -6.87194e-06 0
-0.000359836 -7.94978e-06 0
-0.000359836 -7.94978e-06 0
-0.000342775 -8.96198e-06 0
-0.000342775 -8.96198e-06 0
-0.000323759 -9.89722e-06 0
-0.000323759 -9.89722e-06 0
-0.000302953 -1.07464e-05 0
-0.000302953 -1.07464e-05 0
-0.000280538 -1.1503e-05 0
-0.000280538 -1.1503e-05 0
-0.000256705 -1.21632e-05 0
-0.000256705 -1.21632e-05 0
-0.00023165 -1.27254e-05 0
-0.00023165 -1.27254e-05 0
-0.00020557 -1.31899e-05 0
-0.00020557 -1.31899e-05 0
-0.000178661 -1.35589e-05 0
-0.000178661 -1.35589e-05 0
-0.000151109 -1.38367e-05 0
-0.000151109 -1.38367e-05 0
-0.000123092 -1.40283e-05 0
-0.000123092 -1.40283e-05 0
-9.4778e-05 -1.41402e-05 0
-9.4778e-05 -1.41402e-05 0
-6.6317e-05 -1.41786e-05 0
-6.6317e-05 -1.41786e-05 0
-3.78437e-05 -1.41497e-05 0
-3.78437e-05 -1.41497e-05 0
-9.49075e-06 -1.40637e-05 0
-9.49075e-06 -1.40637e-05 0
1.86224e-05 -1.39273e-05 0
1.86224e-05 -1.39273e-05 0
4.64127e-05 -1.37457e-05 0
4.64127e-05 -1.37457e-05 0
7.38042e-05 -1.35271e-05 0
7.38042e-05 -1.35271e-05 0
0.000100724 -1.32775e-05 0
0.000100724 -1.32775e-05 0
0.000127116 -1.30027e-05 0
0.000127116 -1.30027e-05 0
0.000152936 -1.27081e-05 0
0.000152936 -1.27081e-05 0
0.000178151 -1.23987e-05 0
0.000178151 -1.23987e-05 0
0.000202733 -1.20786e-05 0
0.000202733 -1.20786e-05 0
0.000226666 -1.17517e-05 0
0.000226666 -1.17517e-05 0
0.00024994 -1.1421e-05 0
0.00024994 -1.1421e-05 0
0.00027255 -1.10893e-05 0
0.00027255 -1.10893e-05 0
0.000294496 -1.07588e-05 0
0.000294496 -1.07588e-05 0
0.000315784 -1.04316e-05 0
0.000315784 -1.04316e-05 0
0.00033642 -1.01093e-05 0
0.00033642 -1.01093e-05 0
0.000356417 -9.79293e-06 0
0.000356417 -9.79293e-06 0
0.000375787 -9.48368e-06 0
0.000375787 -9.48368e-06 0
0.000394546 -9.18229e-06 0
0.000394546 -9.18229e-06 0
0.000412709 -8.88935e-06 0
0.000412709 -8.88935e-06 0
0.000430295 -8.60528e-06 0
0.000430295 -8.60528e-06 0
0.00044732 -8.33043e-06 0
0.00044732 -8.33043e-06 0
0.000463805 -8.06495e-06 0
0.000463805 -8.06495e-06 0
0.000479767 -7.80885e-06 0
0.000479767 -7.80885e-06 0
0.000495226 -7.56213e-06 0
0.000495226 -7.56213e-06 0
0.000510199 -7.32481e-06 0
0.000510199 -7.32481e-06 0
0.000524707 -7.09688e-06 0
0.000524707 -7.09688e-06 0
0.000538768 -6.87823e-06 0
0.000538768 -6.87823e-06 0
0.0005524 -6.66864e-06 0
0.0005524 -6.66864e-06 0
0.00056562 -6.46784e-06 0
0.00056562 -6.46784e-06 0
0.000578447 -6.27563e-06 0
0.000578447 -6.27563e-06 0
0.000590897 -6.09181e-06 0
0.000590897 -6.09181e-06 0
0.000602987 -5.9162e-06 0
0.000602987 -5.9162e-06 0
0.000614733 -5.74855e-06 0
0.000614733 -5.74855e-06 0
0.00062615 -5.58866e-06 0
0.00062615 -5.58866e-06 0
0.000637256 -5.43628e-06 0
0.000637256 -5.43628e-06 0
0.00064806 -5.29124e-06 0
0.00064806 -5.29124e-06 0
0.000658586 -5.15328e-06 0
0.000658586 -5.15328e-06 0
0.000668833 -5.02225e-06 0
0.000668833 -5.02225e-06 0
0.000678837 -4.89778e-06 0
0.000678837 -4.89778e-06 0
0.000688578 -4.77987e-06 0
0.000688578 -4.77987e-06 0
0.000698118 -4.668e-06 0
0.000698118 -4.668e-06 0
0.000707395 -4.56249e-06 0
0.000707395 -4.56249e-06 0
0.000716533 -4.46248e-06 0
0.000716533 -4.46248e-06 0
0.000725375 -4.36893e-06 0
0.000725375 -4.36893e-06 0
0.000734187 -4.28001e-06 0
0.000734187 -4.28001e-06 0
0.000742593 -4.19809e-06 0
0.000742593 -4.19809e-06 0
0.000751194 -4.11928e-06 0
0.000751194 -4.11928e-06 0
0.000759103 -4.0492e-06 0
0.000759103 -4.0492e-06 0
0.000767685 -3.97919e-06 0
0.000767685 -3.97919e-06 0
0.000774901 -3.92201e-06 0
0.000774901 -3.92201e-06 0
0.989318 -0.00476563 0
0.989318 -0.00476563 0
1.97786 -0.00952736 0
1.97786 -0.00952736 0
