# vtk DataFile Version 2.0
sampleSurface
ASCII
DATASET POLYDATA
POINTS 652 double
0 0 0
0.02 0 0
0.02 0 0.1
0 0 0.1
0.04 0 0
0.04 0 0.1
0.06 0 0
0.06 0 0.1
0.08 0 0
0.08 0 0.1
0.1 0 0
0.1 0 0.1
0.12 0 0
0.12 0 0.1
0.14 0 0
0.14 0 0.1
0.16 0 0
0.16 0 0.1
0.18 0 0
0.18 0 0.1
0.2 0 0
0.2 0 0.1
0.22 0 0
0.22 0 0.1
0.24 0 0
0.24 0 0.1
0.26 0 0
0.26 0 0.1
0.28 0 0
0.28 0 0.1
0.3 0 0
0.3 0 0.1
0.32 0 0
0.32 0 0.1
0.34 0 0
0.34 0 0.1
0.36 0 0
0.36 0 0.1
0.38 0 0
0.38 0 0.1
0.4 0 0
0.4 0 0.1
0.42 0 0
0.42 0 0.1
0.44 0 0
0.44 0 0.1
0.46 0 0
0.46 0 0.1
0.48 0 0
0.48 0 0.1
0.5 0 0
0.5 0 0.1
0.52 0 0
0.52 0 0.1
0.54 0 0
0.54 0 0.1
0.56 0 0
0.56 0 0.1
0.58 0 0
0.58 0 0.1
0.6 0 0
0.6 0 0.1
0.62 0 0
0.62 0 0.1
0.64 0 0
0.64 0 0.1
0.66 0 0
0.66 0 0.1
0.68 0 0
0.68 0 0.1
0.7 0 0
0.7 0 0.1
0.72 0 0
0.72 0 0.1
0.74 0 0
0.74 0 0.1
0.76 0 0
0.76 0 0.1
0.78 0 0
0.78 0 0.1
0.8 0 0
0.8 0 0.1
0.82 0 0
0.82 0 0.1
0.84 0 0
0.84 0 0.1
0.86 0 0
0.86 0 0.1
0.88 0 0
0.88 0 0.1
0.9 0 0
0.9 0 0.1
0.92 0 0
0.92 0 0.1
0.94 0 0
0.94 0 0.1
0.96 0 0
0.96 0 0.1
0.98 0 0
0.98 0 0.1
1 0 0
1 0 0.1
1.02 0 0
1.02 0 0.1
1.04 0 0
1.04 0 0.1
1.06 0 0
1.06 0 0.1
1.08 0 0
1.08 0 0.1
1.1 0 0
1.1 0 0.1
1.12 0 0
1.12 0 0.1
1.14 0 0
1.14 0 0.1
1.16 0 0
1.16 0 0.1
1.18 0 0
1.18 0 0.1
1.2 0 0
1.2 0 0.1
1.22 0 0
1.22 0 0.1
1.24 0 0
1.24 0 0.1
1.26 0 0
1.26 0 0.1
1.28 0 0
1.28 0 0.1
1.3 0 0
1.3 0 0.1
1.32 0 0
1.32 0 0.1
1.34 0 0
1.34 0 0.1
1.36 0 0
1.36 0 0.1
1.38 0 0
1.38 0 0.1
1.4 0 0
1.4 0 0.1
1.42 0 0
1.42 0 0.1
1.44 0 0
1.44 0 0.1
1.46 0 0
1.46 0 0.1
1.48 0 0
1.48 0 0.1
1.5 0 0
1.5 0 0.1
1.52 0 0
1.52 0 0.1
1.54 0 0
1.54 0 0.1
1.56 0 0
1.56 0 0.1
1.58 0 0
1.58 0 0.1
1.6 0 0
1.6 0 0.1
1.62 0 0
1.62 0 0.1
1.64 0 0
1.64 0 0.1
1.66 0 0
1.66 0 0.1
1.68 0 0
1.68 0 0.1
1.7 0 0
1.7 0 0.1
1.72 0 0
1.72 0 0.1
1.74 0 0
1.74 0 0.1
1.76 0 0
1.76 0 0.1
1.78 0 0
1.78 0 0.1
1.8 0 0
1.8 0 0.1
1.82 0 0
1.82 0 0.1
1.84 0 0
1.84 0 0.1
1.86 0 0
1.86 0 0.1
1.88 0 0
1.88 0 0.1
1.9 0 0
1.9 0 0.1
1.92 0 0
1.92 0 0.1
1.94 0 0
1.94 0 0.1
1.96 0 0
1.96 0 0.1
1.98 0 0
1.98 0 0.1
2 0 0
2 0 0.1
2 0.02 0
2 0.02 0.1
2 0.04 0
2 0.04 0.1
2 0.06 0
2 0.06 0.1
2 0.08 0
2 0.08 0.1
2 0.1 0
2 0.1 0.1
2 0.12 0
2 0.12 0.1
2 0.14 0
2 0.14 0.1
2 0.16 0
2 0.16 0.1
2 0.18 0
2 0.18 0.1
2 0.2 0
2 0.2 0.1
2 0.22 0
2 0.22 0.1
2 0.24 0
2 0.24 0.1
2 0.26 0
2 0.26 0.1
2 0.28 0
2 0.28 0.1
2 0.3 0
2 0.3 0.1
2 0.32 0
2 0.32 0.1
2 0.34 0
2 0.34 0.1
2 0.36 0
2 0.36 0.1
2 0.38 0
2 0.38 0.1
2 0.4 0
2 0.4 0.1
2 0.42 0
2 0.42 0.1
2 0.44 0
2 0.44 0.1
2 0.46 0
2 0.46 0.1
2 0.48 0
2 0.48 0.1
2 0.5 0
2 0.5 0.1
2 0.52 0
2 0.52 0.1
2 0.54 0
2 0.54 0.1
2 0.56 0
2 0.56 0.1
2 0.58 0
2 0.58 0.1
2 0.6 0
2 0.6 0.1
2 0.62 0
2 0.62 0.1
2 0.64 0
2 0.64 0.1
2 0.66 0
2 0.66 0.1
2 0.68 0
2 0.68 0.1
2 0.7 0
2 0.7 0.1
2 0.72 0
2 0.72 0.1
2 0.74 0
2 0.74 0.1
2 0.76 0
2 0.76 0.1
2 0.78 0
2 0.78 0.1
2 0.8 0
2 0.8 0.1
2 0.82 0
2 0.82 0.1
2 0.84 0
2 0.84 0.1
2 0.86 0
2 0.86 0.1
2 0.88 0
2 0.88 0.1
2 0.9 0
2 0.9 0.1
2 0.92 0
2 0.92 0.1
2 0.94 0
2 0.94 0.1
2 0.96 0
2 0.96 0.1
2 0.98 0
2 0.98 0.1
2 1 0
2 1 0.1
2.02 1 0
2.02 1 0.1
2.04 1 0
2.04 1 0.1
2.06 1 0
2.06 1 0.1
2.08 1 0
2.08 1 0.1
2.1 1 0
2.1 1 0.1
2.12 1 0
2.12 1 0.1
2.14 1 0
2.14 1 0.1
2.16 1 0
2.16 1 0.1
2.18 1 0
2.18 1 0.1
2.2 1 0
2.2 1 0.1
2.22 1 0
2.22 1 0.1
2.24 1 0
2.24 1 0.1
2.26 1 0
2.26 1 0.1
2.28 1 0
2.28 1 0.1
2.3 1 0
2.3 1 0.1
2.32 1 0
2.32 1 0.1
2.34 1 0
2.34 1 0.1
2.36 1 0
2.36 1 0.1
2.38 1 0
2.38 1 0.1
2.4 1 0
2.4 1 0.1
2.42 1 0
2.42 1 0.1
2.44 1 0
2.44 1 0.1
2.46 1 0
2.46 1 0.1
2.48 1 0
2.48 1 0.1
2.5 1 0
2.5 1 0.1
2.5 0 0
2.5 0 0.1
2.5 0.02 0.1
2.5 0.02 0
2.5 0.04 0.1
2.5 0.04 0
2.5 0.06 0.1
2.5 0.06 0
2.5 0.08 0.1
2.5 0.08 0
2.5 0.1 0.1
2.5 0.1 0
2.5 0.12 0.1
2.5 0.12 0
2.5 0.14 0.1
2.5 0.14 0
2.5 0.16 0.1
2.5 0.16 0
2.5 0.18 0.1
2.5 0.18 0
2.5 0.2 0.1
2.5 0.2 0
2.5 0.22 0.1
2.5 0.22 0
2.5 0.24 0.1
2.5 0.24 0
2.5 0.26 0.1
2.5 0.26 0
2.5 0.28 0.1
2.5 0.28 0
2.5 0.3 0.1
2.5 0.3 0
2.5 0.32 0.1
2.5 0.32 0
2.5 0.34 0.1
2.5 0.34 0
2.5 0.36 0.1
2.5 0.36 0
2.5 0.38 0.1
2.5 0.38 0
2.5 0.4 0.1
2.5 0.4 0
2.5 0.42 0.1
2.5 0.42 0
2.5 0.44 0.1
2.5 0.44 0
2.5 0.46 0.1
2.5 0.46 0
2.5 0.48 0.1
2.5 0.48 0
2.5 0.5 0.1
2.5 0.5 0
2.5 0.52 0.1
2.5 0.52 0
2.5 0.54 0.1
2.5 0.54 0
2.5 0.56 0.1
2.5 0.56 0
2.5 0.58 0.1
2.5 0.58 0
2.5 0.6 0.1
2.5 0.6 0
2.5 0.62 0.1
2.5 0.62 0
2.5 0.64 0.1
2.5 0.64 0
2.5 0.66 0.1
2.5 0.66 0
2.5 0.68 0.1
2.5 0.68 0
2.5 0.7 0.1
2.5 0.7 0
2.5 0.72 0.1
2.5 0.72 0
2.5 0.74 0.1
2.5 0.74 0
2.5 0.76 0.1
2.5 0.76 0
2.5 0.78 0.1
2.5 0.78 0
2.5 0.8 0.1
2.5 0.8 0
2.5 0.82 0.1
2.5 0.82 0
2.5 0.84 0.1
2.5 0.84 0
2.5 0.86 0.1
2.5 0.86 0
2.5 0.88 0.1
2.5 0.88 0
2.5 0.9 0.1
2.5 0.9 0
2.5 0.92 0.1
2.5 0.92 0
2.5 0.94 0.1
2.5 0.94 0
2.5 0.96 0.1
2.5 0.96 0
2.5 0.98 0.1
2.5 0.98 0
2.52 0 0
2.52 0 0.1
2.54 0 0
2.54 0 0.1
2.56 0 0
2.56 0 0.1
2.58 0 0
2.58 0 0.1
2.6 0 0
2.6 0 0.1
2.62 0 0
2.62 0 0.1
2.64 0 0
2.64 0 0.1
2.66 0 0
2.66 0 0.1
2.68 0 0
2.68 0 0.1
2.7 0 0
2.7 0 0.1
2.72 0 0
2.72 0 0.1
2.74 0 0
2.74 0 0.1
2.76 0 0
2.76 0 0.1
2.78 0 0
2.78 0 0.1
2.8 0 0
2.8 0 0.1
2.82 0 0
2.82 0 0.1
2.84 0 0
2.84 0 0.1
2.86 0 0
2.86 0 0.1
2.88 0 0
2.88 0 0.1
2.9 0 0
2.9 0 0.1
2.92 0 0
2.92 0 0.1
2.94 0 0
2.94 0 0.1
2.96 0 0
2.96 0 0.1
2.98 0 0
2.98 0 0.1
3 0 0
3 0 0.1
3.02 0 0
3.02 0 0.1
3.04 0 0
3.04 0 0.1
3.06 0 0
3.06 0 0.1
3.08 0 0
3.08 0 0.1
3.1 0 0
3.1 0 0.1
3.12 0 0
3.12 0 0.1
3.14 0 0
3.14 0 0.1
3.16 0 0
3.16 0 0.1
3.18 0 0
3.18 0 0.1
3.2 0 0
3.2 0 0.1
3.22 0 0
3.22 0 0.1
3.24 0 0
3.24 0 0.1
3.26 0 0
3.26 0 0.1
3.28 0 0
3.28 0 0.1
3.3 0 0
3.3 0 0.1
3.32 0 0
3.32 0 0.1
3.34 0 0
3.34 0 0.1
3.36 0 0
3.36 0 0.1
3.38 0 0
3.38 0 0.1
3.4 0 0
3.4 0 0.1
3.42 0 0
3.42 0 0.1
3.44 0 0
3.44 0 0.1
3.46 0 0
3.46 0 0.1
3.48 0 0
3.48 0 0.1
3.5 0 0
3.5 0 0.1
3.52 0 0
3.52 0 0.1
3.54 0 0
3.54 0 0.1
3.56 0 0
3.56 0 0.1
3.58 0 0
3.58 0 0.1
3.6 0 0
3.6 0 0.1
3.62 0 0
3.62 0 0.1
3.64 0 0
3.64 0 0.1
3.66 0 0
3.66 0 0.1
3.68 0 0
3.68 0 0.1
3.7 0 0
3.7 0 0.1
3.72 0 0
3.72 0 0.1
3.74 0 0
3.74 0 0.1
3.76 0 0
3.76 0 0.1
3.78 0 0
3.78 0 0.1
3.8 0 0
3.8 0 0.1
3.82 0 0
3.82 0 0.1
3.84 0 0
3.84 0 0.1
3.86 0 0
3.86 0 0.1
3.88 0 0
3.88 0 0.1
3.9 0 0
3.9 0 0.1
3.92 0 0
3.92 0 0.1
3.94 0 0
3.94 0 0.1
3.96 0 0
3.96 0 0.1
3.98 0 0
3.98 0 0.1
4 0 0
4 0 0.1
4.02 0 0
4.02 0 0.1
4.04 0 0
4.04 0 0.1
4.06 0 0
4.06 0 0.1
4.08 0 0
4.08 0 0.1
4.1 0 0
4.1 0 0.1
4.12 0 0
4.12 0 0.1
4.14 0 0
4.14 0 0.1
4.16 0 0
4.16 0 0.1
4.18 0 0
4.18 0 0.1
4.2 0 0
4.2 0 0.1
4.22 0 0
4.22 0 0.1
4.24 0 0
4.24 0 0.1
4.26 0 0
4.26 0 0.1
4.28 0 0
4.28 0 0.1
4.3 0 0
4.3 0 0.1
4.32 0 0
4.32 0 0.1
4.34 0 0
4.34 0 0.1
4.36 0 0
4.36 0 0.1
4.38 0 0
4.38 0 0.1
4.4 0 0
4.4 0 0.1
4.42 0 0
4.42 0 0.1
4.44 0 0
4.44 0 0.1
4.46 0 0
4.46 0 0.1
4.48 0 0
4.48 0 0.1
4.5 0 0
4.5 0 0.1

POLYGONS 325 1625
4 0 1 2 3
4 1 4 5 2
4 4 6 7 5
4 6 8 9 7
4 8 10 11 9
4 10 12 13 11
4 12 14 15 13
4 14 16 17 15
4 16 18 19 17
4 18 20 21 19
4 20 22 23 21
4 22 24 25 23
4 24 26 27 25
4 26 28 29 27
4 28 30 31 29
4 30 32 33 31
4 32 34 35 33
4 34 36 37 35
4 36 38 39 37
4 38 40 41 39
4 40 42 43 41
4 42 44 45 43
4 44 46 47 45
4 46 48 49 47
4 48 50 51 49
4 50 52 53 51
4 52 54 55 53
4 54 56 57 55
4 56 58 59 57
4 58 60 61 59
4 60 62 63 61
4 62 64 65 63
4 64 66 67 65
4 66 68 69 67
4 68 70 71 69
4 70 72 73 71
4 72 74 75 73
4 74 76 77 75
4 76 78 79 77
4 78 80 81 79
4 80 82 83 81
4 82 84 85 83
4 84 86 87 85
4 86 88 89 87
4 88 90 91 89
4 90 92 93 91
4 92 94 95 93
4 94 96 97 95
4 96 98 99 97
4 98 100 101 99
4 100 102 103 101
4 102 104 105 103
4 104 106 107 105
4 106 108 109 107
4 108 110 111 109
4 110 112 113 111
4 112 114 115 113
4 114 116 117 115
4 116 118 119 117
4 118 120 121 119
4 120 122 123 121
4 122 124 125 123
4 124 126 127 125
4 126 128 129 127
4 128 130 131 129
4 130 132 133 131
4 132 134 135 133
4 134 136 137 135
4 136 138 139 137
4 138 140 141 139
4 140 142 143 141
4 142 144 145 143
4 144 146 147 145
4 146 148 149 147
4 148 150 151 149
4 150 152 153 151
4 152 154 155 153
4 154 156 157 155
4 156 158 159 157
4 158 160 161 159
4 160 162 163 161
4 162 164 165 163
4 164 166 167 165
4 166 168 169 167
4 168 170 171 169
4 170 172 173 171
4 172 174 175 173
4 174 176 177 175
4 176 178 179 177
4 178 180 181 179
4 180 182 183 181
4 182 184 185 183
4 184 186 187 185
4 186 188 189 187
4 188 190 191 189
4 190 192 193 191
4 192 194 195 193
4 194 196 197 195
4 196 198 199 197
4 198 200 201 199
4 200 202 203 201
4 202 204 205 203
4 204 206 207 205
4 206 208 209 207
4 208 210 211 209
4 210 212 213 211
4 212 214 215 213
4 214 216 217 215
4 216 218 219 217
4 218 220 221 219
4 220 222 223 221
4 222 224 225 223
4 224 226 227 225
4 226 228 229 227
4 228 230 231 229
4 230 232 233 231
4 232 234 235 233
4 234 236 237 235
4 236 238 239 237
4 238 240 241 239
4 240 242 243 241
4 242 244 245 243
4 244 246 247 245
4 246 248 249 247
4 248 250 251 249
4 250 252 253 251
4 252 254 255 253
4 254 256 257 255
4 256 258 259 257
4 258 260 261 259
4 260 262 263 261
4 262 264 265 263
4 264 266 267 265
4 266 268 269 267
4 268 270 271 269
4 270 272 273 271
4 272 274 275 273
4 274 276 277 275
4 276 278 279 277
4 278 280 281 279
4 280 282 283 281
4 282 284 285 283
4 284 286 287 285
4 286 288 289 287
4 288 290 291 289
4 290 292 293 291
4 292 294 295 293
4 294 296 297 295
4 296 298 299 297
4 298 300 301 299
4 300 302 303 301
4 302 304 305 303
4 304 306 307 305
4 306 308 309 307
4 308 310 311 309
4 310 312 313 311
4 312 314 315 313
4 314 316 317 315
4 316 318 319 317
4 318 320 321 319
4 320 322 323 321
4 322 324 325 323
4 324 326 327 325
4 326 328 329 327
4 328 330 331 329
4 330 332 333 331
4 332 334 335 333
4 334 336 337 335
4 336 338 339 337
4 338 340 341 339
4 340 342 343 341
4 342 344 345 343
4 344 346 347 345
4 346 348 349 347
4 348 350 351 349
4 352 353 354 355
4 355 354 356 357
4 357 356 358 359
4 359 358 360 361
4 361 360 362 363
4 363 362 364 365
4 365 364 366 367
4 367 366 368 369
4 369 368 370 371
4 371 370 372 373
4 373 372 374 375
4 375 374 376 377
4 377 376 378 379
4 379 378 380 381
4 381 380 382 383
4 383 382 384 385
4 385 384 386 387
4 387 386 388 389
4 389 388 390 391
4 391 390 392 393
4 393 392 394 395
4 395 394 396 397
4 397 396 398 399
4 399 398 400 401
4 401 400 402 403
4 403 402 404 405
4 405 404 406 407
4 407 406 408 409
4 409 408 410 411
4 411 410 412 413
4 413 412 414 415
4 415 414 416 417
4 417 416 418 419
4 419 418 420 421
4 421 420 422 423
4 423 422 424 425
4 425 424 426 427
4 427 426 428 429
4 429 428 430 431
4 431 430 432 433
4 433 432 434 435
4 435 434 436 437
4 437 436 438 439
4 439 438 440 441
4 441 440 442 443
4 443 442 444 445
4 445 444 446 447
4 447 446 448 449
4 449 448 450 451
4 451 450 351 350
4 352 452 453 353
4 452 454 455 453
4 454 456 457 455
4 456 458 459 457
4 458 460 461 459
4 460 462 463 461
4 462 464 465 463
4 464 466 467 465
4 466 468 469 467
4 468 470 471 469
4 470 472 473 471
4 472 474 475 473
4 474 476 477 475
4 476 478 479 477
4 478 480 481 479
4 480 482 483 481
4 482 484 485 483
4 484 486 487 485
4 486 488 489 487
4 488 490 491 489
4 490 492 493 491
4 492 494 495 493
4 494 496 497 495
4 496 498 499 497
4 498 500 501 499
4 500 502 503 501
4 502 504 505 503
4 504 506 507 505
4 506 508 509 507
4 508 510 511 509
4 510 512 513 511
4 512 514 515 513
4 514 516 517 515
4 516 518 519 517
4 518 520 521 519
4 520 522 523 521
4 522 524 525 523
4 524 526 527 525
4 526 528 529 527
4 528 530 531 529
4 530 532 533 531
4 532 534 535 533
4 534 536 537 535
4 536 538 539 537
4 538 540 541 539
4 540 542 543 541
4 542 544 545 543
4 544 546 547 545
4 546 548 549 547
4 548 550 551 549
4 550 552 553 551
4 552 554 555 553
4 554 556 557 555
4 556 558 559 557
4 558 560 561 559
4 560 562 563 561
4 562 564 565 563
4 564 566 567 565
4 566 568 569 567
4 568 570 571 569
4 570 572 573 571
4 572 574 575 573
4 574 576 577 575
4 576 578 579 577
4 578 580 581 579
4 580 582 583 581
4 582 584 585 583
4 584 586 587 585
4 586 588 589 587
4 588 590 591 589
4 590 592 593 591
4 592 594 595 593
4 594 596 597 595
4 596 598 599 597
4 598 600 601 599
4 600 602 603 601
4 602 604 605 603
4 604 606 607 605
4 606 608 609 607
4 608 610 611 609
4 610 612 613 611
4 612 614 615 613
4 614 616 617 615
4 616 618 619 617
4 618 620 621 619
4 620 622 623 621
4 622 624 625 623
4 624 626 627 625
4 626 628 629 627
4 628 630 631 629
4 630 632 633 631
4 632 634 635 633
4 634 636 637 635
4 636 638 639 637
4 638 640 641 639
4 640 642 643 641
4 642 644 645 643
4 644 646 647 645
4 646 648 649 647
4 648 650 651 649
POINT_DATA 652
FIELD attributes 1
U 3 652 float
2.49855 0.0140896 9.77407e-05
1.24979 0.0070451 4.88703e-05
1.24979 0.0070451 4.88703e-05
2.49855 0.0140896 9.77407e-05
0.00101238 1.94196e-06 0
0.00101238 1.94196e-06 0
0.000999697 3.536e-06 0
0.000999697 3.536e-06 0
0.000997075 3.50089e-06 0
0.000997075 3.50089e-06 0
0.000993772 3.01112e-06 0
0.000993772 3.01112e-06 0
0.000985409 2.65078e-06 0
0.000985409 2.65078e-06 0
0.000979533 2.50738e-06 0
0.000979533 2.50738e-06 0
0.000975342 2.47444e-06 0
0.000975342 2.47444e-06 0
0.00097053 2.46325e-06 0
0.00097053 2.46325e-06 0
0.000965424 2.45191e-06 0
0.000965424 2.45191e-06 0
0.000960483 2.44276e-06 0
0.000960483 2.44276e-06 0
0.000955621 2.43831e-06 0
0.000955621 2.43831e-06 0
0.000950748 2.43893e-06 0
0.000950748 2.43893e-06 0
0.000945863 2.44421e-06 0
0.000945863 2.44421e-06 0
0.000940966 2.45356e-06 0
0.000940966 2.45356e-06 0
0.000936047 2.46645e-06 0
0.000936047 2.46645e-06 0
0.000931099 2.48244e-06 0
0.000931099 2.48244e-06 0
0.000926116 2.5012e-06 0
0.000926116 2.5012e-06 0
0.000921094 2.52248e-06 0
0.000921094 2.52248e-06 0
0.000916026 2.5461e-06 0
0.000916026 2.5461e-06 0
0.00091091 2.57193e-06 0
0.00091091 2.57193e-06 0
0.00090574 2.59989e-06 0
0.00090574 2.59989e-06 0
0.000900512 2.6299e-06 0
0.000900512 2.6299e-06 0
0.000895222 2.66192e-06 0
0.000895222 2.66192e-06 0
0.000889867 2.69595e-06 0
0.000889867 2.69595e-06 0
0.000884441 2.73195e-06 0
0.000884441 2.73195e-06 0
0.000878942 2.76995e-06 0
0.000878942 2.76995e-06 0
0.000873365 2.80994e-06 0
0.000873365 2.80994e-06 0
0.000867707 2.85194e-06 0
0.000867707 2.85194e-06 0
0.000861962 2.89598e-06 0
0.000861962 2.89598e-06 0
0.000856128 2.94208e-06 0
0.000856128 2.94208e-06 0
0.000850199 2.99027e-06 0
0.000850199 2.99027e-06 0
0.000844172 3.04059e-06 0
0.000844172 3.04059e-06 0
0.000838042 3.09306e-06 0
0.000838042 3.09306e-06 0
0.000831806 3.14772e-06 0
0.000831806 3.14772e-06 0
0.000825458 3.20462e-06 0
0.000825458 3.20462e-06 0
0.000818994 3.26378e-06 0
0.000818994 3.26378e-06 0
0.00081241 3.32524e-06 0
0.00081241 3.32524e-06 0
0.000805701 3.38905e-06 0
0.000805701 3.38905e-06 0
0.000798862 3.45524e-06 0
0.000798862 3.45524e-06 0
0.000791888 3.52385e-06 0
0.000791888 3.52385e-06 0
0.000784774 3.59493e-06 0
0.000784774 3.59493e-06 0
0.000777516 3.6685e-06 0
0.000777516 3.6685e-06 0
0.000770108 3.7446e-06 0
0.000770108 3.7446e-06 0
0.000762546 3.82327e-06 0
0.000762546 3.82327e-06 0
0.000754824 3.90454e-06 0
0.000754824 3.90454e-06 0
0.000746936 3.98844e-06 0
0.000746936 3.98844e-06 0
0.000738878 4.07499e-06 0
0.000738878 4.07499e-06 0
0.000730645 4.16423e-06 0
0.000730645 4.16423e-06 0
0.00072223 4.25617e-06 0
0.00072223 4.25617e-06 0
0.000713628 4.35082e-06 0
0.000713628 4.35082e-06 0
0.000704834 4.4482e-06 0
0.000704834 4.4482e-06 0
0.000695842 4.54832e-06 0
0.000695842 4.54832e-06 0
0.000686648 4.65117e-06 0
0.000686648 4.65117e-06 0
0.000677245 4.75674e-06 0
0.000677245 4.75674e-06 0
0.000667627 4.86502e-06 0
0.000667627 4.86502e-06 0
0.00065779 4.97599e-06 0
0.00065779 4.97599e-06 0
0.000647729 5.08961e-06 0
0.000647729 5.08961e-06 0
0.000637437 5.20584e-06 0
0.000637437 5.20584e-06 0
0.000626909 5.32463e-06 0
0.000626909 5.32463e-06 0
0.000616142 5.44591e-06 0
0.000616142 5.44591e-06 0
0.000605129 5.5696e-06 0
0.000605129 5.5696e-06 0
0.000593866 5.69561e-06 0
0.000593866 5.69561e-06 0
0.000582348 5.82384e-06 0
0.000582348 5.82384e-06 0
0.000570571 5.95416e-06 0
0.000570571 5.95416e-06 0
0.000558532 6.08644e-06 0
0.000558532 6.08644e-06 0
0.000546225 6.22052e-06 0
0.000546225 6.22052e-06 0
0.000533649 6.35621e-06 0
0.000533649 6.35621e-06 0
0.0005208 6.49328e-06 0
0.0005208 6.49328e-06 0
0.000507675 6.6315e-06 0
0.000507675 6.6315e-06 0
0.000494272 6.77062e-06 0
0.000494272 6.77062e-06 0
0.00048059 6.91038e-06 0
0.00048059 6.91038e-06 0
0.000466627 7.05048e-06 0
0.000466627 7.05048e-06 0
0.000452383 7.19064e-06 0
0.000452383 7.19064e-06 0
0.000437858 7.33051e-06 0
0.000437858 7.33051e-06 0
0.000423052 7.46976e-06 0
0.000423052 7.46976e-06 0
0.000407968 7.60802e-06 0
0.000407968 7.60802e-06 0
0.000392608 7.74492e-06 0
0.000392608 7.74492e-06 0
0.000376973 7.88006e-06 0
0.000376973 7.88006e-06 0
0.000361069 8.01302e-06 0
0.000361069 8.01302e-06 0
0.0003449 8.14338e-06 0
0.0003449 8.14338e-06 0
0.000328472 8.2707e-06 0
0.000328472 8.2707e-06 0
0.00031179 8.39454e-06 0
0.00031179 8.39454e-06 0
0.000294862 8.51444e-06 0
0.000294862 8.51444e-06 0
0.000277697 8.62996e-06 0
0.000277697 8.62996e-06 0
0.000260303 8.74064e-06 0
0.000260303 8.74064e-06 0
0.000242691 8.84604e-06 0
0.000242691 8.84604e-06 0
0.000224872 8.9457e-06 0
0.000224872 8.9457e-06 0
0.000206858 9.03921e-06 0
0.000206858 9.03921e-06 0
0.000188661 9.12616e-06 0
0.000188661 9.12616e-06 0
0.000170295 9.20614e-06 0
0.000170295 9.20614e-06 0
0.000151774 9.27879e-06 0
0.000151774 9.27879e-06 0
0.000133115 9.34376e-06 0
0.000133115 9.34376e-06 0
0.000114332 9.40075e-06 0
0.000114332 9.40075e-06 0
9.54417e-05 9.44947e-06 0
9.54417e-05 9.44947e-06 0
7.64616e-05 9.48968e-06 0
7.64616e-05 9.48968e-06 0
5.7409e-05 9.52116e-06 0
5.7409e-05 9.52116e-06 0
3.83019e-05 9.54374e-06 0
3.83019e-05 9.54374e-06 0
1.91587e-05 9.55682e-06 0
1.91587e-05 9.55682e-06 0
9.58043e-06 9.56086e-06 0
9.58043e-06 9.56086e-06 0
9.64675e-06 1.92094e-05 0
9.64675e-06 1.92094e-05 0
9.69373e-06 3.85618e-05 0
9.69373e-06 3.85618e-05 0
9.68746e-06 5.79536e-05 0
9.68746e-06 5.79536e-05 0
9.71982e-06 7.73617e-05 0
9.71982e-06 7.73617e-05 0
9.76332e-06 9.68458e-05 0
9.76332e-06 9.68458e-05 0
9.81686e-06 0.000116427 0
9.81686e-06 0.000116427 0
9.88081e-06 0.000136126 0
9.88081e-06 0.000136126 0
9.95555e-06 0.000155963 0
9.95555e-06 0.000155963 0
1.00415e-05 0.000175961 0
1.00415e-05 0.000175961 0
1.01392e-05 0.000196142 0
1.01392e-05 0.000196142 0
1.02493e-05 0.00021653 0
1.02493e-05 0.00021653 0
1.03723e-05 0.000237152 0
1.03723e-05 0.000237152 0
1.05092e-05 0.000258033 0
1.05092e-05 0.000258033 0
1.06608e-05 0.000279202 0
1.06608e-05 0.000279202 0
1.08281e-05 0.000300689 0
1.08281e-05 0.000300689 0
1.10124e-05 0.000322528 0
1.10124e-05 0.000322528 0
1.12149e-05 0.000344752 0
1.12149e-05 0.000344752 0
1.14372e-05 0.000367401 0
1.14372e-05 0.000367401 0
1.16812e-05 0.000390515 0
1.16812e-05 0.000390515 0
1.19487e-05 0.00041414 0
1.19487e-05 0.00041414 0
1.22423e-05 0.000438325 0
1.22423e-05 0.000438325 0
1.25646e-05 0.000463124 0
1.25646e-05 0.000463124 0
1.29187e-05 0.000488598 0
1.29187e-05 0.000488598 0
1.33084e-05 0.000514815 0
1.33084e-05 0.000514815 0
1.3738e-05 0.000541848 0
1.3738e-05 0.000541848 0
1.42125e-05 0.000569782 0
1.42125e-05 0.000569782 0
1.47379e-05 0.000598714 0
1.47379e-05 0.000598714 0
1.53215e-05 0.00062875 0
1.53215e-05 0.00062875 0
1.59719e-05 0.000660016 0
1.59719e-05 0.000660016 0
1.66996e-05 0.000692654 0
1.66996e-05 0.000692654 0
1.75173e-05 0.00072683 0
1.75173e-05 0.00072683 0
1.84408e-05 0.000762738 0
1.84408e-05 0.000762738 0
1.94899e-05 0.000800608 0
1.94899e-05 0.000800608 0
2.06896e-05 0.000840711 0
2.06896e-05 0.000840711 0
2.20719e-05 0.000883378 0
2.20719e-05 0.000883378 0
2.36787e-05 0.000929004 0
2.36787e-05 0.000929004 0
2.55658e-05 0.000978107 0
2.55658e-05 0.000978107 0
2.7806e-05 0.00103124 0
2.7806e-05 0.00103124 0
3.05226e-05 0.00108942 0
3.05226e-05 0.00108942 0
3.37795e-05 0.00115305 0
3.37795e-05 0.00115305 0
3.80277e-05 0.00122499 0
3.80277e-05 0.00122499 0
4.35554e-05 0.00130444 0
4.35554e-05 0.00130444 0
4.81827e-05 0.00139798 0
4.81827e-05 0.00139798 0
7.20373e-05 0.0015067 0
7.20373e-05 0.0015067 0
5.23168e-05 0.0016373 0
5.23168e-05 0.0016373 0
0.000137879 0.00180011 0
0.000137879 0.00180011 0
0.000139191 0.00202304 0
0.000139191 0.00202304 0
0.000279597 0.00235505 0
0.000279597 0.00235505 0
0.000356847 0.00281551 0
0.000356847 0.00281551 0
0.00102132 0.00249373 0
0.00102132 0.00249373 0
-4.79626e-05 0.000993868 0
-4.79626e-05 0.000993868 0
-0.00106549 -0.000357981 0
-0.00106549 -0.000357981 0
-0.000758656 -0.000583645 0
-0.000758656 -0.000583645 0
-0.000523956 -0.000575394 0
-0.000523956 -0.000575394 0
0.000409189 -0.000568073 0
0.000409189 -0.000568073 0
0.000899068 -0.000327106 0
0.000899068 -0.000327106 0
0.00143649 -0.000248823 0
0.00143649 -0.000248823 0
0.00168209 -0.000165179 0
0.00168209 -0.000165179 0
0.00183962 -0.000106948 0
0.00183962 -0.000106948 0
0.00193233 -6.9776e-05 0
0.00193233 -6.9776e-05 0
0.00198735 -4.5846e-05 0
0.00198735 -4.5846e-05 0
0.00202483 -3.11968e-05 0
0.00202483 -3.11968e-05 0
0.00205445 -2.292e-05 0
0.00205445 -2.292e-05 0
0.00208107 -1.88486e-05 0
0.00208107 -1.88486e-05 0
0.00210816 -1.73694e-05 0
0.00210816 -1.73694e-05 0
0.00213663 -1.70824e-05 0
0.00213663 -1.70824e-05 0
0.00217228 -2.213e-05 0
0.00217228 -2.213e-05 0
0.00220926 -1.71184e-05 0
0.00220926 -1.71184e-05 0
0.0022642 -4.21196e-05 0
0.0022642 -4.21196e-05 0
0.00232382 -2.50843e-05 0
0.00232382 -2.50843e-05 0
0.00241342 -6.40511e-05 0
0.00241342 -6.40511e-05 0
0.00252627 -8.17586e-05 0
0.00252627 -8.17586e-05 0
0.00271869 -0.000160657 0
0.00271869 -0.000160657 0
0.00297615 -0.000212075 0
0.00297615 -0.000212075 0
0.00196429 -5.2466e-05 0
0.00196429 -5.2466e-05 0
8.7137e-06 -8.72426e-06 0
8.7137e-06 -8.72426e-06 0
8.71817e-06 -1.74549e-05 0
8.71817e-06 -1.74549e-05 0
8.73067e-06 -3.49286e-05 0
8.73067e-06 -3.49286e-05 0
8.75079e-06 -5.24351e-05 0
8.75079e-06 -5.24351e-05 0
8.77902e-06 -6.99908e-05 0
8.77902e-06 -6.99908e-05 0
8.8155e-06 -8.7612e-05 0
8.8155e-06 -8.7612e-05 0
8.86038e-06 -0.000105316 0
8.86038e-06 -0.000105316 0
8.91383e-06 -0.000123119 0
8.91383e-06 -0.000123119 0
8.97604e-06 -0.000141039 0
8.97604e-06 -0.000141039 0
9.04723e-06 -0.000159095 0
9.04723e-06 -0.000159095 0
9.12768e-06 -0.000177304 0
9.12768e-06 -0.000177304 0
9.21768e-06 -0.000195687 0
9.21768e-06 -0.000195687 0
9.31753e-06 -0.000214262 0
9.31753e-06 -0.000214262 0
9.42762e-06 -0.00023305 0
9.42762e-06 -0.00023305 0
9.5483e-06 -0.000252074 0
9.5483e-06 -0.000252074 0
9.68001e-06 -0.000271354 0
9.68001e-06 -0.000271354 0
9.82316e-06 -0.000290914 0
9.82316e-06 -0.000290914 0
9.9782e-06 -0.00031078 0
9.9782e-06 -0.00031078 0
1.01456e-05 -0.000330975 0
1.01456e-05 -0.000330975 0
1.03257e-05 -0.000351526 0
1.03257e-05 -0.000351526 0
1.0519e-05 -0.000372461 0
1.0519e-05 -0.000372461 0
1.07257e-05 -0.000393808 0
1.07257e-05 -0.000393808 0
1.09461e-05 -0.000415597 0
1.09461e-05 -0.000415597 0
1.118e-05 -0.000437858 0
1.118e-05 -0.000437858 0
1.14272e-05 -0.000460621 0
1.14272e-05 -0.000460621 0
1.16867e-05 -0.000483916 0
1.16867e-05 -0.000483916 0
1.1957e-05 -0.000507771 0
1.1957e-05 -0.000507771 0
1.22353e-05 -0.000532213 0
1.22353e-05 -0.000532213 0
1.25175e-05 -0.000557262 0
1.25175e-05 -0.000557262 0
1.27968e-05 -0.000582931 0
1.27968e-05 -0.000582931 0
1.3063e-05 -0.000609219 0
1.3063e-05 -0.000609219 0
1.33002e-05 -0.000636103 0
1.33002e-05 -0.000636103 0
1.34837e-05 -0.000663529 0
1.34837e-05 -0.000663529 0
1.35749e-05 -0.000691391 0
1.35749e-05 -0.000691391 0
1.35106e-05 -0.000719503 0
1.35106e-05 -0.000719503 0
1.31849e-05 -0.000747554 0
1.31849e-05 -0.000747554 0
1.24134e-05 -0.000775031 0
1.24134e-05 -0.000775031 0
1.08663e-05 -0.00080109 0
1.08663e-05 -0.00080109 0
7.94867e-06 -0.000824348 0
7.94867e-06 -0.000824348 0
2.60458e-06 -0.000842626 0
2.60458e-06 -0.000842626 0
-6.89833e-06 -0.00085241 0
-6.89833e-06 -0.00085241 0
-2.29064e-05 -0.000845215 0
-2.29064e-05 -0.000845215 0
-4.95021e-05 -0.000799767 0
-4.95021e-05 -0.000799767 0
-0.000102711 -0.000752661 0
-0.000102711 -0.000752661 0
-0.000144594 -0.000492552 0
-0.000144594 -0.000492552 0
-0.000331603 -0.000252257 0
-0.000331603 -0.000252257 0
-0.000356815 0.000509907 0
-0.000356815 0.000509907 0
-0.000457536 0.000931571 0
-0.000457536 0.000931571 0
-0.000667676 0.0015194 0
-0.000667676 0.0015194 0
0.000111558 0.0012314 0
0.000111558 0.0012314 0
1.74912e-05 -8.77288e-06 0
1.74912e-05 -8.77288e-06 0
3.50654e-05 -8.7885e-06 0
3.50654e-05 -8.7885e-06 0
5.26051e-05 -8.74205e-06 0
5.26051e-05 -8.74205e-06 0
7.00626e-05 -8.7121e-06 0
7.00626e-05 -8.7121e-06 0
8.74549e-05 -8.67505e-06 0
8.74549e-05 -8.67505e-06 0
0.000104765 -8.62998e-06 0
0.000104765 -8.62998e-06 0
0.000121978 -8.57714e-06 0
0.000121978 -8.57714e-06 0
0.000139077 -8.51674e-06 0
0.000139077 -8.51674e-06 0
0.000156049 -8.44904e-06 0
0.000156049 -8.44904e-06 0
0.000172877 -8.37429e-06 0
0.000172877 -8.37429e-06 0
0.00018955 -8.29278e-06 0
0.00018955 -8.29278e-06 0
0.000206053 -8.20485e-06 0
0.000206053 -8.20485e-06 0
0.000222374 -8.11081e-06 0
0.000222374 -8.11081e-06 0
0.000238501 -8.01101e-06 0
0.000238501 -8.01101e-06 0
0.000254423 -7.90584e-06 0
0.000254423 -7.90584e-06 0
0.000270129 -7.79565e-06 0
0.000270129 -7.79565e-06 0
0.000285611 -7.68085e-06 0
0.000285611 -7.68085e-06 0
0.000300858 -7.56181e-06 0
0.000300858 -7.56181e-06 0
0.000315864 -7.43895e-06 0
0.000315864 -7.43895e-06 0
0.00033062 -7.31264e-06 0
0.00033062 -7.31264e-06 0
0.00034512 -7.1833e-06 0
0.00034512 -7.1833e-06 0
0.000359359 -7.0513e-06 0
0.000359359 -7.0513e-06 0
0.000373331 -6.91702e-06 0
0.000373331 -6.91702e-06 0
0.000387033 -6.78084e-06 0
0.000387033 -6.78084e-06 0
0.000400461 -6.64312e-06 0
0.000400461 -6.64312e-06 0
0.000413612 -6.5042e-06 0
0.000413612 -6.5042e-06 0
0.000426484 -6.36442e-06 0
0.000426484 -6.36442e-06 0
0.000439075 -6.22409e-06 0
0.000439075 -6.22409e-06 0
0.000451386 -6.08351e-06 0
0.000451386 -6.08351e-06 0
0.000463415 -5.94296e-06 0
0.000463415 -5.94296e-06 0
0.000475164 -5.80271e-06 0
0.000475164 -5.80271e-06 0
0.000486632 -5.663e-06 0
0.000486632 -5.663e-06 0
0.000497822 -5.52407e-06 0
0.000497822 -5.52407e-06 0
0.000508734 -5.38611e-06 0
0.000508734 -5.38611e-06 0
0.000519372 -5.24932e-06 0
0.000519372 -5.24932e-06 0
0.000529737 -5.11388e-06 0
0.000529737 -5.11388e-06 0
0.000539833 -4.97993e-06 0
0.000539833 -4.97993e-06 0
0.000549662 -4.84762e-06 0
0.000549662 -4.84762e-06 0
0.000559229 -4.71707e-06 0
0.000559229 -4.71707e-06 0
0.000568536 -4.58839e-06 0
0.000568536 -4.58839e-06 0
0.000577587 -4.46166e-06 0
0.000577587 -4.46166e-06 0
0.000586387 -4.33698e-06 0
0.000586387 -4.33698e-06 0
0.00059494 -4.2144e-06 0
0.00059494 -4.2144e-06 0
0.000603249 -4.09397e-06 0
0.000603249 -4.09397e-06 0
0.00061132 -3.97575e-06 0
0.00061132 -3.97575e-06 0
0.000619156 -3.85975e-06 0
0.000619156 -3.85975e-06 0
0.000626763 -3.74602e-06 0
0.000626763 -3.74602e-06 0
0.000634144 -3.63454e-06 0
0.000634144 -3.63454e-06 0
0.000641305 -3.52535e-06 0
0.000641305 -3.52535e-06 0
0.000648249 -3.41842e-06 0
0.000648249 -3.41842e-06 0
0.000654982 -3.31375e-06 0
0.000654982 -3.31375e-06 0
0.000661508 -3.21133e-06 0
0.000661508 -3.21133e-06 0
0.000667831 -3.11114e-06 0
0.000667831 -3.11114e-06 0
0.000673956 -3.01314e-06 0
0.000673956 -3.01314e-06 0
0.000679887 -2.91732e-06 0
0.000679887 -2.91732e-06 0
0.000685628 -2.82363e-06 0
0.000685628 -2.82363e-06 0
0.000691184 -2.73204e-06 0
0.000691184 -2.73204e-06 0
0.000696559 -2.64252e-06 0
0.000696559 -2.64252e-06 0
0.000701757 -2.555e-06 0
0.000701757 -2.555e-06 0
0.000706782 -2.46947e-06 0
0.000706782 -2.46947e-06 0
0.000711637 -2.38585e-06 0
0.000711637 -2.38585e-06 0
0.000716327 -2.30412e-06 0
0.000716327 -2.30412e-06 0
0.000720856 -2.22421e-06 0
0.000720856 -2.22421e-06 0
0.000725226 -2.14609e-06 0
0.000725226 -2.14609e-06 0
0.000729442 -2.06969e-06 0
0.000729442 -2.06969e-06 0
0.000733507 -1.99496e-06 0
0.000733507 -1.99496e-06 0
0.000737424 -1.92186e-06 0
0.000737424 -1.92186e-06 0
0.000741197 -1.85033e-06 0
0.000741197 -1.85033e-06 0
0.000744827 -1.78032e-06 0
0.000744827 -1.78032e-06 0
0.00074832 -1.71177e-06 0
0.00074832 -1.71177e-06 0
0.000751676 -1.64464e-06 0
0.000751676 -1.64464e-06 0
0.0007549 -1.57888e-06 0
0.0007549 -1.57888e-06 0
0.000757993 -1.51442e-06 0
0.000757993 -1.51442e-06 0
0.000760959 -1.45122e-06 0
0.000760959 -1.45122e-06 0
0.000763799 -1.38923e-06 0
0.000763799 -1.38923e-06 0
0.000766517 -1.32839e-06 0
0.000766517 -1.32839e-06 0
0.000769114 -1.26867e-06 0
0.000769114 -1.26867e-06 0
0.000771593 -1.21e-06 0
0.000771593 -1.21e-06 0
0.000773955 -1.15234e-06 0
0.000773955 -1.15234e-06 0
0.000776203 -1.09564e-06 0
0.000776203 -1.09564e-06 0
0.000778339 -1.03985e-06 0
0.000778339 -1.03985e-06 0
0.000780364 -9.84933e-07 0
0.000780364 -9.84933e-07 0
0.00078228 -9.30831e-07 0
0.00078228 -9.30831e-07 0
0.000784088 -8.77503e-07 0
0.000784088 -8.77503e-07 0
0.00078579 -8.24902e-07 0
0.00078579 -8.24902e-07 0
0.000787388 -7.72982e-07 0
0.000787388 -7.72982e-07 0
0.000788883 -7.21701e-07 0
0.000788883 -7.21701e-07 0
0.000790276 -6.71013e-07 0
0.000790276 -6.71013e-07 0
0.000791568 -6.20875e-07 0
0.000791568 -6.20875e-07 0
0.00079276 -5.71244e-07 0
0.00079276 -5.71244e-07 0
0.000793853 -5.22076e-07 0
0.000793853 -5.22076e-07 0
0.000794849 -4.7333e-07 0
0.000794849 -4.7333e-07 0
0.000795747 -4.24962e-07 0
0.000795747 -4.24962e-07 0
0.000796549 -3.76941e-07 0
0.000796549 -3.76941e-07 0
0.000797255 -3.29145e-07 0
0.000797255 -3.29145e-07 0
0.000797865 -2.8201e-07 0
0.000797865 -2.8201e-07 0
0.000798385 -2.33224e-07 0
0.000798385 -2.33224e-07 0
0.000798796 -1.91057e-07 0
0.000798796 -1.91057e-07 0
0.999884 -0.000116272 0
0.999884 -0.000116272 0
1.99897 -0.000232369 0
1.99897 -0.000232369 0
