/*--------------------------------*- C++ -*----------------------------------*\
| =========                 |                                                 |
| \\      /  F ield         | OpenFOAM: The Open Source CFD Toolbox           |
|  \\    /   O peration     | Version:  4.1                                   |
|   \\  /    A nd           | Web:      www.OpenFOAM.org                      |
|    \\/     M anipulation  |                                                 |
\*---------------------------------------------------------------------------*/
FoamFile
{
    version     2.0;
    format      ascii;
    class       volScalarField;
    location    "80";
    object      p;
}
// * * * * * * * * * * * * * * * * * * * * * * * * * * * * * * * * * * * * * //

dimensions      [0 2 -2 0 0 0 0];

internalField   nonuniform List<scalar> 
43750
(
9.28045e-05
8.40976e-05
7.79803e-05
7.5071e-05
7.29641e-05
7.08917e-05
6.90925e-05
6.77328e-05
6.67595e-05
6.60777e-05
6.56253e-05
6.53568e-05
6.52296e-05
6.52052e-05
6.52539e-05
6.53545e-05
6.54926e-05
6.56589e-05
6.58483e-05
6.60582e-05
6.62881e-05
6.65385e-05
6.68104e-05
6.71047e-05
6.74218e-05
6.77614e-05
6.81225e-05
6.8503e-05
6.89004e-05
6.93118e-05
6.97344e-05
7.0166e-05
7.06048e-05
7.10501e-05
7.15018e-05
7.19603e-05
7.24266e-05
7.29019e-05
7.3387e-05
7.38825e-05
7.43885e-05
7.49045e-05
7.54296e-05
7.59625e-05
7.6502e-05
7.70468e-05
7.75961e-05
7.81493e-05
7.8706e-05
7.92664e-05
7.98303e-05
8.03981e-05
8.09696e-05
8.15451e-05
8.21244e-05
8.27075e-05
8.32944e-05
8.38847e-05
8.44783e-05
8.50749e-05
8.56742e-05
8.62758e-05
8.68792e-05
8.7484e-05
8.80897e-05
8.86957e-05
8.93013e-05
8.9906e-05
9.0509e-05
9.11096e-05
9.1707e-05
9.23002e-05
9.28884e-05
9.34707e-05
9.40461e-05
9.46134e-05
9.51717e-05
9.57198e-05
9.62565e-05
9.67806e-05
9.72909e-05
9.77861e-05
9.82649e-05
9.87259e-05
9.91677e-05
9.95891e-05
9.99886e-05
0.000100365
0.000100717
0.000101042
0.000101341
0.000101612
0.000101853
0.000102064
0.000102243
0.000102392
0.000102511
0.0001026
0.000102662
0.000102693
7.98989e-05
7.83156e-05
7.60562e-05
7.41739e-05
7.25168e-05
7.08482e-05
6.93056e-05
6.80558e-05
6.71176e-05
6.64393e-05
6.59714e-05
6.5675e-05
6.55135e-05
6.54532e-05
6.54668e-05
6.55347e-05
6.56436e-05
6.57845e-05
6.59521e-05
6.61437e-05
6.63584e-05
6.65963e-05
6.6858e-05
6.71441e-05
6.74549e-05
6.77899e-05
6.8148e-05
6.85269e-05
6.89239e-05
6.93358e-05
6.97593e-05
7.01918e-05
7.06311e-05
7.10763e-05
7.15272e-05
7.19844e-05
7.24492e-05
7.29231e-05
7.34073e-05
7.39024e-05
7.44086e-05
7.49253e-05
7.54514e-05
7.59855e-05
7.6526e-05
7.70718e-05
7.76218e-05
7.81755e-05
7.87326e-05
7.92933e-05
7.98575e-05
8.04255e-05
8.09973e-05
8.15731e-05
8.21527e-05
8.27362e-05
8.33234e-05
8.39141e-05
8.45082e-05
8.51052e-05
8.57049e-05
8.63069e-05
8.69108e-05
8.7516e-05
8.81222e-05
8.87286e-05
8.93347e-05
8.99399e-05
9.05433e-05
9.11443e-05
9.17421e-05
9.23357e-05
9.29244e-05
9.3507e-05
9.40827e-05
9.46504e-05
9.5209e-05
9.57574e-05
9.62944e-05
9.68189e-05
9.73294e-05
9.78248e-05
9.83038e-05
9.8765e-05
9.92071e-05
9.96287e-05
0.000100028
0.000100405
0.000100757
0.000101083
0.000101382
0.000101652
0.000101894
0.000102104
0.000102284
0.000102432
0.000102548
0.000102634
0.000102693
0.000102726
7.78828e-05
7.71436e-05
7.55023e-05
7.37113e-05
7.21718e-05
7.08083e-05
6.95687e-05
6.85048e-05
6.76484e-05
6.69842e-05
6.64854e-05
6.61303e-05
6.58984e-05
6.57683e-05
6.57196e-05
6.57352e-05
6.5802e-05
6.59102e-05
6.60529e-05
6.62258e-05
6.64263e-05
6.66532e-05
6.6906e-05
6.71848e-05
6.74893e-05
6.78189e-05
6.81721e-05
6.85469e-05
6.89404e-05
6.93495e-05
6.97711e-05
7.02025e-05
7.06415e-05
7.10869e-05
7.15382e-05
7.19957e-05
7.24604e-05
7.29334e-05
7.34162e-05
7.39096e-05
7.44144e-05
7.49301e-05
7.54558e-05
7.599e-05
7.65311e-05
7.70775e-05
7.7628e-05
7.81821e-05
7.87395e-05
7.93002e-05
7.98646e-05
8.04327e-05
8.10047e-05
8.15808e-05
8.21609e-05
8.27449e-05
8.33327e-05
8.39241e-05
8.45189e-05
8.51168e-05
8.57174e-05
8.63204e-05
8.69253e-05
8.75318e-05
8.81391e-05
8.87469e-05
8.93543e-05
8.99609e-05
9.05659e-05
9.11684e-05
9.17678e-05
9.23631e-05
9.29534e-05
9.35378e-05
9.41153e-05
9.46848e-05
9.52453e-05
9.57955e-05
9.63344e-05
9.68607e-05
9.73731e-05
9.78704e-05
9.83512e-05
9.88143e-05
9.92581e-05
9.96814e-05
0.000100083
0.000100461
0.000100814
0.000101142
0.000101442
0.000101714
0.000101956
0.000102167
0.000102347
0.000102494
0.000102609
0.000102692
0.000102751
0.00010279
7.54272e-05
7.49094e-05
7.3863e-05
7.26273e-05
7.14743e-05
7.04238e-05
6.94433e-05
6.85625e-05
6.78209e-05
6.72255e-05
6.67633e-05
6.64195e-05
6.61803e-05
6.60312e-05
6.59575e-05
6.59459e-05
6.59857e-05
6.60687e-05
6.61889e-05
6.6342e-05
6.65252e-05
6.67369e-05
6.6976e-05
6.7242e-05
6.75343e-05
6.78518e-05
6.81933e-05
6.85569e-05
6.89401e-05
6.93403e-05
6.9755e-05
7.01815e-05
7.06179e-05
7.10629e-05
7.15155e-05
7.19755e-05
7.24431e-05
7.2919e-05
7.34038e-05
7.38982e-05
7.44026e-05
7.49171e-05
7.5441e-05
7.59733e-05
7.65126e-05
7.70576e-05
7.76071e-05
7.81604e-05
7.87172e-05
7.92774e-05
7.98414e-05
8.04093e-05
8.09813e-05
8.15575e-05
8.21378e-05
8.27223e-05
8.33107e-05
8.39028e-05
8.44985e-05
8.50974e-05
8.56993e-05
8.63036e-05
8.69101e-05
8.75182e-05
8.81274e-05
8.87371e-05
8.93468e-05
8.99556e-05
9.0563e-05
9.11682e-05
9.17703e-05
9.23684e-05
9.29618e-05
9.35493e-05
9.413e-05
9.47028e-05
9.52667e-05
9.58204e-05
9.63628e-05
9.68926e-05
9.74086e-05
9.79095e-05
9.83938e-05
9.88603e-05
9.93076e-05
9.97342e-05
0.000100139
0.00010052
0.000100876
0.000101206
0.000101509
0.000101783
0.000102027
0.000102239
0.00010242
0.000102567
0.00010268
0.000102762
0.00010282
0.000102864
7.36395e-05
7.33445e-05
7.26868e-05
7.18166e-05
7.09185e-05
7.00623e-05
6.92547e-05
6.85159e-05
6.78757e-05
6.73466e-05
6.69247e-05
6.66008e-05
6.63656e-05
6.62093e-05
6.61217e-05
6.60928e-05
6.61144e-05
6.61797e-05
6.62835e-05
6.64218e-05
6.65917e-05
6.67911e-05
6.70187e-05
6.72732e-05
6.75537e-05
6.78591e-05
6.81881e-05
6.85389e-05
6.89097e-05
6.92983e-05
6.97028e-05
7.01213e-05
7.05521e-05
7.09942e-05
7.14468e-05
7.19093e-05
7.23814e-05
7.28628e-05
7.33532e-05
7.38523e-05
7.43598e-05
7.48754e-05
7.53987e-05
7.59291e-05
7.64658e-05
7.70079e-05
7.75548e-05
7.81059e-05
7.86608e-05
7.92197e-05
7.97825e-05
8.03496e-05
8.09209e-05
8.14967e-05
8.20768e-05
8.26613e-05
8.32499e-05
8.38425e-05
8.44388e-05
8.50385e-05
8.56414e-05
8.6247e-05
8.68549e-05
8.74647e-05
8.80758e-05
8.86876e-05
8.92996e-05
8.9911e-05
9.05212e-05
9.11294e-05
9.17347e-05
9.23363e-05
9.29332e-05
9.35246e-05
9.41093e-05
9.46863e-05
9.52545e-05
9.58126e-05
9.63596e-05
9.6894e-05
9.74147e-05
9.79203e-05
9.84093e-05
9.88805e-05
9.93324e-05
9.97635e-05
0.000100172
0.000100558
0.000100918
0.000101252
0.000101558
0.000101834
0.00010208
0.000102295
0.000102477
0.000102625
0.000102738
0.000102819
0.000102876
0.000102921
7.22605e-05
7.20715e-05
7.16226e-05
7.09869e-05
7.029e-05
6.9604e-05
6.89499e-05
6.83426e-05
6.78027e-05
6.73438e-05
6.69684e-05
6.66727e-05
6.64515e-05
6.62988e-05
6.62077e-05
6.61712e-05
6.6183e-05
6.62376e-05
6.63305e-05
6.64581e-05
6.66177e-05
6.6807e-05
6.70245e-05
6.72687e-05
6.75385e-05
6.78327e-05
6.81499e-05
6.84886e-05
6.88472e-05
6.92242e-05
6.96179e-05
7.00269e-05
7.04501e-05
7.08865e-05
7.13358e-05
7.17975e-05
7.22714e-05
7.27569e-05
7.32531e-05
7.37587e-05
7.42722e-05
7.47923e-05
7.53181e-05
7.58488e-05
7.63842e-05
7.69241e-05
7.74682e-05
7.80165e-05
7.8569e-05
7.91257e-05
7.96868e-05
8.02525e-05
8.08227e-05
8.13975e-05
8.19769e-05
8.25608e-05
8.31491e-05
8.37416e-05
8.4338e-05
8.49381e-05
8.55416e-05
8.6148e-05
8.6757e-05
8.7368e-05
8.79806e-05
8.85942e-05
8.92082e-05
8.9822e-05
9.04347e-05
9.10457e-05
9.16541e-05
9.2259e-05
9.28595e-05
9.34547e-05
9.40435e-05
9.46247e-05
9.51974e-05
9.57602e-05
9.6312e-05
9.68514e-05
9.73771e-05
9.78878e-05
9.8382e-05
9.88583e-05
9.93152e-05
9.97513e-05
0.000100165
0.000100555
0.00010092
0.000101258
0.000101567
0.000101847
0.000102097
0.000102314
0.000102497
0.000102647
0.000102761
0.000102842
0.000102899
0.000102944
7.11319e-05
7.09985e-05
7.06779e-05
7.021e-05
6.96765e-05
6.9134e-05
6.86063e-05
6.81079e-05
6.76552e-05
6.72616e-05
6.69328e-05
6.66688e-05
6.64673e-05
6.63249e-05
6.62372e-05
6.61993e-05
6.62066e-05
6.62547e-05
6.634e-05
6.64594e-05
6.66104e-05
6.6791e-05
6.69995e-05
6.72344e-05
6.74944e-05
6.77783e-05
6.80848e-05
6.84126e-05
6.87603e-05
6.91265e-05
6.951e-05
6.99096e-05
7.03244e-05
7.07537e-05
7.11974e-05
7.16552e-05
7.21271e-05
7.26127e-05
7.31111e-05
7.36206e-05
7.41389e-05
7.46638e-05
7.51934e-05
7.57264e-05
7.62625e-05
7.68016e-05
7.73441e-05
7.78903e-05
7.84406e-05
7.89953e-05
7.95546e-05
8.01185e-05
8.06872e-05
8.12608e-05
8.18391e-05
8.2422e-05
8.30096e-05
8.36015e-05
8.41975e-05
8.47975e-05
8.54009e-05
8.60076e-05
8.6617e-05
8.72288e-05
8.78424e-05
8.84572e-05
8.90727e-05
8.96881e-05
9.03029e-05
9.09161e-05
9.15271e-05
9.21348e-05
9.27385e-05
9.3337e-05
9.39294e-05
9.45145e-05
9.50912e-05
9.56584e-05
9.62146e-05
9.67586e-05
9.72891e-05
9.78047e-05
9.83038e-05
9.87851e-05
9.9247e-05
9.96879e-05
0.000100106
0.000100501
0.00010087
0.000101212
0.000101526
0.000101809
0.000102062
0.000102281
0.000102468
0.000102619
0.000102735
0.000102816
0.000102873
0.000102918
7.01802e-05
7.00831e-05
6.9849e-05
6.95006e-05
6.9091e-05
6.86618e-05
6.82356e-05
6.78269e-05
6.74499e-05
6.71164e-05
6.68332e-05
6.66024e-05
6.64239e-05
6.62959e-05
6.62161e-05
6.61812e-05
6.6188e-05
6.62331e-05
6.63139e-05
6.64276e-05
6.65722e-05
6.67457e-05
6.69466e-05
6.71735e-05
6.7425e-05
6.76999e-05
6.79971e-05
6.83154e-05
6.86534e-05
6.90101e-05
6.93844e-05
6.97752e-05
7.01819e-05
7.06039e-05
7.10411e-05
7.14934e-05
7.19609e-05
7.24434e-05
7.29402e-05
7.34496e-05
7.39692e-05
7.44963e-05
7.50282e-05
7.55632e-05
7.61003e-05
7.66397e-05
7.71815e-05
7.77266e-05
7.82754e-05
7.88284e-05
7.9386e-05
7.99482e-05
8.05154e-05
8.10874e-05
8.16643e-05
8.2246e-05
8.28324e-05
8.34233e-05
8.40185e-05
8.46178e-05
8.52207e-05
8.58271e-05
8.64365e-05
8.70484e-05
8.76623e-05
8.82777e-05
8.8894e-05
8.95106e-05
9.01267e-05
9.07415e-05
9.13544e-05
9.19643e-05
9.25703e-05
9.31715e-05
9.37669e-05
9.43552e-05
9.49353e-05
9.5506e-05
9.60661e-05
9.66141e-05
9.71488e-05
9.76686e-05
9.8172e-05
9.86577e-05
9.9124e-05
9.95693e-05
9.99921e-05
0.000100391
0.000100764
0.00010111
0.000101427
0.000101714
0.000101969
0.000102191
0.00010238
0.000102533
0.00010265
0.000102733
0.00010279
0.000102835
6.93581e-05
6.92858e-05
6.9111e-05
6.88472e-05
6.85304e-05
6.81907e-05
6.78475e-05
6.75141e-05
6.72026e-05
6.69233e-05
6.6683e-05
6.6485e-05
6.63306e-05
6.62194e-05
6.61503e-05
6.61215e-05
6.61309e-05
6.61759e-05
6.62546e-05
6.63648e-05
6.65048e-05
6.66728e-05
6.68675e-05
6.70876e-05
6.73317e-05
6.75989e-05
6.78879e-05
6.81977e-05
6.85272e-05
6.88754e-05
6.92414e-05
6.96243e-05
7.00234e-05
7.04385e-05
7.08692e-05
7.13155e-05
7.17777e-05
7.22554e-05
7.27481e-05
7.32544e-05
7.37719e-05
7.42979e-05
7.48295e-05
7.53645e-05
7.59018e-05
7.6441e-05
7.69824e-05
7.75266e-05
7.80742e-05
7.86258e-05
7.91818e-05
7.97424e-05
8.03078e-05
8.08781e-05
8.14533e-05
8.20334e-05
8.26183e-05
8.32078e-05
8.38017e-05
8.43998e-05
8.50018e-05
8.56073e-05
8.6216e-05
8.68274e-05
8.74411e-05
8.80565e-05
8.8673e-05
8.929e-05
8.99067e-05
9.05225e-05
9.11365e-05
9.17478e-05
9.23556e-05
9.29587e-05
9.35562e-05
9.41469e-05
9.47297e-05
9.53033e-05
9.58664e-05
9.64176e-05
9.69556e-05
9.74789e-05
9.7986e-05
9.84752e-05
9.89452e-05
9.93942e-05
9.98206e-05
0.000100223
0.000100599
0.000100948
0.000101268
0.000101558
0.000101816
0.00010204
0.000102231
0.000102386
0.000102505
0.000102588
0.000102646
0.000102691
6.86322e-05
6.85775e-05
6.84446e-05
6.82426e-05
6.79962e-05
6.77277e-05
6.74522e-05
6.71814e-05
6.69258e-05
6.66942e-05
6.64929e-05
6.63261e-05
6.61955e-05
6.6102e-05
6.60454e-05
6.60248e-05
6.60387e-05
6.60857e-05
6.61642e-05
6.62726e-05
6.64094e-05
6.65733e-05
6.67629e-05
6.69772e-05
6.7215e-05
6.74753e-05
6.77571e-05
6.80594e-05
6.83813e-05
6.87218e-05
6.90802e-05
6.94557e-05
6.98479e-05
7.02562e-05
7.06806e-05
7.11209e-05
7.15773e-05
7.20496e-05
7.25371e-05
7.30384e-05
7.35516e-05
7.40739e-05
7.46027e-05
7.51358e-05
7.56715e-05
7.62095e-05
7.67497e-05
7.72926e-05
7.78388e-05
7.83888e-05
7.8943e-05
7.95017e-05
8.00652e-05
8.06335e-05
8.12067e-05
8.17848e-05
8.23678e-05
8.29554e-05
8.35475e-05
8.41439e-05
8.47443e-05
8.53485e-05
8.59559e-05
8.65663e-05
8.71791e-05
8.77937e-05
8.84098e-05
8.90265e-05
8.96432e-05
9.02592e-05
9.08736e-05
9.14856e-05
9.20942e-05
9.26985e-05
9.32974e-05
9.38897e-05
9.44743e-05
9.505e-05
9.56153e-05
9.6169e-05
9.67095e-05
9.72355e-05
9.77453e-05
9.82375e-05
9.87103e-05
9.91622e-05
9.95915e-05
9.99965e-05
0.000100376
0.000100727
0.00010105
0.000101342
0.000101601
0.000101828
0.00010202
0.000102176
0.000102296
0.00010238
0.000102438
0.000102484
6.79794e-05
6.79373e-05
6.78353e-05
6.76792e-05
6.74869e-05
6.72746e-05
6.70541e-05
6.68353e-05
6.66269e-05
6.64368e-05
6.62707e-05
6.61327e-05
6.60251e-05
6.59494e-05
6.5906e-05
6.58946e-05
6.59146e-05
6.5965e-05
6.60447e-05
6.61525e-05
6.62874e-05
6.64482e-05
6.66338e-05
6.68433e-05
6.70756e-05
6.73299e-05
6.76052e-05
6.79007e-05
6.82156e-05
6.8549e-05
6.89003e-05
6.92689e-05
6.96543e-05
7.00561e-05
7.04741e-05
7.09084e-05
7.13588e-05
7.18251e-05
7.23067e-05
7.28022e-05
7.33098e-05
7.38269e-05
7.43511e-05
7.48803e-05
7.54129e-05
7.59482e-05
7.64861e-05
7.70269e-05
7.7571e-05
7.81188e-05
7.86708e-05
7.92272e-05
7.97883e-05
8.03542e-05
8.09249e-05
8.15006e-05
8.20811e-05
8.26663e-05
8.32561e-05
8.38502e-05
8.44485e-05
8.50506e-05
8.56562e-05
8.62648e-05
8.6876e-05
8.74893e-05
8.81042e-05
8.87199e-05
8.93358e-05
8.99512e-05
9.05653e-05
9.11772e-05
9.1786e-05
9.23906e-05
9.29901e-05
9.35832e-05
9.41689e-05
9.47457e-05
9.53125e-05
9.58677e-05
9.64101e-05
9.69379e-05
9.74497e-05
9.7944e-05
9.84189e-05
9.8873e-05
9.93044e-05
9.97115e-05
0.000100093
0.000100446
0.000100771
0.000101064
0.000101326
0.000101553
0.000101747
0.000101904
0.000102025
0.000102109
0.000102167
0.000102213
6.73825e-05
6.735e-05
6.7271e-05
6.71498e-05
6.69993e-05
6.68315e-05
6.66557e-05
6.64799e-05
6.63116e-05
6.61574e-05
6.60225e-05
6.59108e-05
6.58248e-05
6.57663e-05
6.57361e-05
6.57345e-05
6.57613e-05
6.5816e-05
6.5898e-05
6.60063e-05
6.61402e-05
6.62988e-05
6.64813e-05
6.66867e-05
6.69142e-05
6.71631e-05
6.74326e-05
6.77219e-05
6.80303e-05
6.83571e-05
6.87017e-05
6.90636e-05
6.94423e-05
6.98376e-05
7.02492e-05
7.06772e-05
7.11213e-05
7.15814e-05
7.20565e-05
7.25456e-05
7.30467e-05
7.35576e-05
7.40761e-05
7.46001e-05
7.51282e-05
7.56595e-05
7.61939e-05
7.67315e-05
7.72725e-05
7.78174e-05
7.83664e-05
7.89199e-05
7.9478e-05
8.00408e-05
8.06085e-05
8.11811e-05
8.17586e-05
8.23408e-05
8.29276e-05
8.35189e-05
8.41144e-05
8.47138e-05
8.53168e-05
8.5923e-05
8.65319e-05
8.71431e-05
8.7756e-05
8.83699e-05
8.89843e-05
8.95984e-05
9.02113e-05
9.08223e-05
9.14304e-05
9.20346e-05
9.26338e-05
9.32269e-05
9.38127e-05
9.439e-05
9.49573e-05
9.55134e-05
9.60566e-05
9.65855e-05
9.70986e-05
9.75941e-05
9.80705e-05
9.85259e-05
9.89588e-05
9.93674e-05
9.975e-05
0.000100105
0.000100431
0.000100725
0.000100988
0.000101217
0.00010141
0.000101568
0.000101689
0.000101774
0.000101832
0.000101878
6.68289e-05
6.68036e-05
6.67423e-05
6.66479e-05
6.653e-05
6.63979e-05
6.62585e-05
6.61184e-05
6.59839e-05
6.58606e-05
6.57531e-05
6.56649e-05
6.55988e-05
6.55565e-05
6.55392e-05
6.55475e-05
6.55815e-05
6.56411e-05
6.57259e-05
6.58355e-05
6.59691e-05
6.61262e-05
6.63061e-05
6.65081e-05
6.67315e-05
6.69756e-05
6.72397e-05
6.75233e-05
6.78256e-05
6.81461e-05
6.84843e-05
6.88397e-05
6.92119e-05
6.96006e-05
7.00058e-05
7.04272e-05
7.08647e-05
7.13181e-05
7.17864e-05
7.22685e-05
7.27625e-05
7.32665e-05
7.37783e-05
7.42961e-05
7.48185e-05
7.53447e-05
7.58745e-05
7.64077e-05
7.69448e-05
7.74858e-05
7.8031e-05
7.85807e-05
7.9135e-05
7.96942e-05
8.02581e-05
8.0827e-05
8.14007e-05
8.19792e-05
8.25624e-05
8.31501e-05
8.37421e-05
8.43381e-05
8.49377e-05
8.55407e-05
8.61466e-05
8.67548e-05
8.7365e-05
8.79764e-05
8.85884e-05
8.92002e-05
8.98112e-05
9.04204e-05
9.10269e-05
9.16297e-05
9.22278e-05
9.28201e-05
9.34052e-05
9.3982e-05
9.45491e-05
9.51051e-05
9.56484e-05
9.61776e-05
9.66911e-05
9.71871e-05
9.76641e-05
9.81203e-05
9.8554e-05
9.89634e-05
9.93467e-05
9.97025e-05
0.000100029
0.000100324
0.000100587
0.000100817
0.000101011
0.000101169
0.00010129
0.000101375
0.000101433
0.000101479
6.63088e-05
6.62892e-05
6.62416e-05
6.61681e-05
6.60761e-05
6.59725e-05
6.58628e-05
6.57523e-05
6.56463e-05
6.55495e-05
6.54659e-05
6.53988e-05
6.53507e-05
6.53234e-05
6.53184e-05
6.53362e-05
6.53774e-05
6.54422e-05
6.55303e-05
6.56414e-05
6.57754e-05
6.59315e-05
6.61094e-05
6.63084e-05
6.65281e-05
6.67679e-05
6.70271e-05
6.73053e-05
6.76019e-05
6.79164e-05
6.82483e-05
6.85973e-05
6.8963e-05
6.93452e-05
6.97436e-05
7.01583e-05
7.0589e-05
7.10353e-05
7.14964e-05
7.1971e-05
7.24575e-05
7.29539e-05
7.34583e-05
7.3969e-05
7.44848e-05
7.50048e-05
7.55288e-05
7.60568e-05
7.65887e-05
7.71249e-05
7.76654e-05
7.82105e-05
7.87603e-05
7.93149e-05
7.98743e-05
8.04387e-05
8.10079e-05
8.1582e-05
8.21607e-05
8.27441e-05
8.33317e-05
8.39235e-05
8.4519e-05
8.5118e-05
8.572e-05
8.63245e-05
8.6931e-05
8.75389e-05
8.81477e-05
8.87564e-05
8.93645e-05
8.9971e-05
9.05751e-05
9.11756e-05
9.17717e-05
9.23621e-05
9.29457e-05
9.35211e-05
9.4087e-05
9.4642e-05
9.51846e-05
9.57132e-05
9.62263e-05
9.67221e-05
9.7199e-05
9.76551e-05
9.80889e-05
9.84984e-05
9.8882e-05
9.92379e-05
9.95645e-05
9.98602e-05
0.000100123
0.000100353
0.000100547
0.000100705
0.000100826
0.00010091
0.000100968
0.000101015
6.58149e-05
6.57997e-05
6.57628e-05
6.57058e-05
6.56344e-05
6.55539e-05
6.54686e-05
6.53827e-05
6.53007e-05
6.52265e-05
6.51637e-05
6.51152e-05
6.50832e-05
6.50697e-05
6.5076e-05
6.51029e-05
6.51512e-05
6.52211e-05
6.53126e-05
6.54257e-05
6.55602e-05
6.57157e-05
6.58919e-05
6.60884e-05
6.63048e-05
6.65405e-05
6.67951e-05
6.70682e-05
6.73593e-05
6.7668e-05
6.79938e-05
6.83365e-05
6.86957e-05
6.90713e-05
6.9463e-05
6.98707e-05
7.02943e-05
7.07332e-05
7.11866e-05
7.16534e-05
7.21318e-05
7.26201e-05
7.31165e-05
7.36193e-05
7.41276e-05
7.46405e-05
7.51578e-05
7.56794e-05
7.62053e-05
7.67357e-05
7.72706e-05
7.78101e-05
7.83544e-05
7.89036e-05
7.94577e-05
8.00167e-05
8.05806e-05
8.11494e-05
8.1723e-05
8.23011e-05
8.28836e-05
8.34703e-05
8.40609e-05
8.46549e-05
8.52521e-05
8.5852e-05
8.6454e-05
8.70575e-05
8.7662e-05
8.82668e-05
8.8871e-05
8.94738e-05
9.00744e-05
9.06718e-05
9.12648e-05
9.18524e-05
9.24334e-05
9.30065e-05
9.35703e-05
9.41234e-05
9.46644e-05
9.51915e-05
9.57033e-05
9.6198e-05
9.66739e-05
9.71293e-05
9.75624e-05
9.79714e-05
9.83546e-05
9.87101e-05
9.90364e-05
9.93317e-05
9.95946e-05
9.98237e-05
0.000100018
0.000100175
0.000100296
0.000100379
0.000100437
0.000100484
6.53411e-05
6.53294e-05
6.53011e-05
6.52573e-05
6.52025e-05
6.51407e-05
6.50754e-05
6.501e-05
6.49482e-05
6.48934e-05
6.48485e-05
6.48162e-05
6.47987e-05
6.47975e-05
6.48142e-05
6.48497e-05
6.49046e-05
6.49794e-05
6.50743e-05
6.51894e-05
6.53246e-05
6.54798e-05
6.56546e-05
6.58488e-05
6.60621e-05
6.62941e-05
6.65443e-05
6.68126e-05
6.70983e-05
6.74013e-05
6.77212e-05
6.80576e-05
6.84103e-05
6.87791e-05
6.91639e-05
6.95645e-05
6.99806e-05
7.04119e-05
7.08573e-05
7.13158e-05
7.17857e-05
7.22654e-05
7.27531e-05
7.32474e-05
7.37474e-05
7.42523e-05
7.4762e-05
7.52763e-05
7.57952e-05
7.63188e-05
7.68471e-05
7.73802e-05
7.79182e-05
7.8461e-05
7.90089e-05
7.95617e-05
8.01194e-05
8.0682e-05
8.12494e-05
8.18215e-05
8.2398e-05
8.29787e-05
8.35634e-05
8.41516e-05
8.47431e-05
8.53373e-05
8.59338e-05
8.6532e-05
8.71313e-05
8.7731e-05
8.83303e-05
8.89285e-05
8.95246e-05
9.01177e-05
9.07067e-05
9.12904e-05
9.18678e-05
9.24375e-05
9.29982e-05
9.35484e-05
9.40867e-05
9.46114e-05
9.5121e-05
9.56137e-05
9.60878e-05
9.65416e-05
9.69733e-05
9.7381e-05
9.7763e-05
9.81175e-05
9.84428e-05
9.87373e-05
9.89994e-05
9.92277e-05
9.94209e-05
9.95777e-05
9.96975e-05
9.97802e-05
9.98373e-05
9.98842e-05
6.48828e-05
6.4874e-05
6.48525e-05
6.48194e-05
6.4778e-05
6.47315e-05
6.46827e-05
6.46344e-05
6.45896e-05
6.45512e-05
6.45219e-05
6.45037e-05
6.44988e-05
6.45088e-05
6.45348e-05
6.45781e-05
6.46391e-05
6.47186e-05
6.48168e-05
6.49339e-05
6.50699e-05
6.52247e-05
6.53983e-05
6.55904e-05
6.58008e-05
6.60291e-05
6.62752e-05
6.65387e-05
6.68193e-05
6.71166e-05
6.74305e-05
6.77606e-05
6.81068e-05
6.84688e-05
6.88465e-05
6.92397e-05
6.96483e-05
7.00715e-05
7.05087e-05
7.09585e-05
7.14195e-05
7.189e-05
7.23684e-05
7.28536e-05
7.33445e-05
7.38408e-05
7.4342e-05
7.48481e-05
7.53591e-05
7.5875e-05
7.63957e-05
7.69214e-05
7.74521e-05
7.79877e-05
7.85284e-05
7.9074e-05
7.96247e-05
8.01802e-05
8.07406e-05
8.13056e-05
8.18751e-05
8.24489e-05
8.30267e-05
8.36081e-05
8.41929e-05
8.47805e-05
8.53704e-05
8.59622e-05
8.65553e-05
8.71488e-05
8.77422e-05
8.83346e-05
8.89251e-05
8.95128e-05
9.00966e-05
9.06755e-05
9.12481e-05
9.18134e-05
9.23698e-05
9.29161e-05
9.34506e-05
9.39719e-05
9.44782e-05
9.4968e-05
9.54394e-05
9.58907e-05
9.632e-05
9.67256e-05
9.71057e-05
9.74585e-05
9.77822e-05
9.80753e-05
9.8336e-05
9.8563e-05
9.8755e-05
9.89107e-05
9.90294e-05
9.9111e-05
9.91673e-05
9.92142e-05
6.44363e-05
6.44297e-05
6.44138e-05
6.43893e-05
6.43588e-05
6.43249e-05
6.42897e-05
6.42557e-05
6.42253e-05
6.4201e-05
6.41849e-05
6.4179e-05
6.41852e-05
6.42049e-05
6.42394e-05
6.42896e-05
6.43563e-05
6.444e-05
6.45412e-05
6.46601e-05
6.47969e-05
6.49514e-05
6.51238e-05
6.53138e-05
6.55214e-05
6.57463e-05
6.59882e-05
6.6247e-05
6.65225e-05
6.68142e-05
6.71221e-05
6.74459e-05
6.77855e-05
6.81405e-05
6.8511e-05
6.88967e-05
6.92974e-05
6.97124e-05
7.01409e-05
7.05817e-05
7.10332e-05
7.14941e-05
7.19628e-05
7.24382e-05
7.29195e-05
7.34062e-05
7.38982e-05
7.43953e-05
7.48975e-05
7.54047e-05
7.5917e-05
7.64344e-05
7.69568e-05
7.74842e-05
7.80168e-05
7.85543e-05
7.90969e-05
7.96444e-05
8.01968e-05
8.07538e-05
8.13154e-05
8.18812e-05
8.24511e-05
8.30247e-05
8.36017e-05
8.41816e-05
8.47639e-05
8.53482e-05
8.59338e-05
8.65201e-05
8.71064e-05
8.76919e-05
8.82756e-05
8.88567e-05
8.94342e-05
9.00069e-05
9.05737e-05
9.11333e-05
9.16843e-05
9.22254e-05
9.27551e-05
9.32717e-05
9.37738e-05
9.42595e-05
9.47271e-05
9.51749e-05
9.5601e-05
9.60036e-05
9.63809e-05
9.67311e-05
9.70525e-05
9.73434e-05
9.76021e-05
9.78273e-05
9.80175e-05
9.81716e-05
9.82888e-05
9.8369e-05
9.84243e-05
9.84712e-05
6.39985e-05
6.39938e-05
6.39824e-05
6.39649e-05
6.39434e-05
6.39198e-05
6.3896e-05
6.38739e-05
6.38556e-05
6.38431e-05
6.38384e-05
6.38431e-05
6.3859e-05
6.38873e-05
6.39291e-05
6.39855e-05
6.40572e-05
6.41448e-05
6.42487e-05
6.43692e-05
6.45065e-05
6.46607e-05
6.48318e-05
6.50198e-05
6.52246e-05
6.5446e-05
6.56839e-05
6.59381e-05
6.62084e-05
6.64945e-05
6.67964e-05
6.71138e-05
6.74466e-05
6.77946e-05
6.81577e-05
6.85357e-05
6.89282e-05
6.93346e-05
6.97542e-05
7.01855e-05
7.06273e-05
7.10781e-05
7.15365e-05
7.20015e-05
7.24725e-05
7.29491e-05
7.3431e-05
7.39183e-05
7.44108e-05
7.49085e-05
7.54115e-05
7.59196e-05
7.64328e-05
7.69511e-05
7.74746e-05
7.80031e-05
7.85366e-05
7.90751e-05
7.96184e-05
8.01665e-05
8.0719e-05
8.12759e-05
8.18368e-05
8.24015e-05
8.29696e-05
8.35406e-05
8.41142e-05
8.46898e-05
8.52669e-05
8.58447e-05
8.64227e-05
8.69999e-05
8.75757e-05
8.81489e-05
8.87188e-05
8.9284e-05
8.98436e-05
9.03963e-05
9.09406e-05
9.14753e-05
9.19988e-05
9.25097e-05
9.30062e-05
9.34866e-05
9.39493e-05
9.43925e-05
9.48142e-05
9.52128e-05
9.55864e-05
9.59332e-05
9.62514e-05
9.65393e-05
9.67953e-05
9.7018e-05
9.72059e-05
9.73578e-05
9.74731e-05
9.75515e-05
9.76056e-05
9.76523e-05
6.3567e-05
6.35638e-05
6.35561e-05
6.35444e-05
6.35302e-05
6.35151e-05
6.35007e-05
6.34886e-05
6.34805e-05
6.3478e-05
6.3483e-05
6.34969e-05
6.35211e-05
6.35568e-05
6.36051e-05
6.3667e-05
6.3743e-05
6.38339e-05
6.39401e-05
6.4062e-05
6.41997e-05
6.43534e-05
6.45232e-05
6.47091e-05
6.4911e-05
6.51289e-05
6.53627e-05
6.56122e-05
6.58774e-05
6.61579e-05
6.64537e-05
6.67646e-05
6.70906e-05
6.74313e-05
6.77868e-05
6.81568e-05
6.85409e-05
6.89386e-05
6.93488e-05
6.97704e-05
7.0202e-05
7.06422e-05
7.10898e-05
7.15439e-05
7.2004e-05
7.24697e-05
7.29409e-05
7.34175e-05
7.38996e-05
7.4387e-05
7.48796e-05
7.53776e-05
7.58807e-05
7.63889e-05
7.69023e-05
7.74208e-05
7.79443e-05
7.84727e-05
7.9006e-05
7.9544e-05
8.00865e-05
8.06333e-05
8.11841e-05
8.17387e-05
8.22968e-05
8.28578e-05
8.34214e-05
8.39871e-05
8.45543e-05
8.51225e-05
8.56908e-05
8.62585e-05
8.68249e-05
8.73889e-05
8.79497e-05
8.85062e-05
8.90572e-05
8.96015e-05
9.01377e-05
9.06646e-05
9.11807e-05
9.16843e-05
9.21739e-05
9.26478e-05
9.31042e-05
9.35415e-05
9.39578e-05
9.43512e-05
9.47199e-05
9.50622e-05
9.53762e-05
9.56602e-05
9.59127e-05
9.61321e-05
9.6317e-05
9.64662e-05
9.65789e-05
9.66551e-05
9.67077e-05
9.67541e-05
6.31397e-05
6.31378e-05
6.31331e-05
6.31261e-05
6.3118e-05
6.311e-05
6.31034e-05
6.30996e-05
6.31e-05
6.31061e-05
6.31193e-05
6.31409e-05
6.31723e-05
6.32144e-05
6.32683e-05
6.33348e-05
6.34146e-05
6.35083e-05
6.36165e-05
6.37393e-05
6.38771e-05
6.40302e-05
6.41985e-05
6.43822e-05
6.45812e-05
6.47956e-05
6.50252e-05
6.527e-05
6.55299e-05
6.58047e-05
6.60943e-05
6.63987e-05
6.67176e-05
6.7051e-05
6.73987e-05
6.77605e-05
6.8136e-05
6.85245e-05
6.89251e-05
6.93365e-05
6.97575e-05
7.01867e-05
7.06231e-05
7.10657e-05
7.15143e-05
7.19684e-05
7.24282e-05
7.28935e-05
7.33643e-05
7.38405e-05
7.4322e-05
7.48089e-05
7.53009e-05
7.57981e-05
7.63005e-05
7.6808e-05
7.73204e-05
7.78378e-05
7.836e-05
7.88868e-05
7.94181e-05
7.99537e-05
8.04933e-05
8.10367e-05
8.15834e-05
8.21332e-05
8.26856e-05
8.32401e-05
8.37962e-05
8.43531e-05
8.49104e-05
8.54673e-05
8.60228e-05
8.65762e-05
8.71265e-05
8.76727e-05
8.82135e-05
8.87479e-05
8.92746e-05
8.97921e-05
9.02991e-05
9.0794e-05
9.12752e-05
9.17411e-05
9.21899e-05
9.26199e-05
9.30292e-05
9.34161e-05
9.37787e-05
9.41153e-05
9.4424e-05
9.47031e-05
9.4951e-05
9.51662e-05
9.53473e-05
9.5493e-05
9.56027e-05
9.56761e-05
9.57268e-05
9.57728e-05
6.2715e-05
6.27141e-05
6.27119e-05
6.27088e-05
6.27057e-05
6.27036e-05
6.27035e-05
6.27067e-05
6.27142e-05
6.27275e-05
6.27476e-05
6.27758e-05
6.28132e-05
6.28607e-05
6.29194e-05
6.29898e-05
6.30728e-05
6.31689e-05
6.32784e-05
6.3402e-05
6.35397e-05
6.36918e-05
6.38584e-05
6.40398e-05
6.42358e-05
6.44465e-05
6.46719e-05
6.49119e-05
6.51664e-05
6.54354e-05
6.57187e-05
6.60163e-05
6.63281e-05
6.66539e-05
6.69936e-05
6.7347e-05
6.77135e-05
6.80926e-05
6.84833e-05
6.88842e-05
6.92942e-05
6.9712e-05
7.01366e-05
7.05672e-05
7.10037e-05
7.14457e-05
7.18933e-05
7.23465e-05
7.28053e-05
7.32695e-05
7.37391e-05
7.4214e-05
7.46941e-05
7.51793e-05
7.56697e-05
7.61651e-05
7.66655e-05
7.71707e-05
7.76807e-05
7.81953e-05
7.87143e-05
7.92375e-05
7.97647e-05
8.02956e-05
8.08298e-05
8.13671e-05
8.19069e-05
8.24488e-05
8.29923e-05
8.35367e-05
8.40815e-05
8.46259e-05
8.51691e-05
8.57103e-05
8.62485e-05
8.67827e-05
8.73118e-05
8.78347e-05
8.835e-05
8.88565e-05
8.93528e-05
8.98372e-05
9.03084e-05
9.07645e-05
9.1204e-05
9.16251e-05
9.2026e-05
9.24048e-05
9.27599e-05
9.30893e-05
9.33914e-05
9.36643e-05
9.39065e-05
9.41165e-05
9.42928e-05
9.44342e-05
9.454e-05
9.46101e-05
9.46585e-05
9.47039e-05
6.22916e-05
6.22915e-05
6.22914e-05
6.22915e-05
6.22925e-05
6.22953e-05
6.23006e-05
6.23095e-05
6.2323e-05
6.23422e-05
6.23682e-05
6.24019e-05
6.24444e-05
6.24965e-05
6.25591e-05
6.26328e-05
6.27183e-05
6.28162e-05
6.29268e-05
6.30506e-05
6.31879e-05
6.33389e-05
6.35037e-05
6.36825e-05
6.38753e-05
6.40822e-05
6.43032e-05
6.45383e-05
6.47873e-05
6.50503e-05
6.53272e-05
6.56179e-05
6.59224e-05
6.62404e-05
6.65719e-05
6.69166e-05
6.7274e-05
6.76434e-05
6.80237e-05
6.84139e-05
6.88125e-05
6.92184e-05
6.96307e-05
7.00489e-05
7.04726e-05
7.09019e-05
7.13368e-05
7.17772e-05
7.22231e-05
7.26746e-05
7.31313e-05
7.35934e-05
7.40606e-05
7.4533e-05
7.50104e-05
7.54928e-05
7.598e-05
7.64721e-05
7.69688e-05
7.747e-05
7.79755e-05
7.84852e-05
7.89987e-05
7.95158e-05
8.00363e-05
8.05596e-05
8.10854e-05
8.16133e-05
8.21428e-05
8.26731e-05
8.32039e-05
8.37342e-05
8.42634e-05
8.47907e-05
8.5315e-05
8.58355e-05
8.63511e-05
8.68606e-05
8.73628e-05
8.78564e-05
8.834e-05
8.88122e-05
8.92714e-05
8.97159e-05
9.01443e-05
9.05546e-05
9.09452e-05
9.13143e-05
9.16601e-05
9.19808e-05
9.22746e-05
9.25399e-05
9.27751e-05
9.29785e-05
9.31489e-05
9.3285e-05
9.33862e-05
9.34521e-05
9.34978e-05
9.35423e-05
6.18683e-05
6.18689e-05
6.18704e-05
6.18732e-05
6.18777e-05
6.18844e-05
6.18942e-05
6.19078e-05
6.19263e-05
6.19505e-05
6.19813e-05
6.20196e-05
6.20663e-05
6.21222e-05
6.2188e-05
6.22643e-05
6.23518e-05
6.2451e-05
6.25623e-05
6.2686e-05
6.28226e-05
6.29721e-05
6.31348e-05
6.33108e-05
6.35003e-05
6.37033e-05
6.39197e-05
6.41497e-05
6.43931e-05
6.465e-05
6.49203e-05
6.52039e-05
6.55009e-05
6.58109e-05
6.6134e-05
6.64698e-05
6.68177e-05
6.71771e-05
6.75468e-05
6.79258e-05
6.83126e-05
6.87062e-05
6.91058e-05
6.9511e-05
6.99215e-05
7.03375e-05
7.07589e-05
7.11858e-05
7.16183e-05
7.20561e-05
7.24993e-05
7.29477e-05
7.34012e-05
7.38597e-05
7.43232e-05
7.47915e-05
7.52646e-05
7.57424e-05
7.62247e-05
7.67114e-05
7.72023e-05
7.76971e-05
7.81957e-05
7.86978e-05
7.9203e-05
7.9711e-05
8.02214e-05
8.07338e-05
8.12476e-05
8.17624e-05
8.22774e-05
8.2792e-05
8.33054e-05
8.38169e-05
8.43256e-05
8.48305e-05
8.53306e-05
8.58247e-05
8.63117e-05
8.67904e-05
8.72593e-05
8.7717e-05
8.81621e-05
8.8593e-05
8.9008e-05
8.94055e-05
8.97838e-05
9.0141e-05
9.04756e-05
9.07856e-05
9.10694e-05
9.13254e-05
9.15519e-05
9.17474e-05
9.19105e-05
9.20401e-05
9.21355e-05
9.21965e-05
9.22388e-05
9.22821e-05
6.14442e-05
6.14453e-05
6.14483e-05
6.14532e-05
6.14605e-05
6.14705e-05
6.14839e-05
6.15015e-05
6.15241e-05
6.15524e-05
6.15871e-05
6.16292e-05
6.16794e-05
6.17383e-05
6.18066e-05
6.1885e-05
6.19739e-05
6.20739e-05
6.21854e-05
6.23087e-05
6.24442e-05
6.2592e-05
6.27523e-05
6.29254e-05
6.31113e-05
6.33101e-05
6.35219e-05
6.37466e-05
6.39843e-05
6.42349e-05
6.44984e-05
6.47748e-05
6.5064e-05
6.53658e-05
6.56802e-05
6.60068e-05
6.63451e-05
6.66941e-05
6.7053e-05
6.74203e-05
6.7795e-05
6.81759e-05
6.85624e-05
6.8954e-05
6.93508e-05
6.97528e-05
7.01602e-05
7.0573e-05
7.09912e-05
7.14148e-05
7.18435e-05