/*--------------------------------*- C++ -*----------------------------------*\
| =========                 |                                                 |
| \\      /  F ield         | OpenFOAM: The Open Source CFD Toolbox           |
|  \\    /   O peration     | Version:  4.1                                   |
|   \\  /    A nd           | Web:      www.OpenFOAM.org                      |
|    \\/     M anipulation  |                                                 |
\*---------------------------------------------------------------------------*/
FoamFile
{
    version     2.0;
    format      ascii;
    class       volScalarField;
    location    "0.1";
    object      nut;
}
// * * * * * * * * * * * * * * * * * * * * * * * * * * * * * * * * * * * * * //

dimensions      [0 2 -1 0 0 0 0];

internalField   nonuniform List<scalar> 
43750
(
0.00139176
0.00140768
0.00142294
0.00143751
0.00145142
0.00146466
0.00147724
0.00148917
0.00150044
0.00151106
0.00152103
0.00153034
0.00153899
0.00154698
0.00155431
0.00156098
0.00156698
0.00157231
0.00157696
0.00158093
0.00158422
0.00158682
0.00158872
0.00158992
0.00159042
0.0015902
0.00158927
0.00158762
0.00158526
0.0015822
0.00157845
0.00157403
0.00156898
0.00156331
0.00155709
0.00155036
0.00154315
0.00153551
0.00152746
0.00151902
0.00151018
0.00150093
0.00149128
0.00148121
0.00147073
0.00145987
0.00144862
0.00143703
0.0014251
0.00141285
0.00140029
0.00138744
0.00137432
0.00136094
0.00134731
0.00133344
0.00131935
0.00130503
0.00129051
0.00127577
0.00126082
0.00124566
0.00123029
0.00121472
0.00119895
0.00118298
0.00116681
0.00115046
0.00113392
0.00111722
0.00110035
0.00108332
0.00106616
0.00104886
0.00103145
0.00101394
0.000996345
0.000978684
0.000960976
0.000943241
0.0009255
0.000907778
0.000890099
0.000872491
0.000854984
0.000837608
0.000820397
0.000803387
0.000786611
0.000770106
0.000753906
0.000738041
0.000722539
0.00070742
0.000692701
0.000678391
0.000664485
0.000651066
0.000637964
0.000626127
0.000845978
0.000841615
0.000838752
0.000837254
0.000837012
0.000837903
0.000839803
0.00084259
0.000846148
0.00085036
0.000855116
0.000860307
0.000865834
0.000871609
0.000877556
0.000883616
0.000889745
0.00089592
0.000902137
0.000908412
0.000914779
0.000921292
0.000928017
0.000935035
0.000942439
0.000950324
0.000958789
0.000967932
0.000977842
0.000988597
0.00100026
0.00101287
0.00102645
0.001041
0.00105651
0.00107293
0.00109023
0.00110837
0.00112733
0.00114708
0.0011676
0.00118887
0.00121074
0.00123298
0.00125515
0.00127668
0.00129691
0.00131521
0.00133113
0.00134451
0.00135549
0.00136445
0.00137192
0.00137841
0.00138436
0.0013901
0.00139586
0.00140176
0.00140787
0.00141422
0.00142082
0.00142763
0.00143462
0.00144173
0.0014489
0.00145604
0.00146306
0.00146984
0.00147627
0.0014822
0.00148748
0.00149194
0.00149541
0.00149769
0.00149856
0.00149782
0.00149524
0.00149058
0.00148363
0.00147415
0.00146195
0.00144685
0.0014287
0.00140741
0.00138293
0.0013553
0.00132465
0.00129119
0.00125526
0.00121731
0.00117791
0.00113775
0.00109762
0.00105839
0.00102098
0.000986381
0.000955406
0.000929271
0.000898282
0.00064112
0.000843657
0.000835913
0.000828821
0.000822308
0.000816321
0.000810814
0.000805753
0.00080111
0.000796865
0.000793001
0.000789507
0.000786372
0.000783592
0.000781161
0.000779075
0.000777333
0.00077593
0.000774864
0.000774132
0.000773727
0.000773644
0.000773874
0.000774406
0.000775229
0.000776326
0.000777682
0.000779278
0.000781094
0.000783111
0.000785313
0.000787685
0.000790219
0.00079291
0.000795765
0.000798795
0.000802024
0.000805482
0.000809205
0.000813239
0.000817631
0.000822433
0.000827695
0.000833464
0.00083977
0.000846608
0.000853914
0.000861549
0.000869295
0.000876889
0.00088407
0.00089065
0.000896552
0.000901817
0.000906568
0.000910967
0.000915167
0.000919296
0.000923446
0.000927687
0.000932068
0.000936627
0.00094139
0.000946375
0.000951594
0.000957048
0.000962735
0.000968645
0.000974766
0.000981076
0.000987551
0.00099416
0.00100086
0.00100762
0.00101436
0.00102104
0.00102758
0.00103389
0.00103988
0.00104544
0.00105047
0.00105484
0.00105843
0.00106109
0.00106271
0.00106315
0.0010623
0.00106006
0.00105636
0.00105118
0.00104451
0.00103644
0.00102709
0.00101667
0.00100545
0.00099376
0.000982004
0.000970524
0.000960197
0.00094021
0.00065166
0.000843648
0.000835876
0.000828726
0.000822118
0.000815986
0.000810273
0.000804933
0.000799927
0.000795223
0.000790791
0.000786608
0.000782655
0.000778915
0.000775373
0.000772018
0.000768841
0.000765835
0.000762994
0.000760314
0.000757794
0.000755432
0.00075323
0.000751187
0.000749308
0.000747597
0.000746057
0.000744694
0.000743516
0.000742531
0.000741748
0.000741181
0.000740845
0.000740761
0.000740954
0.000741455
0.000742302
0.000743539
0.000745213
0.000747376
0.00075008
0.000753375
0.000757303
0.000761896
0.000767158
0.000773059
0.000779518
0.000786396
0.000793496
0.000800567
0.000807343
0.000813582
0.000819119
0.0008239
0.000827974
0.000831468
0.000834537
0.000837329
0.000839964
0.000842535
0.000845108
0.00084773
0.000850438
0.000853259
0.000856212
0.000859311
0.000862564
0.000865974
0.000869543
0.00087327
0.00087715
0.000881178
0.000885346
0.000889643
0.000894057
0.000898572
0.00090317
0.000907828
0.000912522
0.000917221
0.000921893
0.0009265
0.000930998
0.000935343
0.000939482
0.000943361
0.000946922
0.000950106
0.000952853
0.000955104
0.000956805
0.000957912
0.00095839
0.000958219
0.000957399
0.000955941
0.000953902
0.00095127
0.000948685
0.00093619
0.000658409
0.000843648
0.000835876
0.000828725
0.000822115
0.000815978
0.00081026
0.000804912
0.000799895
0.000795174
0.000790719
0.000786506
0.000782511
0.000778717
0.000775105
0.000771662
0.000768375
0.000765233
0.000762225
0.000759344
0.000756583
0.000753934
0.000751394
0.000748958
0.000746624
0.000744389
0.000742254
0.000740219
0.000738289
0.000736468
0.000734769
0.000733204
0.000731795
0.00073057
0.000729563
0.000728818
0.000728389
0.000728334
0.000728719
0.000729615
0.000731092
0.000733216
0.000736046
0.000739619
0.000743942
0.00074897
0.000754602
0.00076067
0.000766952
0.000773197
0.000779154
0.000784618
0.000789454
0.000793618
0.000797151
0.000800146
0.000802726
0.000805009
0.000807099
0.000809081
0.000811019
0.000812965
0.000814959
0.00081703
0.000819203
0.000821493
0.000823914
0.000826474
0.000829179
0.000832034
0.00083504
0.000838198
0.000841506
0.000844963
0.000848563
0.000852299
0.000856163
0.000860144
0.000864227
0.000868396
0.000872633
0.000876917
0.000881224
0.00088553
0.000889808
0.000894029
0.000898165
0.000902184
0.000906055
0.000909744
0.000913214
0.000916425
0.000919332
0.000921884
0.000924025
0.000925686
0.000926821
0.000927297
0.000927745
0.000919683
0.000664106
0.000843648
0.000835876
0.000828725
0.000822114
0.000815978
0.000810259
0.000804911
0.000799893
0.000795172
0.000790716
0.000786502
0.000782506
0.000778709
0.000775095
0.000771648
0.000768354
0.000765203
0.000762184
0.000759288
0.000756507
0.000753832
0.000751259
0.000748781
0.000746394
0.000744095
0.00074188
0.000739749
0.000737703
0.000735746
0.000733885
0.000732133
0.000730507
0.000729035
0.000727749
0.000726695
0.000725923
0.000725497
0.000725482
0.000725952
0.000726979
0.000728634
0.000730975
0.00073404
0.00073783
0.000742289
0.000747298
0.00075267
0.000758172
0.000763565
0.000768638
0.000773243
0.000777303
0.000780807
0.000783797
0.000786346
0.000788537
0.000790454
0.000792174
0.000793764
0.000795283
0.00079678
0.000798292
0.000799851
0.00080148
0.000803195
0.00080501
0.000806937
0.000808982
0.000811153
0.000813457
0.000815898
0.000818481
0.000821208
0.000824084
0.000827108
0.000830282
0.000833602
0.000837065
0.000840665
0.000844394
0.000848239
0.000852186
0.000856219
0.000860318
0.000864461
0.000868622
0.000872775
0.00087689
0.000880935
0.000884874
0.000888669
0.000892272
0.000895628
0.000898675
0.000901331
0.000903537
0.000905136
0.000906846
0.000901769
0.00067015
0.000843648
0.000835876
0.000828725
0.000822114
0.000815978
0.000810259
0.00080491
0.000799892
0.00079517
0.000790715
0.0007865
0.000782503
0.000778706
0.000775091
0.000771643
0.000768349
0.000765197
0.000762177
0.000759279
0.000756496
0.000753819
0.000751242
0.00074876
0.000746368
0.000744061
0.000741837
0.000739694
0.000737632
0.000735655
0.00073377
0.000731987
0.000730325
0.000728808
0.00072747
0.000726353
0.000725508
0.000724998
0.000724887
0.000725247
0.000726149
0.000727658
0.000729831
0.000732699
0.00073626
0.000740458
0.000745173
0.000750218
0.000755365
0.000760378
0.00076506
0.00076928
0.000772981
0.000776167
0.000778885
0.000781203
0.000783191
0.000784921
0.000786457
0.000787858
0.000789176
0.000790456
0.000791736
0.000793044
0.000794401
0.000795825
0.000797326
0.000798916
0.000800601
0.000802389
0.000804284
0.000806293
0.00080842
0.000810668
0.000813043
0.000815548
0.000818185
0.000820955
0.000823861
0.0008269
0.000830071
0.000833369
0.000836789
0.000840319
0.00084395
0.000847665
0.000851447
0.000855274
0.00085912
0.000862957
0.000866749
0.000870459
0.000874039
0.000877435
0.000880586
0.000883413
0.000885863
0.00088778
0.000889984
0.000887031
0.000676981
0.000843648
0.000835876
0.000828725
0.000822115
0.000815978
0.000810259
0.000804911
0.000799893
0.000795171
0.000790715
0.0007865
0.000782504
0.000778707
0.000775092
0.000771645
0.000768351
0.000765199
0.00076218
0.000759282
0.000756499
0.000753823
0.000751246
0.000748764
0.000746372
0.000744065
0.000741841
0.000739697
0.000737634
0.000735656
0.000733768
0.000731982
0.000730315
0.000728791
0.000727444
0.000726316
0.000725459
0.000724931
0.0007248
0.000725133
0.000726
0.000727464
0.000729575
0.000732362
0.000735815
0.000739878
0.000744433
0.000749301
0.000754265
0.000759105
0.00076363
0.000767712
0.000771291
0.000774367
0.000776984
0.000779206
0.000781105
0.000782747
0.000784197
0.00078551
0.000786737
0.000787922
0.000789099
0.000790297
0.000791536
0.000792833
0.000794199
0.000795644
0.000797175
0.000798799
0.000800519
0.000802341
0.000804269
0.000806307
0.000808457
0.000810723
0.000813107
0.000815609
0.00081823
0.000820968
0.000823822
0.000826788
0.000829859
0.000833027
0.000836283
0.000839613
0.000843003
0.000846433
0.000849882
0.000853326
0.000856735
0.000860074
0.000863305
0.000866381
0.000869252
0.000871848
0.000874135
0.000875967
0.000878265
0.000876819
0.000684575
0.000843649
0.000835877
0.000828726
0.000822115
0.000815979
0.00081026
0.000804912
0.000799894
0.000795172
0.000790716
0.000786501
0.000782505
0.000778709
0.000775094
0.000771646
0.000768353
0.000765202
0.000762182
0.000759285
0.000756502
0.000753826
0.00075125
0.000748768
0.000746376
0.000744069
0.000741845
0.000739702
0.00073764
0.000735662
0.000733774
0.000731989
0.000730322
0.000728799
0.000727452
0.000726324
0.000725467
0.000724939
0.000724806
0.000725138
0.000726001
0.000727458
0.000729557
0.00073232
0.000735735
0.00073974
0.000744214
0.000748982
0.000753837
0.000758571
0.000763006
0.000767019
0.000770545
0.000773579
0.000776156
0.000778338
0.000780194
0.000781793
0.000783198
0.000784466
0.000785645
0.000786779
0.000787903
0.000789043
0.000790221
0.000791452
0.000792749
0.00079412
0.000795574
0.000797116
0.000798752
0.000800486
0.000802323
0.000804267
0.000806321
0.000808487
0.000810767
0.000813162
0.000815673
0.000818296
0.000821028
0.000823863
0.000826795
0.000829811
0.0008329
0.000836045
0.000839229
0.00084243
0.000845625
0.000848788
0.00085189
0.000854901
0.000857787
0.000860511
0.000863034
0.000865304
0.000867308
0.000868915
0.00087114
0.000870789
0.000692769
0.000843649
0.000835877
0.000828726
0.000822116
0.00081598
0.000810261
0.000804913
0.000799895
0.000795173
0.000790718
0.000786503
0.000782508
0.000778711
0.000775097
0.00077165
0.000768357
0.000765206
0.000762187
0.00075929
0.000756507
0.000753832
0.000751256
0.000748775
0.000746384
0.000744078
0.000741855
0.000739712
0.000737651
0.000735674
0.000733787
0.000732003
0.000730337
0.000728815
0.00072747
0.000726345
0.00072549
0.000724965
0.000724836
0.000725172
0.000726041
0.000727504
0.000729607
0.000732372
0.000735784
0.000739773
0.000744215
0.000748931
0.000753719
0.000758379
0.000762746
0.000766704
0.000770191
0.000773196
0.000775751
0.000777913
0.000779749
0.000781327
0.00078271
0.000783955
0.00078511
0.000786217
0.000787311
0.000788419
0.000789562
0.000790756
0.000792012
0.00079334
0.000794746
0.000796239
0.000797823
0.000799502
0.000801283
0.000803169
0.000805164
0.000807271
0.000809493
0.000811832
0.000814287
0.000816858
0.00081954
0.000822328
0.000825214
0.000828185
0.000831228
0.000834322
0.000837447
0.000840578
0.000843685
0.000846738
0.000849705
0.000852554
0.00085525
0.00085776
0.000860055
0.000862092
0.000863877
0.000865296
0.00086744
0.000867953
0.000701411
0.000843649
0.000835878
0.000828727
0.000822117
0.000815981
0.000810262
0.000804915
0.000799897
0.000795175
0.00079072
0.000786506
0.000782511
0.000778715
0.000775101
0.000771654
0.000768361
0.000765211
0.000762192
0.000759296
0.000756514
0.000753839
0.000751264
0.000748784
0.000746393
0.000744088
0.000741865
0.000739723
0.000737663
0.000735687
0.000733801
0.000732018
0.000730353
0.000728833
0.00072749
0.000726366
0.000725514
0.000724993
0.000724869
0.000725211
0.000726087
0.00072756
0.000729675
0.000732453
0.000735875
0.000739869
0.000744302
0.000748992
0.000753736
0.000758339
0.000762648
0.000766555
0.000770002
0.00077298
0.000775516
0.000777666
0.000779493
0.000781063
0.000782438
0.000783673
0.000784818
0.000785915
0.000786996
0.00078809
0.000789216
0.00079039
0.000791625
0.000792929
0.00079431
0.000795773
0.000797325
0.000798971
0.000800715
0.000802561
0.000804516
0.000806581
0.00080876
0.000811056
0.00081347
0.000816001
0.000818647
0.000821405
0.000824265
0.000827218
0.000830249
0.000833339
0.000836465
0.000839599
0.00084271
0.000845763
0.000848722
0.00085155
0.000854209
0.000856664
0.000858886
0.000860838
0.000862537
0.000863874
0.000866005
0.000867275
0.000710394
0.000843649
0.000835878
0.000828728
0.000822118
0.000815982
0.000810264
0.000804916
0.000799899
0.000795178
0.000790723
0.00078651
0.000782515
0.000778719
0.000775105
0.000771659
0.000768367
0.000765217
0.000762199
0.000759303
0.000756522
0.000753848
0.000751273
0.000748794
0.000746404
0.000744099
0.000741877
0.000739737
0.000737677
0.000735702
0.000733817
0.000732035
0.000730372
0.000728853
0.000727511
0.00072639
0.000725541
0.000725023
0.000724904
0.000725252
0.000726138
0.000727622
0.000729751
0.000732546
0.000735985
0.000739991
0.000744424
0.000749098
0.000753806
0.00075836
0.000762614
0.000766469
0.000769876
0.000772826
0.000775345
0.000777484
0.000779306
0.000780874
0.000782248
0.000783483
0.000784627
0.000785722
0.000786801
0.000787891
0.000789013
0.000790182
0.00079141
0.000792705
0.000794076
0.000795527
0.000797065
0.000798694
0.000800419
0.000802245
0.000804176
0.000806215
0.000808367
0.000810634
0.000813017
0.000815518
0.000818135
0.000820866
0.000823704
0.000826641
0.000829663
0.000832753
0.00083589
0.000839047
0.000842192
0.000845289
0.000848299
0.000851182
0.000853896
0.000856402
0.00085867
0.000860658
0.000862385
0.000863744
0.00086594
0.000867919
0.000719652
0.000843649
0.000835879
0.000828729
0.000822119
0.000815984
0.000810266
0.000804918
0.000799902
0.000795181
0.000790727
0.000786513
0.000782519
0.000778724
0.000775111
0.000771665
0.000768373
0.000765224
0.000762207
0.000759312
0.000756531
0.000753858
0.000751284
0.000748805
0.000746416
0.000744112
0.000741891
0.000739751
0.000737693
0.000735718
0.000733835
0.000732053
0.000730392
0.000728874
0.000727535
0.000726415
0.000725569
0.000725055
0.000724941
0.000725296
0.000726191
0.000727687
0.000729833
0.000732647
0.000736105
0.000740126
0.000744564
0.000749225
0.0007539
0.000758405
0.000762603
0.000766406
0.00076977
0.000772689
0.000775189
0.000777319
0.000779137
0.000780706
0.000782082
0.00078332
0.000784468
0.000785566
0.000786648
0.000787742
0.000788866
0.000790038
0.000791268
0.000792565
0.000793936
0.000795388
0.000796925
0.000798552
0.000800275
0.000802096
0.00080402
0.000806051
0.000808192
0.000810446
0.000812816
0.000815301
0.000817902
0.000820617
0.00082344
0.000826365
0.000829381
0.000832473
0.000835621
0.000838801
0.000841983
0.000845132
0.00084821
0.000851174
0.000853983
0.000856591
0.000858965
0.000861058
0.000862886
0.000864335
0.000866649
0.000869313
0.000729148
0.00084365
0.000835879
0.00082873
0.00082212
0.000815985
0.000810268
0.000804921
0.000799904
0.000795184
0.00079073
0.000786517
0.000782523
0.000778729
0.000775117
0.000771672
0.000768381
0.000765232
0.000762215
0.000759321
0.000756541
0.000753869
0.000751296
0.000748818
0.00074643
0.000744127
0.000741907
0.000739767
0.00073771
0.000735736
0.000733854
0.000732074
0.000730413
0.000728897
0.000727559
0.000726442
0.000725599
0.000725088
0.000724979
0.000725341
0.000726246
0.000727756
0.000729918
0.000732753
0.000736234
0.000740273
0.000744718
0.000749367
0.000754009
0.000758464
0.000762603
0.00076635
0.000769668
0.000772554
0.000775033
0.000777152
0.000778966
0.000780535
0.000781915
0.000783157
0.00078431
0.000785414
0.000786502
0.000787602
0.000788733
0.000789911
0.000791148
0.000792452
0.000793831
0.00079529
0.000796835
0.00079847
0.0008002
0.000802029
0.00080396
0.000805997
0.000808144
0.000810403
0.000812775
0.000815262
0.000817864
0.000820579
0.000823403
0.00082633
0.00082935
0.00083245
0.000835614
0.000838819
0.000842038
0.000845239
0.000848386
0.000851436
0.000854346
0.000857071
0.000859572
0.000861796
0.000863755
0.000865325
0.000867783
0.000871111
0.000738856
0.00084365
0.00083588
0.00082873
0.000822122
0.000815987
0.00081027
0.000804923
0.000799907
0.000795187
0.000790734
0.000786522
0.000782529
0.000778735
0.000775123
0.000771679
0.000768389
0.000765241
0.000762225
0.000759332
0.000756553
0.000753881
0.000751309
0.000748832
0.000746444
0.000744142
0.000741923
0.000739785
0.000737728
0.000735756
0.000733875
0.000732095
0.000730436
0.000728922
0.000727586
0.000726471
0.00072563
0.000725123
0.000725019
0.000725389
0.000726303
0.000727827
0.000730008
0.000732866
0.00073637
0.00074043
0.000744884
0.000749523
0.000754132
0.000758534
0.000762611
0.000766297
0.000769565
0.000772415
0.000774871
0.000776977
0.000778786
0.000780355
0.000781738
0.000782985
0.000784144
0.000785254
0.000786349
0.000787456
0.000788595
0.000789781
0.000791027
0.000792341
0.00079373
0.000795201
0.000796758
0.000798407
0.000800151
0.000801995
0.000803942
0.000805996
0.00080816
0.000810435
0.000812825
0.00081533
0.00081795
0.000820682
0.000823524
0.000826469
0.00082951
0.000832633
0.000835825
0.000839064
0.000842326
0.000845582
0.000848796
0.00085193
0.000854939
0.000857779
0.000860406
0.000862763
0.000864858
0.000866555
0.000869162
0.000873129
0.000748761
0.00084365
0.00083588
0.000828731
0.000822123
0.000815989
0.000810272
0.000804926
0.00079991
0.000795191
0.000790739
0.000786527
0.000782534
0.000778741
0.00077513
0.000771687
0.000768397
0.00076525
0.000762235
0.000759343
0.000756565
0.000753894
0.000751323
0.000748847
0.00074646
0.000744159
0.000741941
0.000739804
0.000737748
0.000735777
0.000733897
0.000732119
0.000730461
0.000728948
0.000727614
0.000726501
0.000725663
0.00072516
0.000725061
0.000725438
0.000726363
0.000727901
0.000730102
0.000732983
0.000736514
0.000740596
0.000745062
0.000749693
0.000754268
0.000758616
0.000762627
0.000766249
0.000769463
0.000772273
0.000774702
0.000776794
0.000778597
0.000780165
0.00078155
0.000782802
0.000783966
0.000785083
0.000786185
0.000787299
0.000788446
0.000789641
0.000790897
0.000792221
0.000793623
0.000795107
0.000796679
0.000798344
0.000800105
0.000801969
0.000803937
0.000806013
0.000808201
0.000810504
0.000812921
0.000815456
0.000818106
0.000820871
0.000823746
0.000826727
0.000829804
0.000832968
0.000836203
0.00083949
0.000842807
0.000846126
0.000849413
0.000852631
0.000855738
0.000858687
0.000861434
0.000863917
0.00086614
0.000867958
0.000870708
0.000875285
0.000758849
0.000843651
0.000835881
0.000828732
0.000822125
0.00081599
0.000810274
0.000804929
0.000799914
0.000795195
0.000790743
0.000786532
0.00078254
0.000778748
0.000775137
0.000771695
0.000768406
0.00076526
0.000762246
0.000759355
0.000756578
0.000753907
0.000751338
0.000748863
0.000746477
0.000744177
0.00074196
0.000739824
0.00073777
0.000735799
0.00073392
0.000732144
0.000730487
0.000728975
0.000727643
0.000726532
0.000725697
0.000725198
0.000725104
0.000725489
0.000726425
0.000727978
0.000730199
0.000733106
0.000736665
0.000740772
0.000745251
0.000749875
0.000754418
0.000758709
0.000762651
0.000766205
0.000769361
0.000772127
0.000774527
0.000776602
0.000778397
0.000779964
0.000781351
0.000782607
0.000783777
0.0007849
0.000786009
0.00078713
0.000788286
0.00078949
0.000790755
0.000792091
0.000793505
0.000795003
0.000796591
0.000798273
0.000800055
0.000801939
0.000803931
0.000806034
0.000808251
0.000810585
0.000813038
0.000815609
0.0008183
0.000821108
0.000824029
0.000827059
0.000830189
0.000833409
0.000836703
0.000840054
0.00084344
0.000846834
0.000850204
0.000853513
0.000856719
0.000859776
0.000862639
0.000865241
0.000867584
0.000869514
0.000872397
0.000877556
0.000769112
0.000843651
0.000835882
0.000828734
0.000822126
0.000815992
0.000810277
0.000804932
0.000799917
0.000795199
0.000790748
0.000786538
0.000782546
0.000778755
0.000775145
0.000771704
0.000768416
0.000765271
0.000762258
0.000759367
0.000756591
0.000753922
0.000751353
0.000748879
0.000746495
0.000744196
0.00074198
0.000739845
0.000737792
0.000735823
0.000733945
0.00073217
0.000730514
0.000729004
0.000727674
0.000726565
0.000725733
0.000725238
0.000725149
0.000725541
0.000726488
0.000728057
0.0007303
0.000733233
0.000736821
0.000740956
0.000745451
0.000750069
0.00075458
0.000758814
0.000762684
0.000766166
0.000769259
0.000771977
0.000774346
0.000776401
0.000778187
0.000779751
0.00078114
0.000782401
0.000783576
0.000784705
0.00078582
0.00078695
0.000788113
0.000789327
0.000790603
0.00079195
0.000793377
0.00079489
0.000796494
0.000798194
0.000799996
0.000801904
0.000803922
0.000806054
0.000808303
0.000810672
0.000813163
0.000815777
0.000818514
0.000821373
0.000824351
0.00082744
0.000830635
0.000833923
0.000837292
0.000840722
0.000844192
0.000847675
0.00085114
0.00085455
0.000857863
0.000861032
0.00086401
0.000866729
0.000869187
0.000871223
0.000874233
0.000879944
0.000779543
0.000843651
0.000835883
0.000828735
0.000822128
0.000815994
0.000810279
0.000804935
0.000799921
0.000795204
0.000790753
0.000786543
0.000782553
0.000778762
0.000775154
0.000771713
0.000768426
0.000765282
0.00076227
0.00075938
0.000756605
0.000753938
0.00075137
0.000748897
0.000746514
0.000744217
0.000742002
0.000739868
0.000737816
0.000735848
0.000733971
0.000732197
0.000730543
0.000729035
0.000727706
0.0007266
0.00072577
0.000725279
0.000725196
0.000725595
0.000726553
0.000728139
0.000730403
0.000733364
0.000736983
0.000741147
0.00074566
0.000750275
0.000754754
0.00075893
0.000762726
0.000766131
0.000769158
0.000771825
0.000774159
0.000776193
0.000777968
0.000779529
0.000780919
0.000782182
0.000783363
0.000784497
0.00078562
0.000786757
0.000787929
0.000789152
0.000790438
0.000791798
0.000793238
0.000794765
0.000796387
0.000798106
0.00079993
0.000801862
0.000803907
0.00080607
0.000808353
0.00081076
0.000813293
0.000815954
0.000818743
0.000821659
0.000824698
0.000827856
0.000831124
0.000834493
0.000837947
0.000841469
0.000845037
0.000848624
0.000852197
0.00085572
0.000859151
0.00086244
0.00086554
0.000868378
0.000870951
0.000873091
0.000876224
0.000882461
0.000790138
0.000843652
0.000835883
0.000828736
0.000822129
0.000815996
0.000810282
0.000804938
0.000799925
0.000795208
0.000790758
0.000786549
0.00078256
0.00077877
0.000775162
0.000771722
0.000768437
0.000765294
0.000762283
0.000759394
0.000756621
0.000753954
0.000751387
0.000748916
0.000746534
0.000744238
0.000742024
0.000739892
0.000737841
0.000735874
0.000733999
0.000732226
0.000730573
0.000729066
0.000727739
0.000726635
0.000725808
0.000725321
0.000725243
0.000725651
0.00072662
0.000728222
0.000730508
0.000733497
0.000737149
0.000741344
0.000745878
0.000750492
0.000754941
0.000759058
0.000762778
0.000766102
0.000769058
0.00077167
0.000773965
0.000775976
0.000777739
0.000779295
0.000780686
0.000781953
0.000783137
0.000784278
0.000785408
0.000786552
0.000787732
0.000788965
0.000790262
0.000791633
0.000793087
0.00079463
0.000796269
0.000798009
0.000799855
0.000801813
0.000803887
0.000806082
0.000808401
0.000810848
0.000813427
0.000816138
0.000818983
0.000821961
0.000825068
0.000828301
0.000831651
0.000835108
0.000838658
0.000842284
0.000845962
0.000849665
0.000853361
0.000857011
0.000860572
0.000863992
0.000867223
0.000870187
0.00087288
0.000875128
0.000878384
0.000885122
0.000800894
0.000843652
0.000835884
0.000828737
0.000822131
0.000815999
0.000810285
0.000804941
0.000799929
0.000795213
0.000790764
0.000786556
0.000782567
0.000778778
0.000775171
0.000771732
0.000768448
0.000765306
0.000762296
0.000759409
0.000756636
0.000753971
0.000751406
0.000748935
0.000746555
0.00074426
0.000742047
0.000739916
0.000737866
0.000735901
0.000734027
0.000732256
0.000730604
0.000729099
0.000727774
0.000726672
0.000725848
0.000725364
0.000725292
0.000725707
0.000726688
0.000728306
0.000730615
0.000733634
0.00073732
0.000741548
0.000746105
0.00075072
0.00075514
0.000759198
0.000762839
0.000766079
0.00076896
0.000771513
0.000773767
0.000775752
0.000777501
0.000779051
0.000780441
0.000781711
0.0007829
0.000784047
0.000785183
0.000786335
0.000787523
0.000788765
0.000790073
0.000791457
0.000792925
0.000794484
0.000796141
0.000797902
0.000799772
0.000801756
0.00080386
0.000806089
0.000808447
0.000810937
0.000813564
0.000816329
0.000819234
0.000822278
0.000825459
0.000828772
0.000832211
0.000835765
0.000839421
0.00084316
0.000846959
0.000850792
0.000854623
0.000858413
0.000862118
0.000865683
0.000869057
0.000872158
0.000874981
0.000877343
0.000880726
0.000887941
0.000811812
0.000843653
0.000835885
0.000828738
0.000822133
0.000816001
0.000810287
0.000804945
0.000799933
0.000795218
0.000790769
0.000786562
0.000782574
0.000778786
0.000775181
0.000771743
0.000768459
0.000765318
0.00076231
0.000759424
0.000756653
0.000753988
0.000751424
0.000748955
0.000746576
0.000744283
0.000742072
0.000739942
0.000737893
0.000735929
0.000734057
0.000732287
0.000730637
0.000729133
0.00072781
0.00072671
0.000725889
0.000725409
0.000725342
0.000725765
0.000726757
0.000728392
0.000730724
0.000733772
0.000737494
0.000741757
0.000746339
0.000750958
0.00075535
0.00075935
0.00076291
0.000766063
0.000768864
0.000771355
0.000773564
0.00077552
0.000777253
0.000778797
0.000780185
0.000781457
0.000782651
0.000783803
0.000784945
0.000786104
0.000787301
0.000788553
0.000789871
0.000791268
0.00079275
0.000794326
0.000796001
0.000797784
0.000799678
0.000801691
0.000803827
0.000806091
0.00080849
0.000811026
0.000813704
0.000816526
0.000819495
0.00082261
0.00082587
0.00082927
0.000832805
0.000836464
0.000840234
0.000844096
0.000848029
0.000852002
0.000855982
0.000859927
0.00086379
0.000867514
0.000871045
0.000874297
0.00087726
0.000879748
0.000883264
0.000890931
0.00082289
0.000843653
0.000835886
0.00082874
0.000822134
0.000816003
0.00081029
0.000804948
0.000799937
0.000795223
0.000790775
0.000786569
0.000782582
0.000778795
0.00077519
0.000771753
0.000768471
0.000765332
0.000762324
0.000759439
0.000756669
0.000754006
0.000751444
0.000748976
0.000746598
0.000744306
0.000742097
0.000739968
0.000737921
0.000735959
0.000734087
0.000732319
0.000730671
0.000729168
0.000727847
0.000726749
0.000725931
0.000725455
0.000725393
0.000725824
0.000726827
0.000728478
0.000730834
0.000733913
0.00073767
0.00074197
0.00074658
0.000751206
0.000755573
0.000759515
0.000762992
0.000766055
0.000768772
0.000771195
0.000773356
0.000775281
0.000776996
0.000778531
0.000779918
0.000781192
0.000782389
0.000783546
0.000784695
0.000785861
0.000787066
0.000788327
0.000789657
0.000791065
0.000792562
0.000794154
0.00079585
0.000797654
0.000799574
0.000801616
0.000803785
0.000806087
0.000808528
0.000811113
0.000813845
0.000816728
0.000819765
0.000822956
0.0008263
0.000829794
0.000833432
0.000837204
0.000841098
0.000845094
0.00084917
0.000853297
0.000857439
0.000861553
0.00086559
0.000869489
0.000873193
0.000876611
0.000879729
0.000882354
0.000886013
0.000894108
0.000834132
0.000843653
0.000835886
0.000828741
0.000822136
0.000816005
0.000810293
0.000804952
0.000799941
0.000795228
0.000790781
0.000786576
0.00078259
0.000778804
0.0007752
0.000771765
0.000768483
0.000765345
0.000762339
0.000759455
0.000756687
0.000754025
0.000751464
0.000748998
0.000746621
0.000744331
0.000742123
0.000739996
0.00073795
0.000735989
0.000734119
0.000732352
0.000730705
0.000729205
0.000727885
0.00072679
0.000725974
0.000725501
0.000725445
0.000725883
0.000726898
0.000728565
0.000730944
0.000734054
0.000737848
0.000742187
0.000746828
0.000751463
0.000755808
0.000759692
0.000763085
0.000766054
0.000768684
0.000771036
0.000773145
0.000775035
0.00077673
0.000778256
0.00077964
0.000780915
0.000782116
0.000783277
0.000784431
0.000785605
0.000786818
0.000788088
0.000789428
0.000790849
0.000792361
0.00079397
0.000795685
0.000797512
0.000799458
0.00080153
0.000803734
0.000806075
0.000808561
0.000811196
0.000813986
0.000816933
0.000820043
0.000823315
0.000826749
0.000830344
0.000834092
0.000837987
0.000842013
0.000846154
0.000850387
0.000854681
0.000858999
0.000863298
0.000867524
0.000871616
0.00087551
0.000879111
0.000882401
0.000885177
0.00088899
0.000897489
0.000845537
0.000843654
0.000835887
0.000828742
0.000822138
0.000816008
0.000810296
0.000804955
0.000799946
0.000795233
0.000790787
0.000786583
0.000782598
0.000778813
0.00077521
0.000771776
0.000768496
0.000765359
0.000762354
0.000759472
0.000756705
0.000754044
0.000751485
0.00074902
0.000746645
0.000744356
0.000742149
0.000740024
0.00073798
0.00073602
0.000734152
0.000732386
0.000730741
0.000729242
0.000727924
0.000726831
0.000726018
0.000725549
0.000725497
0.000725943
0.000726969
0.000728653
0.000731055
0.000734196
0.000738028
0.000742407
0.00074708
0.000751728
0.000756054
0.000759882
0.000763191
0.000766064
0.000768602
0.000770877
0.00077293
0.000774783
0.000776456
0.00077797
0.000779351
0.000780626
0.000781829
0.000782995
0.000784155
0.000785335
0.000786556
0.000787835