/*--------------------------------*- C++ -*----------------------------------*\
| =========                 |                                                 |
| \\      /  F ield         | OpenFOAM: The Open Source CFD Toolbox           |
|  \\    /   O peration     | Version:  4.1                                   |
|   \\  /    A nd           | Web:      www.OpenFOAM.org                      |
|    \\/     M anipulation  |                                                 |
\*---------------------------------------------------------------------------*/
FoamFile
{
    version     2.0;
    format      ascii;
    class       surfaceScalarField;
    location    "0.1";
    object      phi;
}
// * * * * * * * * * * * * * * * * * * * * * * * * * * * * * * * * * * * * * //

dimensions      [0 3 -1 0 0 0 0];

internalField   nonuniform List<scalar> 
87025
(
0.0199669
3.30603e-05
0.0199117
5.52093e-05
0.0198459
6.58203e-05
0.0197715
7.44401e-05
0.019689
8.24873e-05
0.0195992
8.97704e-05
0.0195029
9.63533e-05
0.0194003
0.000102527
0.0192918
0.000108501
0.0191775
0.000114357
0.0190573
0.000120131
0.0189315
0.00012586
0.0187999
0.000131584
0.0186626
0.000137333
0.0185194
0.000143131
0.0183704
0.000148996
0.0182155
0.000154942
0.0180545
0.000160977
0.0178874
0.000167106
0.0177141
0.000173325
0.0175345
0.000179622
0.0173485
0.00018597
0.0171562
0.000192327
0.0169575
0.000198629
0.0167528
0.000204786
0.0165421
0.000210679
0.0163259
0.000216156
0.0161049
0.000221057
0.0158797
0.0002252
0.0156513
0.00022839
0.0154208
0.000230447
0.0151896
0.000231233
0.0149589
0.000230685
0.0147301
0.000228853
0.0145041
0.000225938
0.0142818
0.000222306
0.0140633
0.000218472
0.0138483
0.00021503
0.0136358
0.000212531
0.0134244
0.000211331
0.013213
0.000211483
0.0130002
0.000212727
0.0127856
0.00021459
0.0125691
0.000216579
0.0123507
0.000218352
0.0121309
0.000219813
0.0119098
0.000221096
0.0116873
0.000222457
0.0114632
0.000224162
0.0112368
0.000226394
0.0110076
0.000229211
0.010775
0.000232552
0.0105388
0.000236266
0.0102986
0.000240169
0.0100545
0.000244086
0.00980662
0.000247892
0.00955509
0.000251523
0.00930013
0.000254965
0.0090419
0.000258228
0.00878058
0.00026132
0.00851634
0.000264237
0.00824938
0.000266962
0.00797991
0.000269469
0.00770818
0.00027173
0.00743447
0.000273716
0.00715907
0.000275399
0.00688232
0.000276751
0.00660457
0.000277744
0.00632622
0.000278348
0.00604769
0.000278534
0.00576942
0.000278275
0.00549187
0.000277543
0.00521556
0.000276312
0.004941
0.000274559
0.00466874
0.000272263
0.00439933
0.000269406
0.00413336
0.000265971
0.00387141
0.000261948
0.00361408
0.000257331
0.00336197
0.000252115
0.00311566
0.000246305
0.00287575
0.000239908
0.00264282
0.000232938
0.0024174
0.000225419
0.00220002
0.00021738
0.00199116
0.000208861
0.00179124
0.000199915
0.00160063
0.000190608
0.00141961
0.000181022
0.00124835
0.000171258
0.00108691
0.000161439
0.0009352
0.000151713
0.000792945
0.000142255
0.000659682
0.000133263
0.000534707
0.000124976
0.000417065
0.000117642
0.000305338
0.000111727
0.000197892
0.000107447
9.29176e-05
0.000104974
9.29176e-05
0.0200237
9.38383e-06
0.020053
2.59211e-05
0.0200817
3.70805e-05
0.02011
4.61518e-05
0.0201374
5.50471e-05
0.0201634
6.37876e-05
0.0201876
7.2192e-05
0.0202097
8.03747e-05
0.0202297
8.85126e-05
0.0202474
9.66938e-05
0.0202626
0.000104949
0.0202751
0.000113304
0.0202849
0.000121791
0.0202918
0.000130439
0.0202957
0.000139273
0.0202963
0.000148312
0.0202937
0.000157577
0.0202876
0.000167084
0.0202779
0.000176846
0.0202643
0.000186874
0.0202468
0.000197172
0.020225
0.000207736
0.0201988
0.000218546
0.0201678
0.000229575
0.0201318
0.000240773
0.0200905
0.00025207
0.0200432
0.000263372
0.0199897
0.000274561
0.0199294
0.000285494
0.0198618
0.000296009
0.0197863
0.000305935
0.0197025
0.000315113
0.0196097
0.000323422
0.0195078
0.000330804
0.0193964
0.000337297
0.0192757
0.000343044
0.0191459
0.000348286
0.0190076
0.000353336
0.0188615
0.000358535
0.0187086
0.000364235
0.0185493
0.000370809
0.0183834
0.000378659
0.0182098
0.000388182
0.0180268
0.000399623
0.0178323
0.00041285
0.0176249
0.000427172
0.0174046
0.000441365
0.0171731
0.00045402
0.0169331
0.000464078
0.0166882
0.0004713
0.0164411
0.000476353
0.0161932
0.000480481
0.0159445
0.00048494
0.0156941
0.000490526
0.0154408
0.000497419
0.0151834
0.000505332
0.0149211
0.000513804
0.0146536
0.000522446
0.0143808
0.00053104
0.0141026
0.000539519
0.0138189
0.000547883
0.0135298
0.000556139
0.013235
0.00056427
0.0129345
0.000572239
0.0126282
0.000579995
0.0123161
0.000587484
0.0119982
0.000594651
0.0116745
0.000601438
0.0113451
0.000607785
0.01101
0.00061363
0.0106693
0.000618909
0.0103233
0.000623556
0.00997213
0.000627506
0.00961599
0.000630693
0.0092552
0.000633055
0.00889008
0.000634531
0.00852098
0.000635064
0.00814833
0.000634604
0.00777255
0.000633105
0.00739414
0.00063053
0.00701359
0.000626853
0.00663144
0.000622055
0.00624825
0.000616132
0.00586457
0.000609094
0.00548099
0.000600966
0.00509806
0.000591792
0.00471633
0.00058164
0.00433634
0.000570601
0.00395856
0.000558798
0.00358343
0.00054639
0.0032113
0.000533571
0.00284243
0.000520584
0.00247696
0.000507722
0.00211491
0.000495318
0.00175612
0.00048376
0.00140032
0.000473441
0.00104713
0.000464922
0.000696063
0.000458513
0.000346165
0.000454872
0.000439083
0.0200007
8.72949e-06
0.0200012
2.54027e-05
0.0199988
3.94575e-05
0.0199933
5.16243e-05
0.0199852
6.31467e-05
0.0199746
7.43964e-05
0.0199615
8.53125e-05
0.0199459
9.59338e-05
0.0199281
0.000106397
0.0199079
0.000116804
0.0198857
0.0001272
0.0198614
0.000137614
0.0198351
0.000148077
0.0198069
0.00015862
0.0197769
0.000169268
0.0197452
0.000180045
0.0197118
0.000190969
0.0196768
0.000202059
0.0196403
0.000213328
0.0196024
0.000224787
0.0195632
0.000236441
0.0195226
0.00024829
0.0194808
0.000260327
0.0194379
0.000272534
0.0193937
0.000284885
0.0193485
0.000297341
0.019302
0.000309851
0.0192542
0.000322353
0.0192049
0.000334775
0.0191539
0.000347042
0.0191007
0.000359078
0.019045
0.000370818
0.0189862
0.000382217
0.0189238
0.000393271
0.0188571
0.000404022
0.0187855
0.000414566
0.0187088
0.000425017
0.0186267
0.000435469
0.0185393
0.000445948
0.018447
0.000456447
0.0183508
0.000467074
0.0182512
0.000478288
0.0181483
0.000491077
0.018041
0.000506863
0.0179268
0.000527024
0.0178019
0.000552138
0.0176619
0.000581334
0.0175037
0.000612228
0.0173262
0.000641606
0.0171309
0.00066661
0.0169214
0.000685798
0.0167024
0.00069953
0.0164778
0.00070953
0.0162503
0.000717961
0.0160212
0.000726559
0.0157903
0.0007362
0.0155572
0.000746983
0.015321
0.000758587
0.0150814
0.000770632
0.0148381
0.000782868
0.0145908
0.000795199
0.0143393
0.000807614
0.0140834
0.000820115
0.013823
0.000832687
0.0135577
0.000845292
0.0132873
0.000857881
0.0130115
0.000870402
0.0127302
0.000882798
0.012443
0.000895011
0.0121496
0.000906978
0.0118499
0.000918633
0.0115435
0.000929906
0.0112303
0.000940725
0.01091
0.000951016
0.0105824
0.000960702
0.0102472
0.000969709
0.00990428
0.000977961
0.00955349
0.000985386
0.00919468
0.000991913
0.00882774
0.000997479
0.00845256
0.00100202
0.00806912
0.0010055
0.0076774
0.00100785
0.00727744
0.00100906
0.0068693
0.0010091
0.00645313
0.00100796
0.00602911
0.00100566
0.00559748
0.00100223
0.00515855
0.000997724
0.0047127
0.000992236
0.00426038
0.000985896
0.00380208
0.000978883
0.00333837
0.000971429
0.00286988
0.000963814
0.00239726
0.000956379
0.00192123
0.000949465
0.00144262
0.000943534
0.000962482
0.000938652
0.000481112
0.000936242
0.000920195
0.0199998
8.95559e-06
0.0199985
2.66532e-05
0.0199948
4.31369e-05
0.0199881
5.83597e-05
0.0199784
7.28806e-05
0.0199657
8.70647e-05
0.0199501
0.000100968
0.0199314
0.000114608
0.0199097
0.00012807
0.0198851
0.000141443
0.0198575
0.000154783
0.019827
0.000168124
0.0197936
0.000181498
0.0197572
0.000194935
0.019718
0.000208462
0.019676
0.000222101
0.0196311
0.00023587
0.0195834
0.000249784
0.0195328
0.000263853
0.0194795
0.000278084
0.0194235
0.000292479
0.0193648
0.000307033
0.0193034
0.000321733
0.0192393
0.000336561
0.0191727
0.000351488
0.0191036
0.000366479
0.0190319
0.000381488
0.0189578
0.000396464
0.0188813
0.000411353
0.0188022
0.000426103
0.0187206
0.000440665
0.0186364
0.000455001
0.0185495
0.000469095
0.0184599
0.00048296
0.0183672
0.000496653
0.0182715
0.000510257
0.0181727
0.000523853
0.0180707
0.000537449
0.0179657
0.000550942
0.017858
0.000564174
0.0177479
0.000577152
0.0176358
0.000590402
0.0175216
0.000605273
0.0174046
0.000623901
0.0172829
0.000648653
0.017154
0.000681098
0.0170144
0.000720957
0.016861
0.000765632
0.0166918
0.000810742
0.0165069
0.000851569
0.0163079
0.000884739
0.0160982
0.000909286
0.0158811
0.000926604
0.0156596
0.000939446
0.0154356
0.000950615
0.0152097
0.000962047
0.0149821
0.000974563
0.0147525
0.000988168
0.0145206
0.00100253
0.0142862
0.00101732
0.014049
0.00103236
0.013809
0.00104762
0.0135661
0.00106308
0.01332
0.00107874
0.0130707
0.0010946
0.012818
0.00111061
0.0125617
0.00112673
0.0123015
0.00114293
0.0120374
0.00115917
0.0117689
0.00117541
0.011496
0.0011916
0.0112182
0.0012077
0.0109352
0.00122367
0.0106468
0.00123946
0.0103525
0.00125502
0.0100519
0.0012703
0.00974458
0.00128526
0.00943012
0.00129984
0.00910802
0.00131401
0.00877778
0.00132772
0.00843888
0.00134093
0.00809078
0.00135359
0.00773297
0.00136566
0.00736492
0.00137711
0.00698614
0.00138788
0.00659616
0.00139794
0.0061946
0.00140723
0.00578113
0.0014157
0.00535555
0.00142331
0.00491778
0.00143
0.00446792
0.00143576
0.00400624
0.00144056
0.00353325
0.00144442
0.00304968
0.00144739
0.0025565
0.00144956
0.00205494
0.00145102
0.00154649
0.00145199
0.00103295
0.00145219
0.000515684
0.00145351
0.00143588
0.0199993
9.70466e-06
0.0199968
2.9076e-05
0.0199921
4.7821e-05
0.0199847
6.57585e-05
0.0199745
8.3088e-05
0.0199615
0.00010006
0.0199457
0.000116776
0.0199271
0.00013327
0.0199055
0.000149598
0.0198812
0.000165832
0.0198539
0.000182031
0.0198238
0.000198237
0.0197908
0.000214481
0.0197549
0.000230796
0.0197162
0.000247211
0.0196746
0.000263751
0.01963
0.000280436
0.0195825
0.000297284
0.019532
0.000314307
0.0194786
0.000331514
0.0194222
0.000348909
0.0193627
0.000366487
0.0193002
0.000384242
0.0192346
0.000402155
0.0191659
0.000420205
0.019094
0.000438361
0.0190189
0.000456585
0.0189405
0.000474838
0.0188588
0.000493076
0.0187737
0.000511257
0.018685
0.000529345
0.0185927
0.00054731
0.0184966
0.00056514
0.0183967
0.000582847
0.0182929
0.000600475
0.0181851
0.000618077
0.0180733
0.00063568
0.0179575
0.000653217
0.0178379
0.000670527
0.0177146
0.000687476
0.0175875
0.000704254
0.0174561
0.000721772
0.0173195
0.000741896
0.0171762
0.000767248
0.0170244
0.000800425
0.0168627
0.000842837
0.01669
0.000893662
0.0165061
0.000949525
0.0163116
0.00100524
0.0161077
0.00105545
0.015896
0.00109639
0.0156783
0.00112705
0.0154558
0.00114903
0.0152298
0.00116551
0.0150007
0.00117969
0.0147689
0.00119386
0.0145344
0.00120905
0.0142972
0.00122535
0.0140573
0.00124245
0.0138146
0.00126003
0.013569
0.00127791
0.0133206
0.00129604
0.0130693
0.00131442
0.012815
0.00133303
0.0125577
0.00135187
0.0122974
0.00137091
0.012034
0.0013901
0.0117675
0.00140943
0.0114978
0.00142886
0.0112249
0.00144838
0.0109485
0.00146794
0.0106687
0.00148753
0.0103853
0.00150713
0.010098
0.00152673
0.00980671
0.0015463
0.00951116
0.00156584
0.00921106
0.00158536
0.00890606
0.00160484
0.00859578
0.00162429
0.00827977
0.00164373
0.00795752
0.00166318
0.00762848
0.00168263
0.00729204
0.00170211
0.00694754
0.00172161
0.00659428
0.00174114
0.00623155
0.00176067
0.00585862
0.00178015
0.00547481
0.00179951
0.0050795
0.00181862
0.00467215
0.00183735
0.00425242
0.0018555
0.00382013
0.00187285
0.0033754
0.00188915
0.00291864
0.00190414
0.00245063
0.00191757
0.0019725
0.00192915
0.00148576
0.00193873
0.000992273
0.00194568
0.000494017
0.00195176
0.0019299
0.019999
1.07021e-05
0.019996
3.20682e-05
0.0199908
5.30636e-05
0.019983
7.35394e-05
0.0199725
9.35494e-05
0.0199593
0.000113237
0.0199434
0.000132696
0.0199247
0.000151972
0.0199032
0.000171106
0.0198789
0.000190155
0.0198518
0.000209172
0.0198218
0.000228199
0.019789
0.000247271
0.0197534
0.000266419
0.0197149
0.000285674
0.0196736
0.000305064
0.0196294
0.000324611
0.0195824
0.000344336
0.0195324
0.000364254
0.0194796
0.000384377
0.0194238
0.000404712
0.019365
0.000425259
0.0193032
0.000446014
0.0192384
0.000466968
0.0191705
0.000488105
0.0190995
0.000509402
0.0190252
0.000530835
0.0189477
0.000552375
0.0188668
0.000573993
0.0187824
0.00059566
0.0186944
0.000617354
0.0186026
0.000639058
0.018507
0.000660765
0.0184073
0.000682491
0.0183035
0.000704273
0.0181955
0.00072615
0.018083
0.000748112
0.0179662
0.000770043
0.017845
0.000791747
0.0177193
0.00081314
0.0175889
0.000834642
0.0174531
0.000857625
0.0173104
0.000884587
0.0171589
0.00091873
0.0169965
0.000962842
0.0168215
0.00101786
0.0166333
0.00108183
0.0164329
0.00114992
0.0162224
0.00121571
0.0160046
0.00127329
0.0157819
0.00131915
0.0155558
0.00135308
0.0153272
0.00137763
0.0150961
0.00139667
0.014862
0.00141374
0.0146247
0.00143114
0.014384
0.00144975
0.0141399
0.00146953
0.0138922
0.00149013
0.013641
0.0015112
0.0133863
0.00153258
0.0131281
0.00155424
0.0128664
0.00157617
0.0126011
0.00159837
0.0123321
0.00162081
0.0120596
0.00164346
0.0117834
0.00166627
0.0115036
0.00168921
0.0112202
0.00171225
0.0109333
0.00173535
0.0106427
0.00175849
0.0103486
0.00178165
0.0100509
0.00180481
0.00974969
0.00182796
0.00944489
0.0018511
0.0091365
0.00187424
0.00882446
0.00189739
0.00850869
0.0019206
0.00818909
0.0019439
0.00786549
0.00196734
0.00753767
0.00199099
0.00720537
0.00201493
0.00686825
0.00203923
0.00652591
0.00206395
0.00617787
0.00208918
0.00582361
0.00211494
0.00546252
0.00214124
0.00509397
0.00216805
0.00471733
0.00219527
0.00433197
0.00222271
0.00393735
0.00225012
0.00353307
0.00227713
0.00311891
0.00230331
0.00269494
0.00232812
0.00226152
0.00235099
0.0018194
0.00237127
0.00136968
0.00238845
0.000913829
0.00240153
0.000453705
0.00241189
0.0023836
0.0199989
1.18078e-05
0.0199956
3.53674e-05
0.01999
5.86813e-05
0.0199819
8.16496e-05
0.0199711
0.000104275
0.0199577
0.00012663
0.0199417
0.000148786
0.0199228
0.000170789
0.0199013
0.000192675
0.0198769
0.000214491
0.0198498
0.000236283
0.0198199
0.000258092
0.0197872
0.000279955
0.0197518
0.000301903
0.0197135
0.00032397
0.0196723
0.000346183
0.0196284
0.000368569
0.0195816
0.00039115
0.0195319
0.000413943
0.0194793
0.000436964
0.0194238
0.000460222
0.0193653
0.000483721
0.0193039
0.000507462
0.0192394
0.000531441
0.0191719
0.000555648
0.0191012
0.000580068
0.0190273
0.000604685
0.0189502
0.000629481
0.0188698
0.000654437
0.0187859
0.000679538
0.0186985
0.000704772
0.0186074
0.00073013
0.0185126
0.000755614
0.0184138
0.000781244
0.018311
0.000807059
0.0182041
0.000833092
0.0180929
0.000859319
0.0179773
0.000885599
0.0178574
0.000911714
0.0177329
0.00093762
0.0176036
0.000963916
0.0174689
0.000992359
0.0173274
0.00102603
0.0171774
0.00106875
0.0170166
0.00112364
0.0168431
0.00119138
0.0166559
0.00126904
0.0164555
0.00135029
0.016244
0.00142725
0.0160241
0.00149311
0.0157989
0.00154439
0.0155703
0.00158166
0.0153394
0.00160856
0.0151062
0.00162988
0.0148702
0.00164968
0.014631
0.00167033
0.0143882
0.00169258
0.0141415
0.00171621
0.0138909
0.00174072
0.0136364
0.00176574
0.0133779
0.00179111
0.0131153
0.00181682
0.0128486
0.00184288
0.0125777
0.00186927
0.0123025
0.00189596
0.0120231
0.0019229
0.0117393
0.00195005
0.0114511
0.00197735
0.0111586
0.00200477
0.0108617
0.00203225
0.0105605
0.00205976
0.0102548
0.00208726
0.00994493
0.00211473
0.00963076
0.00214213
0.00931241
0.00216945
0.00898995
0.0021967
0.00866347
0.00222388
0.00833305
0.00225101
0.0079988
0.00227815
0.00766078
0.00230535
0.00731908
0.0023327
0.00697374
0.00236027
0.00662477
0.0023882
0.00627214
0.00241658
0.00591579
0.00244553
0.00555557
0.00247516
0.00519129
0.00250553
0.00482267
0.00253667
0.00444942
0.00256852
0.00407116
0.00260096
0.00368755
0.00263373
0.00329825
0.00266643
0.00290302
0.00269854
0.00250176
0.00272938
0.00209455
0.0027582
0.00168173
0.00278408
0.00126392
0.00280626
0.000841954
0.0028235
0.00041711
0.00283673
0.00280071
0.0199988
1.29726e-05
0.0199954
3.88493e-05
0.0199895
6.45428e-05
0.0199812
8.99905e-05
0.0199702
0.000115183
0.0199567
0.000140157
0.0199405
0.000164965
0.0199217
0.000189647
0.0199001
0.000214238
0.0198758
0.000238779
0.0198488
0.00026331
0.019819
0.00028787
0.0197865
0.000312495
0.0197512
0.000337221
0.0197131
0.000362078
0.0196721
0.000387098
0.0196284
0.000412309
0.0195818
0.000437735
0.0195324
0.000463396
0.01948
0.00048931
0.0194248
0.00051549
0.0193665
0.000541944
0.0193053
0.000568676
0.0192411
0.000595688
0.0191737
0.000622974
0.0191033
0.000650528
0.0190296
0.00067834
0.0189527
0.0007064
0.0188724
0.000734698
0.0187888
0.000763228
0.0187015
0.000791986
0.0186107
0.00082097
0.0185161
0.000850188
0.0184177
0.000879664
0.0183153
0.00090944
0.0182089
0.000939552
0.0180982
0.000969969
0.0179833
0.00100053
0.017864
0.00103099
0.0177403
0.00106134
0.0176119
0.00109229
0.0174784
0.00112591
0.0173386
0.00116577
0.0171911
0.00121626
0.0170338
0.00128094
0.0168648
0.00136044
0.0166827
0.00145115
0.0164874
0.00154553
0.0162804
0.00163429
0.0160639
0.00170956
0.0158408
0.00176753
0.0156133
0.00180919
0.0153828
0.00183908
0.0151497
0.00186291
0.014914
0.0018854
0.0146752
0.00190919
0.0144327
0.001935
0.0141865
0.00196248
0.0139362
0.001991
0.0136818
0.00202011
0.0134233
0.00204967
0.0131604
0.00207964
0.0128932
0.00211007
0.0126216
0.00214094
0.0123453
0.0021722
0.0120644
0.00220382
0.0117787
0.00223573
0.0114882
0.00226787
0.0111928
0.0023002
0.0108924
0.00233265
0.0105869
0.00236518
0.0102765
0.00239772
0.00996097
0.00243024
0.00964042
0.00246268
0.00931487
0.002495
0.00898438
0.00252718
0.00864905
0.00255921
0.00830899
0.00259107
0.00796436
0.00262279
0.00761533
0.00265439
0.0072621
0.00268592
0.0069049
0.00271747
0.00654397
0.00274913
0.00617955
0.00278099
0.0058119
0.00281318
0.00544124
0.00284582
0.00506777
0.00287899
0.00469167
0.00291277
0.00431303
0.00294716
0.00393194
0.00298206
0.00354839
0.00301727
0.00316237
0.00305245
0.00277382
0.00308708
0.00238273
0.00312048
0.0019891
0.00315182
0.00159305
0.00318013
0.0011948
0.00320452
0.000794652
0.00322364
0.000393186
0.0032382
0.0031939
0.0199988
1.41725e-05
0.0199952
4.24379e-05
0.0199892
7.05523e-05
0.0199807
9.84788e-05
0.0199697
0.000126211
0.0199561
0.000153771
0.0199398
0.000181195
0.019921
0.000208521
0.0198994
0.000235781
0.0198752
0.00026301
0.0198483
0.000290246
0.0198186
0.000317526
0.0197862
0.000344886
0.0197511
0.000372361
0.0197132
0.000399985
0.0196725
0.00042779
0.019629
0.000455806
0.0195826
0.00048406
0.0195335
0.000512575
0.0194814
0.000541372
0.0194264
0.000570466
0.0193685
0.00059987
0.0193076
0.000629593
0.0192436
0.000659639
0.0191766
0.000690011
0.0191064
0.000720705
0.019033
0.00075172
0.0189564
0.000783051
0.0188764
0.000814698
0.018793
0.000846661
0.018706
0.000878942
0.0186154
0.000911546
0.0185211
0.000944484
0.018423
0.000977786
0.0183209
0.0010115
0.0182148
0.00104566
0.0181046
0.00108023
0.0179901
0.00111504
0.0178712
0.00114982
0.017748
0.00118455
0.0176203
0.00122006
0.0174875
0.00125868
0.0173488
0.00130442
0.0172029
0.00136219
0.0170479
0.00143597
0.0168819
0.00152644
0.0167035
0.00162951
0.0165124
0.00173662
0.0163095
0.00183723
0.0160966
0.00192244
0.0158762
0.00198789
0.0156507
0.00203475
0.0154215
0.00206824
0.0151895
0.00209491
0.0149548
0.00212016
0.0147169
0.00214701
0.0144757
0.00217627
0.0142306
0.0022075
0.0139817
0.00223998
0.0137286
0.00227317
0.0134714
0.00230691
0.0132098
0.00234118
0.0129439
0.00237601
0.0126734
0.0024114
0.0123983
0.00244732
0.0121184
0.0024837
0.0118337
0.0025205
0.0115439
0.00255765
0.011249
0.00259508
0.0109489
0.00263274
0.0106435
0.00267057
0.0103327
0.0027085
0.0100165
0.00274646
0.0096948
0.0027844
0.00936756
0.00282224
0.0090348
0.00285994
0.00869656
0.00289745
0.0083529
0.00293473
0.00800393
0.00297176
0.00764981
0.00300851
0.00729073
0.003045
0.00692696
0.00308125
0.00655879
0.0031173
0.00618657
0.0031532
0.00581071
0.00318905
0.00543163
0.0032249
0.00504978
0.00326084
0.00466564
0.00329692
0.00427964
0.00333315
0.00389222
0.00336948
0.00350374
0.00340575
0.00311454
0.00344166
0.00272484
0.00347678
0.00233483
0.00351049
0.00194461
0.00354204
0.00155425
0.00357049
0.00116376
0.00359501
0.00077313
0.00361427
0.00038241
0.00362892
0.00357631
0.0199988
1.53925e-05
0.0199951
4.60874e-05
0.019989
7.66479e-05
0.0199805
0.000107056
0.0199694
0.00013731
0.0199557
0.000167429
0.0199395
0.000197441
0.0199206
0.000227378
0.0198991
0.000257272
0.019875
0.000287155
0.0198481
0.000317063
0.0198186
0.000347031
0.0197864
0.000377097
0.0197515
0.000407295
0.0197138
0.00043766
0.0196734
0.000468228
0.0196302
0.000499029
0.0195841
0.000530093
0.0195353
0.000561446
0.0194835
0.000593113
0.0194289
0.000625111
0.0193713
0.000657457
0.0193107
0.000690164
0.0192471
0.000723241
0.0191804
0.000756695
0.0191106
0.000790529
0.0190376
0.000824746
0.0189613
0.000859348
0.0188816
0.00089434
0.0187986
0.00092973
0.018712
0.000965525
0.0186218
0.00100174
0.0185279
0.00103838
0.0184302
0.00107548
0.0183286
0.00111311
0.018223
0.00115129
0.0181132
0.00118999
0.0179992
0.00122902
0.017881
0.00126808
0.0177584
0.00130716
0.0176313
0.00134717
0.0174993
0.00139068
0.0173615
0.00144213
0.0172168
0.00150694
0.0170633
0.00158948
0.0168992
0.00169053
0.0167231
0.00180557
0.0165346
0.00192514
0.0163343
0.00203754
0.0161239
0.00213282
0.0159057
0.0022061
0.0156819
0.00225858
0.0154541
0.00229602
0.0152232
0.00232576
0.0149895
0.00235386
0.0147528
0.00238376
0.0145126
0.00241642
0.0142688
0.00245135
0.014021
0.00248772
0.0137692
0.00252497
0.0135133
0.00256286
0.0132531
0.00260139
0.0129885
0.00264059
0.0127194
0.00268048
0.0124457
0.00272103
0.0121673
0.00276216
0.0118839
0.00280383
0.0115956
0.00284597
0.0113022
0.00288852
0.0110035
0.00293141
0.0106995
0.00297458
0.01039
0.00301796
0.010075
0.00306147
0.0097544
0.00310503
0.00942807
0.00314857
0.00909599
0.00319202
0.00875815
0.0032353
0.00841454
0.00327834
0.00806522
0.00332108
0.00771026
0.00336346
0.00734982
0.00340544
0.00698408
0.00344698
0.00661332
0.00348806
0.00623785
0.00352867
0.00585808
0.00356881
0.00547448
0.0036085
0.00508758
0.00364774
0.00469796
0.00368654
0.00430623
0.00372488
0.00391302
0.00376269
0.00351894
0.00379983
0.00312456
0.00383604
0.00273035
0.00387098
0.0023367
0.00390413
0.00194387
0.00393487
0.001552
0.00396237
0.00116107
0.00398594
0.000770959
0.00400438
0.000381438
0.00401844
0.00395774
0.0199988
1.66228e-05
0.0199951
4.97685e-05
0.0199889
8.27881e-05
0.0199803
0.000115676
0.0199692
0.000148439
0.0199555
0.000181094
0.0199393
0.000213667
0.0199205
0.000246186
0.0198991
0.000278683
0.0198751
0.000311188
0.0198484
0.000343736
0.0198191
0.000376363
0.019787
0.000409104
0.0197523
0.000441998
0.0197149
0.000475079
0.0196748
0.000508385
0.0196318
0.000541949
0.0195861
0.000575803
0.0195376
0.000609977
0.0194862
0.000644496
0.0194319
0.000679384
0.0193747
0.000714659
0.0193146
0.00075034
0.0192514
0.000786438
0.0191851
0.000822966
0.0191157
0.000859931
0.0190431
0.000897341
0.0189672
0.000935205
0.0188881
0.000973532
0.0188054
0.00101234
0.0187193
0.00105163
0.0186297
0.00109143
0.0185363
0.00113175
0.0184391
0.00117263
0.0183381
0.00121413
0.0182331
0.00125631
0.018124
0.0012991
0.0180107
0.00134231
0.0178931
0.00138561
0.0177713
0.00142899
0.017645
0.00147344
0.017514
0.00152175
0.0173773
0.00157877
0.0172338
0.00165044
0.0170818
0.00174155
0.0169193
0.00185299
0.016745
0.00197984
0.0165584
0.00211176
0.01636
0.00223594
0.0161514
0.0023414
0.0159349
0.00242268
0.0157125
0.00248098
0.0154859
0.00252257
0.0152562
0.00255552
0.0150235
0.00258655
0.0147877
0.00261953
0.0145486
0.00265558
0.0143057
0.00269419
0.014059
0.00273446
0.0138082
0.00277574
0.0135533
0.00281778
0.0132941
0.00286056
0.0130306
0.00290414
0.0127625
0.00294851
0.0124899
0.00299366
0.0122125
0.00303952
0.0119303
0.00308604
0.0116431
0.00313315
0.0113509
0.00318078
0.0110534
0.00322887
0.0107507
0.00327735
0.0104425
0.00332614
0.0101288
0.00337516
0.00980948
0.00342433
0.0094845
0.00347356
0.00915375
0.00352276
0.0088172
0.00357185
0.00847482
0.00362072
0.0081266
0.0036693
0.00777258
0.00371748
0.00741285
0.00376518
0.00704752
0.00381231
0.0066768
0.00385879
0.00630093
0.00390454
0.00592025
0.00394949
0.00553517
0.00399358
0.00514618
0.00403674
0.00475383
0.00407889
0.00435875
0.00411996
0.00396162
0.00415983
0.00356311
0.00419833
0.00316391
0.00423525
0.00276462
0.00427028
0.00236576
0.00430299
0.00196774
0.00433289
0.00157079
0.00435931
0.00117499
0.00438175
0.000780227
0.00439914
0.000386228
0.00441244
0.00434397
0.0199988
1.78569e-05
0.0199951
5.34614e-05
0.0199889
8.89431e-05
0.0199803
0.000124306
0.0199692
0.000159563
0.0199555
0.000194733
0.0199394
0.000229841
0.0199206
0.000264915
0.0198993
0.000299984
0.0198754
0.000335081
0.0198489
0.00037024
0.0198198
0.000405495
0.019788
0.000440883
0.0197536
0.000476444
0.0197164
0.000512215
0.0196766
0.000548233
0.019634
0.000584536
0.0195886
0.000621157
0.0195405
0.00065813
0.0194895
0.000695483
0.0194356
0.000733242
0.0193789
0.000771431
0.0193191
0.000810069
0.0192564
0.000849175
0.0191906
0.000888763
0.0191217
0.000928846
0.0190496
0.000969436
0.0189743
0.00101055
0.0188956
0.00105219
0.0188135
0.00109439
0.018728
0.00113716
0.0186389
0.00118052
0.0185462
0.00122449
0.0184497
0.00126912
0.0183493
0.00131447
0.018245
0.0013606
0.0181367
0.00140745
0.0180242
0.00145479
0.0179075
0.00150229
0.0177866
0.00154991
0.0176613
0.00159872
0.0175313
0.00165174
0.0173959
0.00171421
0.0172538
0.00179257
0.0171033
0.00189208
0.0169425
0.00201374
0.0167701
0.00215228
0.0165853
0.00229653
0.0163887
0.00243253
0.0161818
0.00254829
0.0159668
0.00263773
0.0157457
0.00270201
0.0155204
0.0027479
0.0152918
0.00278416
0.0150601
0.00281819
0.0148254
0.00285429
0.0145872
0.00289375
0.0143453
0.00293606
0.0140995
0.00298025
0.0138497
0.00302559
0.0135957
0.0030718
0.0133374
0.00311886
0.0130747
0.00316682
0.0128075
0.00321571
0.0125357
0.00326548
0.0122591
0.00331609
0.0119777
0.00336747
0.0116913
0.00341955
0.0113998
0.00347227
0.0111031
0.00352556
0.0108011
0.00357933
0.0104937
0.00363352
0.0101808
0.00368803
0.0098624
0.00374278
0.0095383
0.00379766
0.00920848
0.00385258
0.00887289
0.00390743
0.0085315
0.00396211
0.0081843
0.0040165
0.0078313
0.00407048
0.00747254
0.00412393
0.00710812
0.00417673
0.00673816
0.00422874
0.00636286
0.00427984
0.00598246
0.00432989
0.0055973
0.00437875
0.00520776
0.00442627
0.00481433
0.00447232
0.00441755
0.00451674
0.00401803
0.00455934
0.00361643
0.00459994
0.00321339
0.00463828
0.00280958
0.00467409
0.00240555
0.00470702
0.00200178
0.00473666
0.00159861
0.00476249
0.00119621
0.00478415
0.000794593
0.00480075
0.000393556
0.00481348
0.00473753
0.0199988
1.90901e-05
0.0199951
5.7152e-05
0.0199889
9.5091e-05
0.0199803
0.000132919
0.0199692
0.000170654
0.0199556
0.000208317
0.0199395
0.000245936
0.0199209
0.000283537
0.0198998
0.000321151
0.019876
0.00035881
0.0198497
0.000396548
0.0198208
0.000434401
0.0197893
0.000472407
0.0197551
0.000510606
0.0197183
0.000549038
0.0196788
0.000587741
0.0196366
0.000626757
0.0195916
0.000666121
0.0195439
0.00070587
0.0194933
0.000746034
0.0194399
0.000786644
0.0193836
0.000827725
0.0193244
0.000869302
0.0192622
0.000911397
0.0191969
0.000954026
0.0191285
0.000997209
0.019057
0.00104096
0.0189823
0.0010853
0.0189042
0.00113024
0.0188228
0.00117581
0.0187379
0.00122203
0.0186495
0.00126893
0.0185575
0.00131652
0.0184618
0.00136486
0.0183622
0.00141402
0.0182588
0.00146406
0.0181513
0.00151492
0.0180397
0.00156635
0.017924
0.001618
0.0178041
0.0016698
0.0176799
0.0017229
0.0175512
0.00178053
0.017417
0.00184832
0.0172764
0.00193322
0.0171275
0.00204093
0.0169686
0.00217264
0.0167982
0.00232277
0.0166154
0.00247931
0.0164207
0.00262721
0.0162156
0.00275341
0.0160021
0.00285117
0.0157825
0.00292162
0.0155585
0.00297194
0.0153311
0.00301159
0.0151006
0.00304868
0.0148669
0.00308792
0.0146299
0.00313082
0.0143891
0.00317687
0.0141443
0.003225
0.0138955
0.00327444
0.0136424
0.00332485
0.013385
0.00337623
0.0131232
0.00342863
0.0128569
0.00348207
0.0125858
0.00353652
0.01231
0.00359193
0.0120292
0.00364822
0.0117435
0.00370533
0.0114525
0.00376319
0.0111564
0.00382172
0.0108549
0.00388084
0.0105479
0.00394046
0.0102355
0.00400049
0.00991742
0.00406084
0.00959369
0.00412139
0.00926424
0.00418203
0.00892903
0.00424265
0.00858803
0.00430311
0.00824123
0.0043633
0.00788864
0.00442306
0.00753032
0.00448226
0.00716632
0.00454073
0.00679676
0.00459831
0.00642178
0.00465482
0.00604158
0.00471009
0.00565641
0.00476391
0.0052666
0.00481609
0.00487251
0.00486641
0.00447461
0.00491464
0.00407339
0.00496056
0.00366942
0.00500391
0.00326328
0.00504442
0.00285557
0.0050818
0.00244686
0.00511574
0.00203762
0.00514589
0.00162826
0.00517184
0.00121905
0.00519336
0.000810136
0.00520967
0.000401439
0.00522217
0.00513897
0.0199988
2.03189e-05
0.0199951
6.08292e-05
0.019989
0.000101215
0.0199804
0.000141493
0.0199694
0.000181688
0.0199559
0.000221823
0.0199399
0.000261927
0.0199214
0.000302028
0.0199004
0.000342158
0.0198768
0.000382348
0.0198507
0.000422635
0.0198221
0.000463056
0.0197908
0.000503649
0.019757
0.000544456
0.0197205
0.000585519
0.0196814
0.00062688
0.0196396
0.00066858
0.019595
0.000710661
0.0195477
0.000753159
0.0194976
0.000796109
0.0194447
0.000839545
0.019389
0.000883495
0.0193303
0.000927988
0.0192686
0.000973048
0.019204
0.0010187
0.0191362
0.00106496
0.0190653
0.00111184
0.0189913
0.00115938
0.0189139
0.0012076
0.0188332
0.00125652
0.0187491
0.00130616
0.0186614
0.00135655
0.0185702
0.00140773
0.0184753
0.00145975
0.0183767
0.00151268
0.0182742
0.00156658
0.0181677
0.0016214
0.0180572
0.00167688
0.0179425
0.00173262
0.0178238
0.00178855
0.0177008
0.00184588
0.0175733
0.00190803
0.0174406
0.001981
0.0173016
0.00207228
0.0171545
0.00218802
0.0169975
0.0023296
0.0168291
0.00249117
0.0166485
0.00265996
0.0164559
0.00281981
0.0162527
0.0029566
0.016041
0.00306288
0.0158229
0.00313967
0.0156003
0.00319456
0.0153741
0.00323772
0.0151449
0.00327789
0.0149125
0.00332031
0.0146767
0.00336666