/*--------------------------------*- C++ -*----------------------------------*\
| =========                 |                                                 |
| \\      /  F ield         | OpenFOAM: The Open Source CFD Toolbox           |
|  \\    /   O peration     | Version:  4.1                                   |
|   \\  /    A nd           | Web:      www.OpenFOAM.org                      |
|    \\/     M anipulation  |                                                 |
\*---------------------------------------------------------------------------*/
FoamFile
{
    version     2.0;
    format      ascii;
    class       volVectorField;
    location    "0.1";
    object      U;
}
// * * * * * * * * * * * * * * * * * * * * * * * * * * * * * * * * * * * * * //

dimensions      [0 1 -1 0 0 0 0];

internalField   nonuniform List<vector> 
43750
(
(9.99008 0.0213287 0)
(9.96926 0.0355257 0)
(9.94153 0.0413866 0)
(9.9063 0.0452285 0)
(9.86615 0.0486944 0)
(9.82271 0.0519055 0)
(9.77624 0.0548115 0)
(9.7266 0.0574686 0)
(9.67382 0.0599552 0)
(9.61806 0.062315 0)
(9.55942 0.0645687 0)
(9.49792 0.0667329 0)
(9.43357 0.0688248 0)
(9.36634 0.0708597 0)
(9.29623 0.0728492 0)
(9.22321 0.0748023 0)
(9.14723 0.0767259 0)
(9.06827 0.0786248 0)
(8.98626 0.0805015 0)
(8.90116 0.0823556 0)
(8.81294 0.0841825 0)
(8.72154 0.0859721 0)
(8.62697 0.0877064 0)
(8.52922 0.0893576 0)
(8.42834 0.0908857 0)
(8.32443 0.092236 0)
(8.21765 0.0933377 0)
(8.10826 0.0941007 0)
(7.99658 0.0944179 0)
(7.88305 0.0941757 0)
(7.76818 0.0932668 0)
(7.65259 0.0916058 0)
(7.53694 0.0891507 0)
(7.42191 0.0859272 0)
(7.3081 0.0820527 0)
(7.196 0.0777526 0)
(7.08584 0.0733516 0)
(6.97757 0.0692243 0)
(6.87083 0.0656993 0)
(6.76504 0.0629413 0)
(6.65949 0.06087 0)
(6.55353 0.0591768 0)
(6.44673 0.0574672 0)
(6.33892 0.0554789 0)
(6.23016 0.0532625 0)
(6.1206 0.0512075 0)
(6.01038 0.0498726 0)
(5.89953 0.0497025 0)
(5.78794 0.0507957 0)
(5.67537 0.0528556 0)
(5.56153 0.0553433 0)
(5.44613 0.0577245 0)
(5.32895 0.0596634 0)
(5.20984 0.0610793 0)
(5.08876 0.0620753 0)
(4.96575 0.0628175 0)
(4.84088 0.0634402 0)
(4.71424 0.0640092 0)
(4.58592 0.0645342 0)
(4.45602 0.0649981 0)
(4.32461 0.0653802 0)
(4.19179 0.0656661 0)
(4.05765 0.065847 0)
(3.92232 0.0659164 0)
(3.78593 0.065868 0)
(3.64862 0.065695 0)
(3.51054 0.0653903 0)
(3.37187 0.0649469 0)
(3.2328 0.0643586 0)
(3.09353 0.0636195 0)
(2.95428 0.0627249 0)
(2.81527 0.0616706 0)
(2.67674 0.0604533 0)
(2.53897 0.059071 0)
(2.4022 0.0575228 0)
(2.26671 0.0558086 0)
(2.1328 0.05393 0)
(2.00076 0.0518892 0)
(1.87087 0.0496901 0)
(1.74345 0.0473375 0)
(1.61878 0.0448375 0)
(1.49717 0.0421975 0)
(1.3789 0.039426 0)
(1.26426 0.0365331 0)
(1.15352 0.0335309 0)
(1.04692 0.0304335 0)
(0.9447 0.0272576 0)
(0.847055 0.0240236 0)
(0.754147 0.0207556 0)
(0.66609 0.0174831 0)
(0.582945 0.0142409 0)
(0.504702 0.011071 0)
(0.43127 0.00802422 0)
(0.36247 0.00515873 0)
(0.297994 0.00254947 0)
(0.237486 0.000271683 0)
(0.180039 -0.00148615 0)
(0.126773 -0.00272018 0)
(0.0685806 -0.00317415 0)
(0.0267984 -0.00706524 0)
(10.004 0.00673285 0)
(10.0179 0.0159888 0)
(10.0336 0.0216523 0)
(10.0484 0.0261648 0)
(10.0622 0.0305559 0)
(10.0754 0.0347648 0)
(10.0879 0.0386785 0)
(10.0996 0.0423885 0)
(10.1102 0.0460238 0)
(10.1196 0.0496506 0)
(10.1278 0.0532928 0)
(10.1348 0.0569686 0)
(10.1404 0.0606984 0)
(10.1446 0.0645008 0)
(10.1473 0.06839 0)
(10.1484 0.0723769 0)
(10.1479 0.0764704 0)
(10.1458 0.0806776 0)
(10.1418 0.0850031 0)
(10.136 0.0894485 0)
(10.1283 0.0940112 0)
(10.1185 0.0986834 0)
(10.1065 0.10345 0)
(10.0923 0.108287 0)
(10.0756 0.113157 0)
(10.0563 0.11801 0)
(10.0342 0.122778 0)
(10.0091 0.12738 0)
(9.98067 0.131721 0)
(9.94876 0.135699 0)
(9.91305 0.139215 0)
(9.87327 0.142184 0)
(9.82917 0.14455 0)
(9.78053 0.146305 0)
(9.72722 0.147501 0)
(9.66918 0.148259 0)
(9.60649 0.148765 0)
(9.53938 0.149256 0)
(9.4682 0.149985 0)
(9.39338 0.151203 0)
(9.31529 0.153113 0)
(9.23405 0.155831 0)
(9.14935 0.159334 0)
(9.06046 0.163404 0)
(8.96633 0.167621 0)
(8.86599 0.171433 0)
(8.75899 0.174328 0)
(8.64573 0.176038 0)
(8.52742 0.176683 0)
(8.4058 0.176751 0)
(8.2825 0.1769 0)
(8.15864 0.177692 0)
(8.03456 0.179385 0)
(7.90996 0.181907 0)
(7.7842 0.184969 0)
(7.65662 0.188245 0)
(7.52676 0.1915 0)
(7.39434 0.194629 0)
(7.25928 0.197622 0)
(7.12154 0.200506 0)
(6.98109 0.203301 0)
(6.83789 0.206006 0)
(6.69191 0.208602 0)
(6.5431 0.211068 0)
(6.39141 0.213379 0)
(6.23682 0.215513 0)
(6.07933 0.217446 0)
(5.91892 0.219154 0)
(5.75564 0.220613 0)
(5.58949 0.221798 0)
(5.42054 0.222683 0)
(5.24886 0.223242 0)
(5.07454 0.22345 0)
(4.89767 0.223285 0)
(4.71841 0.222723 0)
(4.53689 0.221744 0)
(4.35329 0.22033 0)
(4.1678 0.218466 0)
(3.98064 0.216139 0)
(3.79203 0.213341 0)
(3.60223 0.21007 0)
(3.41149 0.206326 0)
(3.2201 0.202115 0)
(3.02831 0.197452 0)
(2.83644 0.192356 0)
(2.64475 0.186856 0)
(2.45353 0.18099 0)
(2.26305 0.174808 0)
(2.07357 0.16837 0)
(1.88531 0.161753 0)
(1.69847 0.155048 0)
(1.51322 0.148364 0)
(1.32964 0.141825 0)
(1.14779 0.135576 0)
(0.967602 0.129786 0)
(0.789064 0.124632 0)
(0.611614 0.120402 0)
(0.436482 0.117299 0)
(0.256121 0.115324 0)
(0.0946736 0.106953 0)
(10 0.00429595 0)
(10.0003 0.0117183 0)
(10.0001 0.0174855 0)
(9.99847 0.0223521 0)
(9.99508 0.0269814 0)
(9.99029 0.0315199 0)
(9.9843 0.0359491 0)
(9.97714 0.0403107 0)
(9.96879 0.0446749 0)
(9.95928 0.0490811 0)
(9.94867 0.0535408 0)
(9.93702 0.0580613 0)
(9.92436 0.0626535 0)
(9.91074 0.0673294 0)
(9.89618 0.0720991 0)
(9.88074 0.0769717 0)
(9.86445 0.0819559 0)
(9.84735 0.0870597 0)
(9.82947 0.0922905 0)
(9.81087 0.097654 0)
(9.79156 0.103154 0)
(9.7716 0.108792 0)
(9.75101 0.114565 0)
(9.72982 0.120466 0)
(9.70805 0.126483 0)
(9.6857 0.132595 0)
(9.66277 0.138772 0)
(9.63922 0.144979 0)
(9.61498 0.151174 0)
(9.58993 0.157306 0)
(9.56394 0.163321 0)
(9.53679 0.169166 0)
(9.50823 0.174793 0)
(9.478 0.180176 0)
(9.44577 0.185312 0)
(9.41128 0.190231 0)
(9.37426 0.194988 0)
(9.33456 0.199643 0)
(9.29214 0.204258 0)
(9.24715 0.208904 0)
(9.19992 0.213709 0)
(9.15087 0.218929 0)
(9.10028 0.224963 0)
(9.04798 0.232278 0)
(8.99306 0.241187 0)
(8.93383 0.251596 0)
(8.86812 0.262848 0)
(8.79389 0.273844 0)
(8.70993 0.283414 0)
(8.61635 0.290798 0)
(8.51459 0.29594 0)
(8.40687 0.299454 0)
(8.29551 0.302293 0)
(8.18227 0.305319 0)
(8.06807 0.309025 0)
(7.95313 0.313489 0)
(7.83721 0.318517 0)
(7.71996 0.323843 0)
(7.60108 0.329265 0)
(7.48037 0.334689 0)
(7.35773 0.340094 0)
(7.23306 0.345485 0)
(7.10626 0.350865 0)
(6.97722 0.356221 0)
(6.84581 0.361527 0)
(6.71192 0.366756 0)
(6.57542 0.371875 0)
(6.43618 0.376855 0)
(6.29406 0.381661 0)
(6.14895 0.386258 0)
(6.00072 0.39061 0)
(5.84923 0.394679 0)
(5.69437 0.398426 0)
(5.53602 0.401812 0)
(5.37406 0.404797 0)
(5.20838 0.407344 0)
(5.03888 0.409416 0)
(4.86548 0.410978 0)
(4.6881 0.411998 0)
(4.50668 0.41245 0)
(4.32116 0.412309 0)
(4.13152 0.411558 0)
(3.93773 0.410185 0)
(3.73981 0.408186 0)
(3.53778 0.405567 0)
(3.33169 0.402342 0)
(3.12162 0.398538 0)
(2.90769 0.394195 0)
(2.69002 0.389372 0)
(2.46879 0.384143 0)
(2.2442 0.378606 0)
(2.0165 0.372883 0)
(1.78594 0.367117 0)
(1.55282 0.361478 0)
(1.31745 0.356162 0)
(1.08027 0.351368 0)
(0.841257 0.34736 0)
(0.60216 0.344239 0)
(0.356853 0.34253 0)
(0.129444 0.334888 0)
(9.99997 0.00440719 0)
(9.99962 0.01293 0)
(9.99854 0.0207456 0)
(9.99611 0.0279045 0)
(9.99205 0.0347076 0)
(9.98641 0.0413199 0)
(9.9793 0.0477602 0)
(9.97072 0.0540377 0)
(9.96065 0.0601936 0)
(9.94907 0.0662722 0)
(9.93601 0.072302 0)
(9.92148 0.0783025 0)
(9.9055 0.0842913 0)
(9.88806 0.0902854 0)
(9.86918 0.0962997 0)
(9.84887 0.102347 0)
(9.82712 0.108437 0)
(9.80396 0.114579 0)
(9.7794 0.12078 0)
(9.75344 0.127045 0)
(9.7261 0.133375 0)
(9.6974 0.13977 0)
(9.66736 0.146222 0)
(9.63599 0.152724 0)
(9.60333 0.15926 0)
(9.56939 0.165813 0)
(9.53419 0.172358 0)
(9.49775 0.178869 0)
(9.46008 0.185317 0)
(9.42117 0.191671 0)
(9.38101 0.197904 0)
(9.33958 0.203997 0)
(9.29683 0.209943 0)
(9.25271 0.215755 0)
(9.20715 0.221473 0)
(9.16008 0.227154 0)
(9.11146 0.232863 0)
(9.06126 0.238632 0)
(9.00949 0.244434 0)
(8.95626 0.250201 0)
(8.90176 0.255915 0)
(8.84618 0.261782 0)
(8.78964 0.26838 0)
(8.73198 0.276662 0)
(8.67261 0.287694 0)
(8.61037 0.302164 0)
(8.54368 0.319887 0)
(8.47078 0.339608 0)
(8.3903 0.359299 0)
(8.30165 0.376858 0)
(8.20531 0.390885 0)
(8.10266 0.401103 0)
(7.99552 0.408272 0)
(7.88557 0.413685 0)
(7.77403 0.418583 0)
(7.66152 0.423765 0)
(7.54819 0.429523 0)
(7.43395 0.4358 0)
(7.31862 0.442416 0)
(7.20206 0.449216 0)
(7.08417 0.456123 0)
(6.9649 0.46312 0)
(6.84417 0.470205 0)
(6.72194 0.477378 0)
(6.59812 0.484625 0)
(6.47263 0.491925 0)
(6.3454 0.499258 0)
(6.21631 0.506597 0)
(6.08527 0.513919 0)
(5.95215 0.521197 0)
(5.81684 0.528401 0)
(5.67919 0.535501 0)
(5.53905 0.542466 0)
(5.39625 0.549262 0)
(5.25061 0.555854 0)
(5.10193 0.562208 0)
(4.95002 0.568287 0)
(4.79465 0.574057 0)
(4.63557 0.579482 0)
(4.47255 0.58453 0)
(4.30533 0.589169 0)
(4.13365 0.593367 0)
(3.95725 0.597099 0)
(3.77585 0.600338 0)
(3.58921 0.603064 0)
(3.39708 0.605259 0)
(3.19925 0.606912 0)
(2.99554 0.608017 0)
(2.78581 0.608578 0)
(2.56999 0.608611 0)
(2.34807 0.608148 0)
(2.12015 0.607239 0)
(1.88642 0.605959 0)
(1.64719 0.604409 0)
(1.40286 0.602713 0)
(1.15408 0.600998 0)
(0.901106 0.599445 0)
(0.646171 0.59801 0)
(0.383445 0.59754 0)
(0.137316 0.589332 0)
(9.99991 0.00468976 0)
(9.99918 0.0138885 0)
(9.99749 0.0226384 0)
(9.99455 0.0308844 0)
(9.99019 0.0387798 0)
(9.98438 0.046472 0)
(9.97717 0.0540191 0)
(9.96855 0.0614466 0)
(9.95851 0.0687927 0)
(9.94704 0.0761011 0)
(9.93412 0.0834044 0)
(9.91978 0.090724 0)
(9.90401 0.0980767 0)
(9.8868 0.105478 0)
(9.86815 0.112941 0)
(9.84805 0.120476 0)
(9.8265 0.128094 0)
(9.80349 0.1358 0)
(9.779 0.1436 0)
(9.75303 0.151497 0)
(9.72557 0.159489 0)
(9.6966 0.167573 0)
(9.66611 0.175743 0)
(9.63409 0.183989 0)
(9.60052 0.192297 0)
(9.56537 0.200648 0)
(9.52864 0.209021 0)
(9.49027 0.217391 0)
(9.45026 0.225735 0)
(9.40855 0.234027 0)
(9.3651 0.242247 0)
(9.31987 0.250378 0)
(9.2728 0.258414 0)
(9.22383 0.266361 0)
(9.17291 0.274242 0)
(9.12001 0.28209 0)
(9.0651 0.289926 0)
(9.00819 0.29773 0)
(8.94933 0.305429 0)
(8.88861 0.312937 0)
(8.82603 0.320282 0)
(8.7615 0.327793 0)
(8.69467 0.336239 0)
(8.62489 0.346794 0)
(8.55133 0.360731 0)
(8.47313 0.378891 0)
(8.38961 0.401142 0)
(8.30044 0.426125 0)
(8.20572 0.451503 0)
(8.10594 0.474695 0)
(8.00182 0.49377 0)
(7.89425 0.508064 0)
(7.78403 0.518216 0)
(7.6718 0.525675 0)
(7.55797 0.531989 0)
(7.44273 0.53828 0)
(7.32616 0.54507 0)
(7.20825 0.552422 0)
(7.08899 0.560183 0)
(6.96834 0.568188 0)
(6.84628 0.576343 0)
(6.72279 0.584617 0)
(6.59785 0.593008 0)
(6.47145 0.601516 0)
(6.34357 0.610135 0)
(6.21418 0.618851 0)
(6.08327 0.627648 0)
(5.95081 0.636511 0)
(5.81678 0.645425 0)
(5.68112 0.654375 0)
(5.54381 0.663346 0)
(5.40479 0.672324 0)
(5.26399 0.681294 0)
(5.12134 0.690241 0)
(4.97673 0.699152 0)
(4.83006 0.708014 0)
(4.68119 0.716814 0)
(4.52996 0.72554 0)
(4.3762 0.734181 0)
(4.21969 0.742728 0)
(4.06019 0.751168 0)
(3.89745 0.759491 0)
(3.73116 0.767684 0)
(3.56101 0.775731 0)
(3.38667 0.783613 0)
(3.20777 0.791303 0)
(3.02395 0.79877 0)
(2.83486 0.805972 0)
(2.64017 0.812861 0)
(2.43957 0.819379 0)
(2.23285 0.825466 0)
(2.01986 0.831057 0)
(1.80059 0.836094 0)
(1.57516 0.840523 0)
(1.34383 0.844311 0)
(1.10721 0.847412 0)
(0.865478 0.849852 0)
(0.621134 0.851406 0)
(0.36806 0.853 0)
(0.130612 0.843001 0)
(9.99989 0.00511744 0)
(9.99896 0.0152521 0)
(9.99698 0.0251496 0)
(9.99376 0.0347525 0)
(9.98921 0.0441161 0)
(9.98331 0.0533221 0)
(9.97604 0.0624158 0)
(9.96738 0.0714165 0)
(9.95734 0.0803462 0)
(9.94588 0.0892324 0)
(9.93302 0.0980999 0)
(9.91874 0.106967 0)
(9.90305 0.115851 0)
(9.88595 0.124765 0)
(9.86743 0.133724 0)
(9.84749 0.14274 0)
(9.82612 0.151826 0)
(9.80331 0.160989 0)
(9.77907 0.170238 0)
(9.75337 0.179578 0)
(9.7262 0.189012 0)
(9.69756 0.19854 0)
(9.66743 0.208159 0)
(9.63579 0.217864 0)
(9.60262 0.227646 0)
(9.56789 0.237491 0)
(9.53157 0.247385 0)
(9.49364 0.257312 0)
(9.45404 0.267253 0)
(9.41272 0.277192 0)
(9.36963 0.287114 0)
(9.32471 0.297007 0)
(9.27789 0.306866 0)
(9.22909 0.316696 0)
(9.17824 0.326516 0)
(9.12529 0.336346 0)
(9.07017 0.346187 0)
(9.01286 0.35599 0)
(8.95335 0.365665 0)
(8.89164 0.375158 0)
(8.82769 0.384631 0)
(8.76126 0.394664 0)
(8.69184 0.406355 0)
(8.61858 0.421157 0)
(8.54038 0.440399 0)
(8.45618 0.464652 0)
(8.36537 0.49322 0)
(8.26802 0.524078 0)
(8.16497 0.554374 0)
(8.05754 0.581321 0)
(7.94712 0.603107 0)
(7.83477 0.619387 0)
(7.72107 0.631158 0)
(7.60616 0.640131 0)
(7.48991 0.647986 0)
(7.37212 0.655869 0)
(7.25264 0.664274 0)
(7.13142 0.673234 0)
(7.00845 0.682591 0)
(6.88374 0.692185 0)
(6.75729 0.701932 0)
(6.62908 0.711807 0)
(6.4991 0.721809 0)
(6.36733 0.731934 0)
(6.23377 0.742173 0)
(6.0984 0.75251 0)
(5.96122 0.762927 0)
(5.82224 0.77341 0)
(5.68145 0.783945 0)
(5.53886 0.794518 0)
(5.39448 0.80512 0)
(5.24831 0.815742 0)
(5.10036 0.826375 0)
(4.95064 0.837018 0)
(4.79913 0.847669 0)
(4.64584 0.858333 0)
(4.49074 0.869017 0)
(4.33381 0.879731 0)
(4.17499 0.890493 0)
(4.01421 0.90132 0)
(3.85139 0.912236 0)
(3.6864 0.923262 0)
(3.51909 0.934422 0)
(3.34929 0.945735 0)
(3.17676 0.957212 0)
(3.00127 0.968854 0)
(2.82251 0.980647 0)
(2.64019 0.992552 0)
(2.45398 1.00451 0)
(2.26357 1.01642 0)
(2.06865 1.02817 0)
(1.86897 1.03959 0)
(1.66439 1.0505 0)
(1.45485 1.06069 0)
(1.24041 1.06994 0)
(1.0215 1.07801 0)
(0.798026 1.08474 0)
(0.572564 1.0897 0)
(0.338439 1.09369 0)
(0.119404 1.08102 0)
(9.99987 0.00563615 0)
(9.99885 0.0168426 0)
(9.9967 0.0279026 0)
(9.99328 0.0387625 0)
(9.98857 0.04943 0)
(9.98255 0.0599468 0)
(9.97519 0.0703496 0)
(9.96647 0.0806618 0)
(9.95637 0.0909051 0)
(9.9449 0.101105 0)
(9.93204 0.111287 0)
(9.91779 0.121473 0)
(9.90215 0.131683 0)
(9.8851 0.141934 0)
(9.86666 0.152242 0)
(9.84681 0.162622 0)
(9.82554 0.173087 0)
(9.80285 0.183648 0)
(9.77873 0.194313 0)
(9.75316 0.205089 0)
(9.72614 0.215981 0)
(9.69765 0.226988 0)
(9.66768 0.238111 0)
(9.6362 0.249345 0)
(9.6032 0.260684 0)
(9.56866 0.27212 0)
(9.53254 0.28364 0)
(9.49481 0.295233 0)
(9.45543 0.306888 0)
(9.41436 0.318594 0)
(9.37155 0.330341 0)
(9.32694 0.342125 0)
(9.28048 0.353943 0)
(9.2321 0.365806 0)
(9.18173 0.377733 0)
(9.12931 0.389741 0)
(9.07479 0.401822 0)
(9.01811 0.41391 0)
(8.95923 0.425901 0)
(8.89814 0.437766 0)
(8.83476 0.449765 0)
(8.76887 0.462691 0)
(8.70003 0.477947 0)
(8.62744 0.497287 0)
(8.55003 0.522169 0)
(8.46667 0.552966 0)
(8.37652 0.588412 0)
(8.27945 0.625693 0)
(8.17613 0.661243 0)
(8.06789 0.691921 0)
(7.95629 0.716034 0)
(7.84263 0.733708 0)
(7.7277 0.746507 0)
(7.6117 0.75658 0)
(7.49448 0.765807 0)
(7.37576 0.77533 0)
(7.25529 0.785546 0)
(7.13293 0.796388 0)
(7.00862 0.80764 0)
(6.88234 0.81913 0)
(6.75408 0.830784 0)
(6.62381 0.842586 0)
(6.4915 0.854539 0)
(6.3571 0.866638 0)
(6.2206 0.878867 0)
(6.08196 0.891204 0)
(5.94116 0.903628 0)
(5.79818 0.916117 0)
(5.65302 0.928653 0)
(5.50567 0.941218 0)
(5.35613 0.953795 0)
(5.2044 0.96637 0)
(5.05052 0.978934 0)
(4.89449 0.99148 0)
(4.73635 1.00401 0)
(4.57614 1.01652 0)
(4.4139 1.02902 0)
(4.24967 1.04154 0)
(4.08349 1.0541 0)
(3.91542 1.06673 0)
(3.74548 1.07947 0)
(3.57372 1.09237 0)
(3.40015 1.10548 0)
(3.22476 1.11886 0)
(3.04753 1.13254 0)
(2.86842 1.14657 0)
(2.68732 1.16098 0)
(2.50414 1.17574 0)
(2.31872 1.19082 0)
(2.1309 1.20615 0)
(1.94049 1.22156 0)
(1.74731 1.23688 0)
(1.5512 1.25184 0)
(1.3521 1.26613 0)
(1.14992 1.27938 0)
(0.944969 1.29121 0)
(0.736815 1.30127 0)
(0.528022 1.309 0)
(0.311298 1.31496 0)
(0.109503 1.29885 0)
(9.99987 0.00620039 0)
(9.99879 0.0185461 0)
(9.99653 0.0307866 0)
(9.99299 0.0428851 0)
(9.98816 0.0548397 0)
(9.98206 0.0666749 0)
(9.97464 0.0784195 0)
(9.96589 0.090096 0)
(9.95579 0.101724 0)
(9.94433 0.113323 0)
(9.9315 0.124916 0)
(9.9173 0.136522 0)
(9.90172 0.148159 0)
(9.88476 0.159843 0)
(9.86641 0.17159 0)
(9.84665 0.183413 0)
(9.82549 0.195327 0)
(9.80291 0.207341 0)
(9.77891 0.219467 0)
(9.75346 0.23171 0)
(9.72656 0.244077 0)
(9.69819 0.256572 0)
(9.66834 0.269194 0)
(9.63698 0.281943 0)
(9.60409 0.294816 0)
(9.56965 0.307808 0)
(9.53363 0.320912 0)
(9.49599 0.334121 0)
(9.45671 0.34743 0)
(9.41573 0.360832 0)
(9.37302 0.374325 0)
(9.32852 0.387906 0)
(9.28218 0.401578 0)
(9.23395 0.415353 0)
(9.18376 0.42925 0)
(9.13157 0.443288 0)
(9.0773 0.457449 0)
(9.02092 0.471659 0)
(8.96238 0.485803 0)
(8.90164 0.499864 0)
(8.83866 0.514177 0)
(8.77327 0.529704 0)
(8.70512 0.548122 0)
(8.63356 0.571491 0)
(8.55763 0.601479 0)
(8.47628 0.638405 0)
(8.38859 0.680599 0)
(8.29417 0.724557 0)
(8.19334 0.765961 0)
(8.08711 0.801153 0)
(7.97686 0.828338 0)
(7.86395 0.847946 0)
(7.74933 0.862056 0)
(7.63344 0.873302 0)
(7.5163 0.883868 0)
(7.39772 0.894992 0)
(7.27745 0.907026 0)
(7.1553 0.919814 0)
(7.03118 0.933073 0)
(6.90502 0.946604 0)
(6.7768 0.960329 0)
(6.64647 0.974242 0)
(6.51399 0.98835 0)
(6.37929 1.00265 0)
(6.24232 1.01712 0)
(6.10304 1.03174 0)
(5.96141 1.04647 0)
(5.81737 1.0613 0)
(5.67089 1.0762 0)
(5.52194 1.09114 0)
(5.37049 1.1061 0)
(5.21652 1.12105 0)
(5.06003 1.13598 0)
(4.90101 1.15087 0)
(4.73949 1.1657 0)
(4.57547 1.18048 0)
(4.40901 1.19519 0)
(4.24015 1.20985 0)
(4.06896 1.22447 0)
(3.89552 1.23908 0)
(3.71993 1.25372 0)
(3.5423 1.26844 0)
(3.36274 1.28328 0)
(3.18137 1.29831 0)
(2.99833 1.31359 0)
(2.81373 1.32919 0)
(2.62768 1.34515 0)
(2.44027 1.36149 0)
(2.25158 1.37821 0)
(2.06165 1.39525 0)
(1.87049 1.41249 0)
(1.67811 1.42974 0)
(1.48447 1.44673 0)
(1.28958 1.46312 0)
(1.09336 1.47847 0)
(0.896042 1.49232 0)
(0.696984 1.50423 0)
(0.498719 1.51353 0)
(0.293433 1.52062 0)
(0.103113 1.50055 0)
(9.99986 0.00678948 0)
(9.99876 0.0203172 0)
(9.99643 0.033762 0)
(9.99281 0.0471017 0)
(9.98791 0.060333 0)
(9.98175 0.0734701 0)
(9.9743 0.0865329 0)
(9.96553 0.0995396 0)
(9.95543 0.112507 0)
(9.94399 0.125454 0)
(9.9312 0.138399 0)
(9.91705 0.151362 0)
(9.90155 0.164359 0)
(9.88466 0.177409 0)
(9.8664 0.190529 0)
(9.84676 0.203733 0)
(9.82571 0.217037 0)
(9.80326 0.230454 0)
(9.77939 0.243996 0)
(9.75408 0.25767 0)
(9.72733 0.271486 0)
(9.6991 0.285447 0)
(9.6694 0.299559 0)
(9.63819 0.313821 0)
(9.60545 0.328234 0)
(9.57115 0.342795 0)
(9.53527 0.357501 0)
(9.49777 0.372348 0)
(9.45862 0.387335 0)
(9.41777 0.40246 0)
(9.37518 0.417721 0)
(9.33081 0.433121 0)
(9.28461 0.448663 0)
(9.23652 0.464361 0)
(9.18649 0.480238 0)
(9.13446 0.49631 0)
(9.08038 0.512561 0)
(9.0242 0.528906 0)
(8.96587 0.545221 0)
(8.90537 0.561497 0)
(8.84266 0.578123 0)
(8.77761 0.596199 0)
(8.7099 0.617629 0)
(8.63897 0.64474 0)
(8.56399 0.679412 0)
(8.48396 0.721974 0)
(8.39799 0.770488 0)
(8.30559 0.820908 0)
(8.20689 0.868263 0)
(8.10262 0.908354 0)
(7.99399 0.939152 0)
(7.88225 0.961214 0)
(7.76842 0.977 0)
(7.65309 0.989591 0)
(7.53643 1.00152 0)
(7.41834 1.01418 0)
(7.29861 1.02796 0)
(7.17707 1.04265 0)
(7.05359 1.05791 0)
(6.9281 1.07349 0)
(6.80053 1.08932 0)
(6.67086 1.10538 0)
(6.539 1.1217 0)
(6.40492 1.13826 0)
(6.26854 1.15506 0)
(6.12981 1.17206 0)
(5.98866 1.18924 0)
(5.84504 1.20655 0)
(5.69889 1.22399 0)
(5.55016 1.24151 0)
(5.39881 1.25908 0)
(5.24478 1.27668 0)
(5.08804 1.29428 0)
(4.92856 1.31184 0)
(4.76632 1.32934 0)
(4.60133 1.34677 0)
(4.43357 1.3641 0)
(4.26309 1.38133 0)
(4.08992 1.39845 0)
(3.91413 1.41546 0)
(3.7358 1.43239 0)
(3.55506 1.44926 0)
(3.37204 1.46611 0)
(3.1869 1.48298 0)
(2.99983 1.49991 0)
(2.81104 1.51698 0)
(2.62075 1.53423 0)
(2.4292 1.55168 0)
(2.23661 1.56935 0)
(2.04321 1.58721 0)
(1.84919 1.60517 0)
(1.65474 1.62307 0)
(1.45998 1.64066 0)
(1.26505 1.65762 0)
(1.06994 1.67354 0)
(0.874927 1.68793 0)
(0.679226 1.70035 0)
(0.485412 1.71012 0)
(0.285312 1.71755 0)
(0.100227 1.69333 0)
(9.99986 0.00739304 0)
(9.99874 0.0221288 0)
(9.99638 0.0367935 0)
(9.99271 0.0513749 0)
(9.98777 0.0658718 0)
(9.98158 0.0802937 0)
(9.97411 0.0946561 0)
(9.96534 0.108975 0)
(9.95526 0.123267 0)
(9.94385 0.137549 0)
(9.93111 0.151838 0)
(9.91703 0.166154 0)
(9.90161 0.180515 0)
(9.88482 0.194937 0)
(9.86667 0.209439 0)
(9.84715 0.224036 0)
(9.82623 0.238745 0)
(9.80392 0.253578 0)
(9.7802 0.26855 0)
(9.75505 0.283669 0)
(9.72846 0.298946 0)
(9.70041 0.314387 0)
(9.67087 0.329997 0)
(9.63984 0.345781 0)
(9.60727 0.361739 0)
(9.57315 0.377872 0)
(9.53745 0.394181 0)
(9.50013 0.410665 0)
(9.46115 0.427326 0)
(9.42048 0.444165 0)
(9.37808 0.461185 0)
(9.3339 0.478389 0)
(9.28789 0.495786 0)
(9.24001 0.51339 0)
(9.1902 0.531227 0)
(9.1384 0.549316 0)
(9.08457 0.567639 0)
(9.02865 0.5861 0)
(8.97059 0.604566 0)
(8.91039 0.623025 0)
(8.84799 0.641914 0)
(8.78329 0.662458 0)
(8.716 0.686769 0)
(8.64559 0.717435 0)
(8.57128 0.756539 0)
(8.4921 0.804448 0)
(8.40719 0.859 0)
(8.31603 0.915687 0)
(8.21866 0.968945 0)
(8.1157 1.01406 0)
(8.00824 1.04871 0)
(7.89747 1.07352 0)
(7.78441 1.09122 0)
(7.66969 1.1053 0)
(7.55356 1.11863 0)
(7.43598 1.13281 0)
(7.3168 1.1483 0)
(7.19584 1.16484 0)
(7.07296 1.18206 0)
(6.94809 1.19967 0)
(6.82117 1.21758 0)
(6.69215 1.23578 0)
(6.56097 1.25429 0)
(6.42757 1.27312 0)
(6.29189 1.29224 0)
(6.15386 1.31162 0)
(6.01343 1.33124 0)
(5.87054 1.35107 0)
(5.72512 1.37107 0)
(5.57711 1.39121 0)
(5.42645 1.41146 0)
(5.2731 1.43179 0)
(5.117 1.45216 0)
(4.9581 1.47253 0)
(4.79637 1.49287 0)
(4.63178 1.51315 0)
(4.46431 1.53333 0)
(4.29394 1.55339 0)
(4.12071 1.57331 0)
(3.94463 1.59306 0)
(3.76576 1.61263 0)
(3.58419 1.63203 0)
(3.40003 1.65125 0)
(3.21343 1.67032 0)
(3.02457 1.68924 0)
(2.83367 1.70806 0)
(2.64097 1.72678 0)
(2.44677 1.74544 0)
(2.25135 1.76403 0)
(2.05504 1.78252 0)
(1.85814 1.80085 0)
(1.66096 1.81889 0)
(1.46375 1.83643 0)
(1.26676 1.85319 0)
(1.07006 1.86883 0)
(0.87403 1.8829 0)
(0.677819 1.89502 0)
(0.484107 1.90453 0)
(0.284517 1.91178 0)
(0.0998898 1.88345 0)
(9.99986 0.00800466 0)
(9.99873 0.0239627 0)
(9.99635 0.0398558 0)
(9.99265 0.0556788 0)
(9.98769 0.0714337 0)
(9.98149 0.087129 0)
(9.97403 0.102778 0)
(9.96528 0.118395 0)
(9.95522 0.133997 0)
(9.94386 0.149598 0)
(9.93119 0.165216 0)
(9.91719 0.180868 0)
(9.90186 0.196574 0)
(9.88518 0.212351 0)
(9.86716 0.228216 0)
(9.84777 0.244187 0)
(9.827 0.260281 0)
(9.80485 0.276513 0)
(9.78129 0.292897 0)
(9.75632 0.309446 0)
(9.72991 0.326169 0)
(9.70204 0.343075 0)
(9.6727 0.360173 0)
(9.64187 0.377468 0)
(9.60951 0.394965 0)
(9.5756 0.412665 0)
(9.5401 0.430573 0)
(9.503 0.448691 0)
(9.46425 0.467022 0)
(9.42381 0.485572 0)
(9.38164 0.504346 0)
(9.3377 0.523351 0)
(9.29195 0.542595 0)
(9.24433 0.562096 0)
(9.1948 0.581882 0)
(9.14331 0.601976 0)
(9.08979 0.622356 0)
(9.03419 0.642919 0)
(8.97649 0.663516 0)
(8.91666 0.684137 0)
(8.85466 0.705259 0)
(8.7904 0.728228 0)
(8.72361 0.755361 0)
(8.65378 0.7895 0)
(8.58012 0.832936 0)
(8.50172 0.88608 0)
(8.41767 0.946566 0)
(8.32745 1.00944 0)
(8.23104 1.06858 0)
(8.12903 1.11876 0)
(8.02244 1.15738 0)
(7.91244 1.18505 0)
(7.80004 1.20479 0)
(7.68589 1.22045 0)
(7.57028 1.23523 0)
(7.45321 1.25094 0)
(7.33452 1.26812 0)
(7.21405 1.2865 0)
(7.09168 1.30566 0)
(6.96731 1.32529 0)
(6.8409 1.34527 0)
(6.71239 1.3656 0)
(6.58173 1.38629 0)
(6.44885 1.40736 0)
(6.3137 1.42878 0)
(6.17622 1.45053 0)
(6.03634 1.47258 0)
(5.89401 1.49489 0)
(5.74917 1.51744 0)
(5.60176 1.54019 0)
(5.45172 1.56311 0)
(5.299 1.58615 0)
(5.14355 1.60929 0)
(4.98531 1.63248 0)
(4.82425 1.65567 0)
(4.66033 1.67884 0)
(4.49351 1.70193 0)
(4.32379 1.72492 0)
(4.15114 1.74774 0)
(3.97557 1.77038 0)
(3.79713 1.79278 0)
(3.61585 1.81493 0)
(3.43181 1.8368 0)
(3.24513 1.85835 0)
(3.05595 1.87958 0)
(2.86446 1.90047 0)
(2.67087 1.92101 0)
(2.47546 1.94118 0)
(2.27852 1.96096 0)
(2.08038 1.98031 0)
(1.88139 1.99916 0)
(1.68187 2.01738 0)
(1.48217 2.03482 0)
(1.28258 2.05125 0)
(1.08327 2.06639 0)
(0.884671 2.07986 0)
(0.685936 2.09137 0)
(0.489892 2.10035 0)
(0.288063 2.10721 0)
(0.101011 2.07492 0)
(9.99986 0.0086201 0)
(9.99872 0.0258071 0)
(9.99634 0.0429319 0)
(9.99263 0.0599948 0)
(9.98767 0.0770007 0)
(9.98148 0.0939589 0)
(9.97403 0.110882 0)
(9.96531 0.127783 0)
(9.95531 0.144678 0)
(9.94401 0.161583 0)
(9.93141 0.178513 0)
(9.91751 0.195487 0)
(9.90228 0.212523 0)
(9.88573 0.22964 0)
(9.86784 0.246857 0)
(9.84859 0.264191 0)
(9.82799 0.281661 0)
(9.80601 0.299283 0)
(9.78263 0.317072 0)
(9.75785 0.335043 0)
(9.73165 0.353207 0)
(9.70399 0.371576 0)
(9.67487 0.390158 0)
(9.64426 0.408961 0)
(9.61214 0.427992 0)
(9.57847 0.447257 0)
(9.54322 0.466759 0)
(9.50637 0.486505 0)
(9.46788 0.5065 0)
(9.42771 0.526753 0)
(9.38583 0.547272 0)
(9.34218 0.568064 0)
(9.29673 0.589141 0)
(9.24943 0.610523 0)
(9.20024 0.632241 0)
(9.14909 0.65432 0)
(9.09595 0.676736 0)
(9.04075 0.699379 0)
(8.98347 0.722086 0)
(8.92407 0.744843 0)
(8.86255 0.768165 0)
(8.7988 0.79351 0)
(8.73258 0.823399 0)
(8.66338 0.860927 0)
(8.59046 0.908605 0)
(8.51288 0.9669 0)
(8.42972 1.03326 0)
(8.34043 1.10231 0)
(8.24494 1.16734 0)
(8.14381 1.22263 0)
(8.03802 1.26529 0)
(7.92874 1.29591 0)
(7.81698 1.31777 0)
(7.70341 1.33506 0)
(7.58834 1.35132 0)
(7.47178 1.36858 0)
(7.35359 1.38746 0)
(7.23362 1.40769 0)
(7.11172 1.4288 0)
(6.98783 1.45045 0)
(6.86188 1.47251 0)
(6.73382 1.49496 0)
(6.60359 1.51784 0)
(6.47114 1.54116 0)
(6.3364 1.56488 0)
(6.19932 1.589 0)
(6.05984 1.61347 0)
(5.91789 1.63826 0)
(5.77343 1.66334 0)
(5.6264 1.68869 0)
(5.47675 1.71425 0)
(5.32442 1.73999 0)
(5.16937 1.76587 0)
(5.01155 1.79185 0)
(4.85092 1.81788 0)
(4.68745 1.84392 0)
(4.52111 1.8699 0)
(4.35187 1.8958 0)
(4.17973 1.92154 0)
(4.00468 1.94709 0)
(3.82674 1.97237 0)
(3.64593 1.99735 0)
(3.46232 2.02197 0)
(3.27598 2.04617 0)
(3.08702 2.0699 0)
(2.89559 2.09311 0)
(2.70186 2.11574 0)
(2.50605 2.13774 0)
(2.30843 2.15905 0)
(2.10927 2.1796 0)
(1.9089 2.1993 0)
(1.70766 2.21804 0)
(1.50586 2.23567 0)
(1.30384 2.25201 0)
(1.10178 2.26683 0)
(0.900188 2.27984 0)
(0.698209 2.29082 0)
(0.498831 2.2993 0)
(0.293548 2.30579 0)
(0.10275 2.26969 0)
(9.99986 0.00923645 0)
(9.99872 0.0276536 0)
(9.99634 0.0460093 0)
(9.99264 0.064308 0)
(9.98769 0.0825574 0)
(9.98152 0.100768 0)
(9.97411 0.118952 0)
(9.96543 0.137124 0)
(9.95549 0.155299 0)
(9.94427 0.173491 0)
(9.93176 0.191719 0)
(9.91796 0.21 0)
(9.90285 0.228352 0)
(9.88643 0.246796 0)
(9.86869 0.26535 0)
(9.84961 0.284034 0)
(9.82918 0.302867 0)
(9.80739 0.321867 0)
(9.78422 0.341051 0)
(9.75965 0.360433 0)
(9.73367 0.380028 0)
(9.70625 0.399848 0)
(9.67737 0.419905 0)
(9.64702 0.440208 0)
(9.61515 0.460765 0)
(9.58175 0.481583 0)
(9.54679 0.502671 0)
(9.51023 0.524036 0)
(9.47204 0.545686 0)
(9.43218 0.567632 0)
(9.39062 0.589883 0)
(9.34731 0.61245 0)
(9.30221 0.635345 0)
(9.25528 0.658592 0)
(9.20647 0.682225 0)
(9.15574 0.706269 0)
(9.10302 0.730702 0)
(9.04827 0.755403 0)
(8.99146 0.780196 0)
(8.93257 0.80506 0)
(8.87157 0.830546 0)
(8.80839 0.858218 0)
(8.74279 0.890797 0)
(8.6743 0.931633 0)
(8.60217 0.983462 0)
(8.52546 1.04683 0)
(8.44327 1.11901 0)
(8.35497 1.19421 0)
(8.26047 1.26518 0)
(8.16027 1.32565 0)
(8.05534 1.37243 0)
(7.94681 1.40609 0)
(7.83573 1.43012 0)
(7.72278 1.44909 0)
(7.60829 1.46686 0)
(7.49229 1.4857 0)
(7.37466 1.50628 0)
(7.25522 1.52837 0)
(7.13386 1.55145 0)
(7.01047 1.57514 0)
(6.88501 1.59929 0)
(6.75742 1.62389 0)
(6.62764 1.64898 0)
(6.49561 1.67455 0)
(6.36128 1.70061 0)
(6.22458 1.7271 0)
(6.08545 1.75401 0)
(5.94383 1.7813 0)
(5.79967 1.80894 0)
(5.65292 1.83689 0)
(5.50352 1.8651 0)
(5.35142 1.89355 0)
(5.19658 1.92218 0)
(5.03897 1.95094 0)
(4.87853 1.9798 0)
(4.71524 2.00868 0)
(4.54909 2.03755 0)
(4.38004 2.06633 0)
(4.20809 2.09497 0)
(4.03324 2.12341 0)
(3.85551 2.15157 0)
(3.67492 2.17939 0)
(3.49152 2.20678 0)
(3.30537 2.23368 0)
(3.11655 2.26 0)
(2.92517 2.28566 0)
(2.73138 2.31056 0)
(2.53536 2.33462 0)
(2.3373 2.35774 0)
(2.13745 2.37982 0)
(1.93607 2.40074 0)
(1.73347 2.42039 0)
(1.52993 2.43861 0)
(1.32577 2.45525 0)
(1.12115 2.47012 0)
(0.91665 2.483 0)
(0.711384 2.49373 0)
(0.508499 2.50192 0)
(0.299483 2.5082 0)
(0.104604 2.46842 0)
(9.99986 0.00985157 0)
(9.99873 0.029496 0)
(9.99635 0.0490785 0)
(9.99267 0.0686068 0)
(9.98775 0.0880911 0)
(9.9816 0.107543 0)
(9.97424 0.126977 0)
(9.96562 0.146406 0)
(9.95575 0.165845 0)
(9.94462 0.185311 0)
(9.93221 0.204821 0)
(9.91853 0.224393 0)
(9.90356 0.244047 0)
(9.88729 0.263802 0)
(9.86971 0.28368 0)
(9.85081 0.3037 0)
(9.83057 0.323882 0)
(9.80898 0.344247 0)
(9.78603 0.364812 0)
(9.76169 0.385594 0)
(9.73595 0.406609 0)
(9.70879 0.42787 0)
(9.68018 0.44939 0)
(9.65011 0.471182 0)
(9.61853 0.493255 0)
(9.58544 0.515618 0)
(9.55079 0.538281 0)
(9.51455 0.561254 0)
(9.4767 0.584547 0)
(9.43719 0.608172 0)
(9.396 0.632142 0)
(9.35307 0.656468 0)
(9.30837 0.681166 0)
(9.26186 0.70626 0)
(9.21348 0.731786 0)
(9.1632 0.757776 0)
(9.11096 0.784202 0)
(9.05672 0.810937 0)
(9.00044 0.837789 0)
(8.9421 0.864732 0)
(8.88169 0.892347 0)
(8.81913 0.922302 0)
(8.75421 0.957507 0)
(8.68646 1.00157 0)
(8.61516 1.05746 0)
(8.53939 1.1258 0)
(8.45821 1.20375 0)
(8.37098 1.28508 0)
(8.27754 1.36202 0)
(8.17835 1.42774 0)
(8.07433 1.47873 0)
(7.96662 1.51552 0)
(7.85627 1.5418 0)
(7.744 1.56249 0)
(7.63015 1.5818 0)
(7.51478 1.60222 0)
(7.39777 1.62453 0)
(7.27894 1.64849 0)
(7.15817 1.67355 0)
(7.03537 1.6993 0)
(6.91047 1.72556 0)
(6.78341 1.75234 0)
(6.65415 1.77965 0)
(6.52261 1.80752 0)
(6.38873 1.83592 0)
(6.25246 1.86483 0)
(6.11372 1.89422 0)
(5.97246 1.92404 0)
(5.82862 1.95426 0)
(5.68215 1.98485 0)
(5.53299 2.01575 0)
(5.38108 2.04693 0)
(5.2264 2.07834 0)
(5.06889 2.10992 0)
(4.90852 2.14162 0)
(4.74527 2.17338 0)
(4.57911 2.20514 0)
(4.41002 2.23682 0)
(4.23801 2.26836 0)
(4.06307 2.29969 0)
(3.88523 2.33073 0)
(3.70452 2.36138 0)
(3.52097 2.39157 0)
(3.33464 2.42119 0)
(3.14562 2.45014 0)
(2.95399 2.47831 0)
(2.75987 2.50559 0)
(2.56341 2.53186 0)
(2.36477 2.55699 0)
(2.16415 2.58084 0)
(1.96177 2.60329 0)
(1.75787 2.62418 0)
(1.55271 2.64338 0)
(1.34657 2.66071 0)
(1.13959 2.67604 0)
(0.932376 2.68916 0)
(0.724009 2.69998 0)
(0.517782 2.70816 0)
(0.305179 2.71442 0)
(0.106352 2.67105 0)
(9.99986 0.0104638 0)
(9.99874 0.0313295 0)
(9.99638 0.0521321 0)
(9.99272 0.0728817 0)
(9.98782 0.093591 0)