/*--------------------------------*- C++ -*----------------------------------*\
| =========                 |                                                 |
| \\      /  F ield         | OpenFOAM: The Open Source CFD Toolbox           |
|  \\    /   O peration     | Version:  4.1                                   |
|   \\  /    A nd           | Web:      www.OpenFOAM.org                      |
|    \\/     M anipulation  |                                                 |
\*---------------------------------------------------------------------------*/
FoamFile
{
    version     2.0;
    format      ascii;
    class       volScalarField;
    location    "0.2";
    object      epsilon;
}
// * * * * * * * * * * * * * * * * * * * * * * * * * * * * * * * * * * * * * //

dimensions      [0 2 -3 0 0 0 0];

internalField   nonuniform List<scalar> 
43750
(
9.54023
9.87137
10.1956
10.5118
10.8194
11.1175
11.4055
11.6827
11.9483
12.2016
12.4419
12.6686
12.8809
13.0783
13.2601
13.4258
13.5748
13.7067
13.8209
13.917
13.9947
14.0535
14.0931
14.1132
14.1136
14.094
14.0543
13.9943
13.914
13.8133
13.6922
13.5509
13.3893
13.2077
13.0063
12.7856
12.5458
12.2875
12.0116
11.7187
11.4101
11.087
10.751
10.4041
10.0486
9.6872
9.32313
8.95998
8.6018
8.25297
7.91815
7.60206
7.30929
7.04401
6.80967
6.60873
6.44243
6.31062
6.21181
6.14334
6.10171
6.08292
6.08267
6.09635
6.11863
6.14306
6.1618
6.16582
6.1456
6.09218
5.99848
5.8603
5.67706
5.4518
5.19105
4.90625
4.62846
4.35867
4.08931
3.81561
3.53512
3.24735
2.9537
2.65728
2.36257
2.07486
1.8001
1.54524
1.32048
1.14335
1.03892
0.943934
0.838018
0.728474
0.624364
0.532026
0.454311
0.390789
0.336091
0.270303
12.9879
11.4426
10.1594
9.08644
8.18384
7.42055
6.77214
6.21926
5.74649
5.34141
4.99392
4.69578
4.4402
4.22156
4.0352
3.8772
3.74428
3.63368
3.54306
3.47045
3.41417
3.37283
3.34524
3.33044
3.32766
3.33628
3.35588
3.38618
3.42708
3.47864
3.54109
3.61486
3.70056
3.79903
3.91135
4.03886
4.18321
4.34641
4.53085
4.73938
4.97537
5.24276
5.54611
5.89068
6.28241
6.72792
7.23443
7.80958
8.46115
9.19664
10.0227
10.9445
11.9647
13.0829
14.2946
15.5907
16.9572
18.3751
19.8216
21.2706
22.6947
24.0659
25.3574
26.543
27.5973
28.4949
29.2116
29.7259
30.0203
30.084
29.9126
29.5089
28.8826
28.0493
27.0298
25.8496
24.5398
23.1351
21.6696
20.1704
18.6529
17.1225
15.5818
14.0379
12.504
10.9968
9.53395
8.12368
6.79445
5.57308
4.41804
3.37744
2.50652
1.81395
1.28999
0.912595
0.652941
0.480339
0.372035
0.344112
13.0026
11.458
10.1624
9.06629
8.13176
7.32942
6.63617
6.03372
5.50743
5.04546
4.63823
4.27784
3.95781
3.67274
3.41812
3.19019
2.98575
2.80211
2.63696
2.48835
2.35461
2.23428
2.12614
2.02912
1.94231
1.86492
1.79627
1.7358
1.68302
1.63754
1.59905
1.56729
1.5421
1.52338
1.51112
1.50536
1.50625
1.51401
1.52899
1.55161
1.58245
1.62221
1.67175
1.73211
1.8045
1.89037
1.99135
2.10933
2.2464
2.40489
2.58731
2.79633
3.03478
3.30558
3.61172
3.95623
4.34214
4.7724
5.24969
5.7762
6.35323
6.98079
7.65724
8.37907
9.14088
9.93538
10.7535
11.5841
12.4143
13.2288
14.0091
14.7336
15.3769
15.9114
16.3097
16.5485
16.6126
16.4982
16.2135
15.7763
15.2081
14.5282
13.7499
12.8806
11.9258
10.8929
9.79414
8.64838
7.48238
6.32943
5.22482
4.19768
3.2686
2.4655
1.80502
1.29363
0.923154
0.671316
0.508159
0.455608
13.0027
11.4581
10.1622
9.0657
8.13049
7.32713
6.63245
6.02812
5.49942
5.0345
4.62371
4.25913
3.93423
3.64358
3.38266
3.14763
2.9353
2.74292
2.56817
2.40905
2.26386
2.13111
2.00954
1.89803
1.79564
1.70153
1.61498
1.53536
1.46213
1.39481
1.333
1.27635
1.22457
1.17742
1.13471
1.09626
1.06198
1.0318
1.00567
0.983605
0.965654
0.951902
0.942476
0.937546
0.937326
0.942072
0.952089
0.967729
0.989396
1.01755
1.0527
1.09545
1.14646
1.20653
1.27655
1.35762
1.45102
1.55824
1.68105
1.82138
1.9813
2.16287
2.36799
2.5983
2.85503
3.13903
3.45074
3.79012
4.15654
4.54842
4.9627
5.39397
5.83378
6.2702
6.68823
7.07089
7.40098
7.66304
7.8454
7.94174
7.95151
7.87842
7.7275
7.50223
7.20344
6.83065
6.38486
5.8714
5.30165
4.69263
4.06524
3.44253
2.84769
2.30289
1.82643
1.42708
1.10828
0.868727
0.693462
0.599317
13.0027
11.4581
10.1621
9.06548
8.13016
7.32669
6.63192
6.02749
5.49869
5.03367
4.62275
4.25801
3.93292
3.64202
3.38078
3.14536
2.93254
2.73957
2.5641
2.40411
2.25788
2.12391
2.00089
1.88771
1.78337
1.687
1.59785
1.51526
1.43863
1.36745
1.30127
1.23967
1.18232
1.12888
1.07911
1.03275
0.9896
0.949498
0.912297
0.877883
0.846169
0.817096
0.790628
0.76676
0.74551
0.726919
0.711057
0.698013
0.687902
0.680858
0.677036
0.676612
0.679786
0.686787
0.697881
0.713383
0.733675
0.75922
0.790583
0.828429
0.873526
0.926718
0.988892
1.06093
1.14367
1.23789
1.3443
1.4635
1.59599
1.74209
1.90169
2.07403
2.25731
2.44839
2.64275
2.83469
3.01775
3.18529
3.33109
3.44992
3.53809
3.59369
3.6163
3.60604
3.56253
3.48442
3.36992
3.2182
3.03064
2.81147
2.56769
2.30834
2.04387
1.78531
1.54341
1.32746
1.14453
0.998514
0.872817
0.747907
13.0027
11.458
10.1621
9.06539
8.13002
7.32651
6.63171
6.02725
5.49845
5.03341
4.62249
4.25775
3.93266
3.64176
3.38052
3.1451
2.93227
2.73928
2.56378
2.40375
2.25746
2.12341
2.00028
1.88696
1.78244
1.68586
1.59644
1.51351
1.43648
1.36481
1.29803
1.23573
1.17754
1.12311
1.07215
1.0244
0.979625
0.937609
0.898167
0.861135
0.826369
0.793745
0.763156
0.734514
0.707747
0.682803
0.659644
0.638249
0.618616
0.600757
0.584702
0.570495
0.558201
0.547897
0.539685
0.533687
0.530052
0.528963
0.530643
0.53536
0.54343
0.555216
0.571118
0.591564
0.616989
0.647821
0.684467
0.7273
0.776645
0.832746
0.895703
0.965368
1.04121
1.12222
1.20683
1.29304
1.37858
1.46112
1.53841
1.60835
1.66907
1.71899
1.75703
1.78258
1.79529
1.79477
1.78042
1.75158
1.70808
1.6506
1.58091
1.50172
1.41656
1.32953
1.24507
1.16753
1.10071
1.04674
0.984381
0.860681
13.0027
11.4581
10.1621
9.06535
8.12996
7.32641
6.63158
6.0271
5.49827
5.03322
4.62229
4.25755
3.93245
3.64155
3.38031
3.1449
2.93207
2.73909
2.56359
2.40357
2.25729
2.12324
2.00012
1.8868
1.78227
1.68568
1.59624
1.51329
1.43622
1.3645
1.29766
1.23527
1.17696
1.12239
1.07125
1.02328
0.978232
0.935879
0.896028
0.858499
0.823133
0.789785
0.758327
0.728645
0.700638
0.674216
0.649303
0.625834
0.603754
0.583021
0.563603
0.545476
0.528629
0.513062
0.498786
0.485825
0.474214
0.464011
0.455288
0.448144
0.442706
0.439128
0.437599
0.438335
0.441578
0.447589
0.456644
0.469018
0.484981
0.504775
0.528586
0.556497
0.588425
0.624072
0.662906
0.704204
0.74715
0.790914
0.834667
0.877508
0.918366
0.956005
0.989183
1.01693
1.03873
1.05454
1.06453
1.06894
1.06809
1.06256
1.05332
1.04184
1.03004
1.02018
1.01472
1.01583
1.02486
1.04067
1.03503
0.935793
13.0027
11.4581
10.1621
9.06534
8.12993
7.32637
6.63152
6.02702
5.49819
5.03313
4.6222
4.25746
3.93236
3.64148
3.38024
3.14484
2.93203
2.73906
2.56357
2.40356
2.25729
2.12326
2.00015
1.88684
1.78232
1.68574
1.59631
1.51336
1.43629
1.36457
1.29773
1.23533
1.17701
1.12242
1.07125
1.02324
0.978141
0.935724
0.89579
0.858157
0.82266
0.789151
0.757494
0.727567
0.699259
0.672473
0.647117
0.623114
0.600392
0.57889
0.558552
0.539332
0.521191
0.504096
0.488023
0.472952
0.458872
0.44578
0.433683
0.422597
0.412555
0.403602
0.395801
0.389239
0.384021
0.380275
0.378149
0.377815
0.379459
0.383281
0.389478
0.398229
0.409667
0.423849
0.440751
0.460282
0.482322
0.506738
0.533335
0.561737
0.591236
0.620758
0.649007
0.67479
0.697346
0.716486
0.732475
0.745807
0.75707
0.766994
0.776604
0.787355
0.801208
0.8206
0.848251
0.886641
0.936956
0.996691
1.03326
0.977184
13.0027
11.4581
10.1621
9.06535
8.12992
7.32635
6.6315
6.027
5.49815
5.0331
4.62216
4.25742
3.93233
3.64145
3.38023
3.14483
2.93203
2.73907
2.5636
2.4036
2.25734
2.12331
2.00022
1.88692
1.78241
1.68584
1.59642
1.51348
1.43643
1.36472
1.29788
1.23549
1.17717
1.12258
1.07142
1.02341
0.978308
0.935884
0.895938
0.858288
0.822766
0.789222
0.757519
0.727533
0.699149
0.672265
0.646787
0.622631
0.599719
0.577984
0.557362
0.537797
0.519241
0.501649
0.484983
0.46921
0.454301
0.440234
0.426992
0.414562
0.402941
0.392132
0.382148
0.37301
0.364755
0.357432
0.351106
0.345858
0.341791
0.339026
0.337707
0.337995
0.340064
0.344092
0.350252
0.358704
0.369598
0.383053
0.399123
0.417695
0.438377
0.460433
0.482862
0.504631
0.524971
0.543551
0.560455
0.576027
0.59075
0.605258
0.620477
0.637809
0.659292
0.68768
0.726335
0.778693
0.846883
0.928783
0.991392
0.9921
13.0027
11.4581
10.1621
9.06536
8.12994
7.32636
6.6315
6.027
5.49816
5.0331
4.62217
4.25744
3.93236
3.64149
3.38027
3.14489
2.93209
2.73914
2.56368
2.4037
2.25745
2.12344
2.00035
1.88706
1.78257
1.68601
1.5966
1.51368
1.43663
1.36493
1.2981
1.23572
1.17741
1.12283
1.07168
1.02367
0.978573
0.936153
0.89621
0.858561
0.823039
0.789492
0.757783
0.727786
0.699387
0.67248
0.646971
0.622773
0.599806
0.577998
0.557283
0.537602
0.518899
0.501127
0.48424
0.4682
0.452971
0.438523
0.424829
0.411869
0.399625
0.388088
0.377252
0.367119
0.357701
0.349015
0.341093
0.333976
0.327724
0.322412
0.318141
0.315041
0.313274
0.313036
0.314545
0.31801
0.323593
0.331376
0.341341
0.353369
0.36723
0.382554
0.398827
0.415465
0.431953
0.447973
0.463457
0.478532
0.49347
0.508705
0.524951
0.543397
0.56593
0.595307
0.635172
0.68962
0.761714
0.85041
0.925291
0.989611
13.0027
11.4581
10.1621
9.06539
8.12996
7.32639
6.63153
6.02703
5.49819
5.03314
4.62222
4.25749
3.93242
3.64156
3.38035
3.14498
2.9322
2.73926
2.56381
2.40384
2.2576
2.1236
2.00053
1.88726
1.78278
1.68622
1.59683
1.51391
1.43688
1.36518
1.29837
1.23599
1.17769
1.12312
1.07197
1.02398
0.978885
0.936472
0.896535
0.858891
0.823374
0.789832
0.758127
0.728132
0.699734
0.672826
0.647314
0.623108
0.600129
0.578303
0.557562
0.537844
0.519093
0.501258
0.484289
0.468146
0.452788
0.438182
0.424296
0.411104
0.398585
0.38672
0.3755
0.364919
0.354978
0.345687
0.337067
0.329148
0.321977
0.315618
0.31016
0.305723
0.302467
0.300597
0.300339
0.301903
0.305404
0.310801
0.317885
0.326354
0.335936
0.346459
0.357818
0.36989
0.382494
0.395438
0.408588
0.421917
0.435529
0.449688
0.464915
0.482167
0.503072
0.530169
0.567007
0.617854
0.686249
0.772176
0.849439
0.978081
13.0027
11.4581
10.1622
9.06542
8.13
7.32643
6.63158
6.02708
5.49825
5.03321
4.62229
4.25758
3.93252
3.64166
3.38047
3.14511
2.93234
2.73942
2.56398
2.40402
2.2578
2.12381
2.00075
1.88749
1.78302
1.68648
1.5971
1.51419
1.43716
1.36548
1.29867
1.23631
1.17802
1.12345
1.07231
1.02433
0.97924
0.936832
0.896902
0.859264
0.823753
0.790216
0.758515
0.728526
0.700132
0.673228
0.647718
0.623515
0.600536
0.578708
0.557963
0.538238
0.519474
0.50162
0.484626
0.468447
0.453043
0.438376
0.424413
0.411125
0.398485
0.386473
0.375074
0.364277
0.35408
0.344488
0.335518
0.327198
0.31957
0.3127
0.306678
0.301627
0.297717
0.295159
0.294195
0.295042
0.297804
0.302373
0.308401
0.315401
0.322953
0.330892
0.339309
0.34838
0.358194
0.368692
0.379731
0.391193
0.403058
0.415462
0.428777
0.443772
0.461832
0.485215
0.51719
0.561851
0.622766
0.700636
0.774076
0.963949
13.0027
11.4581
10.1622
9.06546
8.13004
7.32648
6.63164
6.02715
5.49833
5.0333
4.62239
4.25769
3.93264
3.6418
3.38062
3.14527
2.93252
2.7396
2.56418
2.40424
2.25803
2.12405
2.00101
1.88776
1.7833
1.68677
1.5974
1.51451
1.43749
1.36582
1.29902
1.23667
1.17838
1.12382
1.07269
1.02471
0.979632
0.937232
0.897307
0.859675
0.824169
0.790637
0.758942
0.728957
0.700567
0.673667
0.648162
0.623962
0.600986
0.579161
0.558417
0.538692
0.519927
0.50207
0.48507
0.468882
0.453465
0.43878
0.424792
0.411469
0.398785
0.386715
0.375242
0.36435
0.354035
0.344299
0.335152
0.326621
0.318747
0.311593
0.305252
0.299849
0.295555
0.292589
0.291201
0.291625
0.293986
0.298193
0.303871
0.310447
0.317379
0.324407
0.331627
0.339325
0.347731
0.356884
0.36665
0.376844
0.38734
0.398146
0.409494
0.42198
0.436782
0.455899
0.482286
0.519721
0.571534
0.638845
0.705088
0.951546
13.0028
11.4582
10.1622
9.0655
8.13009
7.32654
6.63171
6.02723
5.49842
5.0334
4.62251
4.25782
3.93278
3.64196
3.38079
3.14546
2.93272
2.73982
2.56442
2.40448
2.25829
2.12433
2.0013
1.88806
1.78362
1.6871
1.59774
1.51486
1.43785
1.36619
1.2994
1.23706
1.17878
1.12423
1.07311
1.02513
0.980062
0.937668
0.897749
0.860122
0.824621
0.791095
0.759404
0.729423
0.701038
0.674142
0.64864
0.624443
0.601471
0.579648
0.558907
0.539184
0.520421
0.502564
0.485565
0.469377
0.453958
0.439269
0.425277
0.411947
0.399252
0.387167
0.375671
0.364748
0.354391
0.344596
0.335373
0.326742
0.318743
0.311434
0.304903
0.299273
0.294709
0.291425
0.289669
0.289686
0.291634
0.295478
0.300906
0.30737
0.314288
0.321306
0.328429
0.335915
0.344031
0.352861
0.362281
0.372055
0.381947
0.391818
0.401721
0.412055
0.423781
0.43866
0.459359
0.489338
0.531613
0.587553
0.645157
0.94345
13.0028
11.4582
10.1623
9.06554
8.13015
7.32661
6.63179
6.02732
5.49853
5.03352
4.62264
4.25797
3.93295
3.64214
3.38099
3.14567
2.93295
2.74007
2.56468
2.40476
2.25858
2.12463
2.00162
1.88839
1.78396
1.68746
1.59811
1.51524
1.43825
1.3666
1.29982
1.23748
1.17921
1.12468
1.07356
1.02559
0.980527
0.938138
0.898226
0.860605
0.825109
0.791587
0.759901
0.729925
0.701543
0.674651
0.649153
0.62496
0.60199
0.580171
0.559432
0.539711
0.52095
0.503095
0.486097
0.46991
0.454493
0.439806
0.425815
0.412487
0.399794
0.38771
0.376214
0.365289
0.354925
0.345118
0.335873
0.327209
0.319158
0.311776
0.305141
0.299369
0.294614
0.291074
0.288986
0.288594
0.290079
0.293468
0.298544
0.304855
0.311859
0.319158
0.326659
0.33453
0.343007
0.35219
0.361966
0.372059
0.382135
0.391888
0.401156
0.41008
0.419349
0.430455
0.4458
0.468577
0.501537
0.546262
0.59499
0.940987
13.0028
11.4582
10.1623
9.06559
8.13021
7.32668
6.63187
6.02742
5.49864
5.03365
4.62279
4.25813
3.93313
3.64234
3.38121
3.14591
2.9332
2.74033
2.56496
2.40506
2.2589
2.12497
2.00196
1.88875
1.78434
1.68785
1.59851
1.51565
1.43867
1.36703
1.30026
1.23794
1.17968
1.12515
1.07404
1.02608
0.981025
0.938643
0.898737
0.861121
0.825631
0.792114
0.760432
0.73046
0.702083
0.675195
0.6497
0.62551
0.602543
0.580726
0.55999
0.540272
0.521513
0.50366
0.486664
0.470479
0.455064
0.44038
0.426392
0.413069
0.400381
0.388303
0.376814
0.365897
0.355541
0.345741
0.336501
0.327835
0.319774
0.312367
0.305685
0.299833
0.294951
0.291222
0.288862
0.288103
0.289136
0.292031
0.296661
0.302687
0.309658
0.317191
0.325125
0.333538
0.34261
0.352441
0.362936
0.373809
0.384649
0.394998
0.404457
0.412861
0.420548
0.428667
0.439323
0.455485
0.479742
0.513942
0.55425
0.94466
13.0028
11.4582
10.1623
9.06564
8.13027
7.32676
6.63197
6.02753
5.49877
5.0338
4.62295
4.25831
3.93333
3.64255
3.38144
3.14616
2.93347
2.74062
2.56527
2.40538
2.25924
2.12532
2.00234
1.88914
1.78474
1.68826
1.59894
1.5161
1.43913
1.3675
1.30074
1.23843
1.18018
1.12566
1.07456
1.02661
0.981555
0.939181
0.89928
0.861671
0.826186
0.792674
0.760997
0.731029
0.702656
0.675771
0.65028
0.626093
0.60313
0.581316
0.560582
0.540866
0.52211
0.504259
0.487266
0.471084
0.455671
0.440991
0.427007
0.413688
0.401005
0.388935
0.377455
0.366548
0.356204
0.346416
0.337189
0.328535
0.320482
0.313073
0.306376
0.300484
0.295527
0.291668
0.289108
0.288059
0.288706
0.291143
0.295305
0.300953
0.307738
0.315331
0.323549
0.332404
0.342028
0.352514
0.363797
0.375608
0.387504
0.398912
0.409219
0.417937
0.42499
0.431093
0.437971
0.448363
0.464782
0.489436
0.522143
0.954482
13.0028
11.4583
10.1624
9.0657
8.13034
7.32684
6.63207
6.02765
5.4989
5.03395
4.62313
4.25851
3.93354
3.64279
3.38169
3.14643
2.93376
2.74093
2.5656
2.40573
2.2596
2.1257
2.00273
1.88955
1.78517
1.68871
1.5994
1.51657
1.43961
1.368
1.30125
1.23894
1.18071
1.1262
1.0751
1.02716
0.982118
0.93975
0.899856
0.862253
0.826773
0.793266
0.761594
0.731631
0.703262
0.676381
0.650893
0.62671
0.60375
0.581939
0.561208
0.541495
0.522741
0.504893
0.487902
0.471723
0.456314
0.441637
0.427657
0.414343
0.401666
0.389603
0.378131
0.367235
0.356902
0.347128
0.337914
0.329275
0.321234
0.313833
0.307134
0.301225
0.296225
0.292285
0.289589
0.288332
0.288686
0.290747
0.294487
0.299734
0.306228
0.31371
0.322012
0.331114
0.34111
0.352094
0.364036
0.376712
0.389689
0.402341
0.413893
0.423566
0.430851
0.435953
0.440113
0.445771
0.455401
0.471648
0.497738
0.970204
13.0028
11.4583
10.1624
9.06575
8.13041
7.32693
6.63217
6.02778
5.49905
5.03412
4.62331
4.25871
3.93377
3.64303
3.38196
3.14672
2.93407
2.74126
2.56594
2.4061
2.25999
2.12611
2.00315
1.88999
1.78562
1.68918
1.59988
1.51707
1.44012
1.36852
1.30178
1.23949
1.18126
1.12676
1.07568
1.02775
0.982711
0.940351
0.900464
0.862866
0.827393
0.793891
0.762224
0.732265
0.7039
0.677023
0.651539
0.627359
0.604403
0.582594
0.561867
0.542156
0.523405
0.50556
0.488572
0.472396
0.456991
0.442317
0.428342
0.415033
0.402363
0.390307
0.378843
0.367956
0.357634
0.347872
0.338672
0.330045
0.322016
0.314624
0.307929
0.302012
0.296986
0.292995
0.290211
0.288815
0.288966
0.290751
0.29415
0.299032
0.3052
0.312459
0.320676
0.329827
0.339987
0.351254
0.363636
0.376968
0.390866
0.404711
0.417642
0.428656
0.436851
0.441887
0.444431
0.446513
0.450533
0.4596
0.480116
0.991472
13.0028
11.4583
10.1625
9.06581
8.13049
7.32703
6.63228
6.02791
5.4992
5.03429
4.62351
4.25893
3.93401
3.6433
3.38224
3.14703
2.9344
2.74161
2.56631
2.40648
2.26039
2.12653
2.0036
1.89045
1.7861
1.68967
1.60039
1.51759
1.44066
1.36907
1.30235
1.24007
1.18185
1.12736
1.07629
1.02836
0.983334
0.940982
0.901102
0.863511
0.828043
0.794547
0.762885
0.732931
0.704571
0.677698
0.652218
0.628042
0.605088
0.583283
0.562559
0.542851
0.524103
0.506261
0.489277
0.473104
0.457702
0.443033
0.429062
0.415759
0.403094
0.391045
0.37959
0.368712
0.3584
0.348649
0.33946
0.330844
0.322826
0.315442
0.308749
0.302828
0.297785
0.293761
0.29092
0.289435
0.289452
0.29105
0.294202
0.298788
0.304648
0.311637
0.319664
0.328716
0.338864
0.350212
0.362803
0.376535
0.391101
0.405933
0.420163
0.432658
0.4422
0.447936
0.449903
0.449606
0.449274
0.452434
0.46843
1.01793
13.0029
11.4584
10.1625
9.06587
8.13057
7.32712
6.6324
6.02805
5.49936
5.03447
4.62371
4.25916
3.93426
3.64357
3.38254
3.14734
2.93474
2.74197
2.5667
2.40689
2.26082
2.12698
2.00406
1.89093
1.7866
1.69019
1.60092
1.51814
1.44122
1.36965
1.30294
1.24067
1.18246
1.12798
1.07692
1.02901
0.983987
0.941642
0.90177
0.864186
0.828725
0.795235
0.763578
0.733629
0.705273
0.678405
0.652929
0.628756
0.605806
0.584005
0.563284
0.54358
0.524835
0.506996
0.490015
0.473845
0.458447
0.443782
0.429816
0.416518
0.40386
0.391818
0.380371
0.369502
0.359199
0.349458
0.340279
0.331674
0.323664
0.316287
0.309596
0.30367
0.298614
0.294565
0.291685
0.290142
0.290077
0.291556
0.294542
0.29891
0.304514
0.311239
0.319031
0.327898
0.337915
0.349191
0.361798
0.375694
0.390654
0.406197
0.421512
0.435428
0.446521
0.453505
0.455791
0.454268
0.450857
0.449396
0.461909
1.04927
13.0029
11.4584
10.1625
9.06594
8.13065
7.32722
6.63252
6.02819
5.49953
5.03466
4.62392
4.25939
3.93452
3.64385
3.38285
3.14768
2.9351
2.74235
2.5671
2.40731
2.26126
2.12744
2.00455
1.89144
1.78712
1.69073
1.60148
1.51871
1.44181
1.37025
1.30355
1.2413
1.1831
1.12863
1.07758
1.02968
0.984668
0.942332
0.902468
0.864891
0.829437
0.795953
0.764302
0.734358
0.706007
0.679144
0.653672
0.629503
0.606557
0.584759
0.564041
0.544341
0.525599
0.507764
0.490786
0.474621
0.459226
0.444566
0.430605
0.417312
0.40466
0.392625
0.381185
0.370325
0.360032
0.3503
0.341131
0.332535
0.324532
0.31716
0.310471
0.30454
0.299473
0.295403
0.292492
0.290909
0.290791
0.292199
0.295083
0.299306
0.304716
0.311216
0.318777
0.327428
0.337252
0.348364
0.360855
0.37473
0.389843
0.405818
0.421943
0.43709
0.449743
0.458299
0.461608
0.459893
0.454636
0.449814
0.459852
1.08528
13.0029
11.4584
10.1626
9.066
8.13073
7.32733
6.63265
6.02834
5.4997
5.03486
4.62415
4.25964
3.93479
3.64415
3.38317
3.14803
2.93547
2.74275
2.56752
2.40775
2.26172
2.12793
2.00505
1.89196
1.78766
1.69129
1.60206
1.5193
1.44242
1.37087
1.30419
1.24195
1.18377
1.12931
1.07827
1.03038
0.985378
0.943051
0.903195
0.865626
0.830179
0.796701
0.765056
0.735118
0.706772
0.679914
0.654446
0.630282
0.60734
0.585546
0.564832
0.545135
0.526397
0.508565
0.491591
0.475429
0.460039
0.445383
0.431427
0.41814
0.405494
0.393466
0.382034
0.371181
0.360897
0.351174
0.342014
0.333426
0.325431
0.318063
0.311375
0.30544
0.300361
0.296273
0.293337
0.291722
0.291569
0.292934
0.295759
0.299893
0.305172
0.311498
0.31886
0.327307
0.336927
0.347838
0.360141
0.373877
0.388966
0.405135
0.421793
0.437919
0.452007
0.462265
0.467087
0.466046
0.460069
0.453089
0.461626
1.12579
13.0029
11.4585
10.1626
9.06607
8.13082
7.32743
6.63278
6.02849
5.49988
5.03506
4.62437
4.2599
3.93507
3.64446
3.38351
3.14838
2.93585
2.74316
2.56795
2.40821
2.2622
2.12843
2.00557
1.8925
1.78823
1.69187
1.60266
1.51992
1.44305
1.37152
1.30485
1.24263
1.18446
1.13002
1.07899
1.0311
0.986115
0.943797
0.90395
0.866389
0.83095
0.797479
0.765841
0.735909
0.707568
0.680715
0.655252
0.631092
0.608155
0.586365
0.565654
0.545961
0.527227
0.509399
0.492429
0.476272
0.460886
0.446235
0.432283
0.419002
0.406362
0.39434
0.382916
0.372071
0.361795
0.352081
0.34293
0.33435
0.326362
0.318998
0.31231
0.306371
0.301281
0.297175
0.294215
0.292574
0.292393
0.293732
0.296527
0.300614
0.30581
0.312016
0.319226
0.327503
0.336943
0.34766
0.35976
0.373302
0.388259
0.404446
0.421404
0.43825
0.45357
0.465509
0.472136
0.472439
0.466723
0.458693
0.466653
1.17073
13.0029
11.4585
10.1627
9.06614
8.13091
7.32754
6.63291
6.02865
5.50006
5.03527
4.62461
4.26016
3.93536
3.64478
3.38385
3.14876
2.93625
2.74358
2.5684
2.40868
2.2627
2.12894
2.00611
1.89307
1.78881
1.69247
1.60328
1.52056
1.44371
1.37219
1.30554
1.24333
1.18518
1.13075
1.07973
1.03186
0.986879
0.944571
0.904733
0.867181
0.831749
0.798286
0.766655
0.736729
0.708394
0.681546
0.656089
0.631934
0.609001
0.587215
0.566509
0.54682
0.52809
0.510266
0.4933
0.477147
0.461766
0.447119
0.433173
0.419897
0.407264
0.395249
0.383831
0.372995
0.362727
0.353022
0.343878
0.335306
0.327324
0.319964
0.313277
0.307333
0.302234
0.29811
0.295127
0.29346
0.293255
0.294577
0.297359
0.301426
0.306581
0.312711
0.319818
0.327972
0.337273
0.347834
0.359755
0.373104
0.387886
0.403989
0.421073
0.438413
0.45474
0.468242
0.476799
0.478917
0.47427
0.466172
0.474418
1.22007
13.003
11.4585
10.1627
9.06621
8.131
7.32765
6.63304
6.02881
5.50025
5.03548
4.62485
4.26043
3.93566
3.6451
3.38421
3.14914
2.93666
2.74402
2.56886
2.40917
2.26321
2.12948
2.00667
1.89364
1.78941
1.69309
1.60392
1.52122
1.44438
1.37289
1.30625
1.24406
1.18592
1.1315
1.0805
1.03264
0.987669
0.945372
0.905544
0.868001
0.832577
0.799122
0.767498
0.737579
0.70925
0.682408
0.656956
0.632806
0.609878
0.588097
0.567396
0.547711
0.528985
0.511166
0.494204
0.478055
0.462679
0.448037
0.434096
0.420826
0.408199
0.39619
0.38478
0.373951
0.363692
0.353995
0.34486
0.336295
0.328319
0.320963
0.314276
0.308329
0.303219
0.299078
0.296073
0.29438
0.294152
0.29546
0.298239
0.302306
0.307447
0.31354
0.320585
0.328663
0.337878
0.348337
0.360132
0.373328
0.387947
0.403931
0.421039
0.438701
0.455824
0.47072
0.481208
0.485435
0.482478
0.475152
0.484472
1.27383
13.003
11.4586
10.1628
9.06628
8.13109
7.32777
6.63318
6.02897
5.50044
5.0357
4.6251
4.26071
3.93597
3.64544
3.38457
3.14953
2.93708
2.74446
2.56933
2.40967
2.26374
2.13003
2.00724
1.89424
1.79003
1.69373
1.60458
1.5219
1.44508
1.3736
1.30699
1.2448
1.18668
1.13228
1.08129
1.03344
0.988485
0.946199
0.906381
0.868847
0.833433
0.799986
0.768369
0.738457
0.710136
0.6833
0.657854
0.633709
0.610786
0.589011
0.568314
0.548634
0.529912
0.512097
0.49514
0.478996
0.463624
0.448988
0.435053
0.421788
0.409167
0.397165
0.385762
0.374941
0.36469
0.355001
0.345874
0.337317
0.329347
0.321995
0.315309
0.309357
0.304237
0.30008
0.297051
0.295331
0.295082
0.296378
0.29916
0.303239
0.308389
0.314472
0.321492
0.329536
0.338715
0.349133
0.360869
0.37398
0.388491
0.404374
0.421471
0.439348
0.4571
0.473211
0.485548
0.492031
0.491211
0.485342
0.496439
1.33204
13.003
11.4586
10.1629
9.06635
8.13118
7.32789
6.63332
6.02914
5.50063
5.03593
4.62536
4.26099
3.93628
3.64579
3.38495
3.14993
2.93751
2.74492
2.56982
2.41018
2.26428
2.13059
2.00783
1.89485
1.79066
1.69439
1.60526
1.5226
1.4458
1.37434
1.30774
1.24557
1.18747
1.13308
1.0821
1.03427
0.989325
0.947051
0.907244
0.869721
0.834315
0.800877
0.769268
0.739364
0.71105
0.68422
0.658781
0.634642
0.611725
0.589954
0.569263
0.549587
0.530871
0.513061
0.496108
0.479969
0.464603
0.449971
0.436042
0.422783
0.410168
0.398174
0.386778
0.375965
0.365721
0.356041
0.346922
0.338372
0.330408
0.323061
0.316375
0.310419
0.305289
0.301115
0.298062
0.296315
0.296042
0.297327
0.300117
0.30422
0.309394
0.315491
0.322512
0.330558
0.339747
0.350182
0.361933
0.375041
0.389525
0.405373
0.422482
0.440533
0.458799
0.475967
0.49003
0.498804
0.500416
0.496538
0.510019
1.39476
13.003
11.4586
10.1629
9.06642
8.13128
7.328
6.63347
6.02931
5.50083
5.03616
4.62562
4.26128
3.9366
3.64614
3.38533
3.15035
2.93795
2.74539
2.57032
2.41071
2.26483
2.13117
2.00844
1.89548
1.79132
1.69506
1.60595
1.52331
1.44654
1.3751
1.30851
1.24637
1.18828
1.1339
1.08294
1.03512
0.99019
0.947928
0.908132
0.870619
0.835224
0.801795
0.770195
0.740299
0.711992
0.68517
0.659737
0.635605
0.612693
0.590928
0.570242
0.550572
0.531861
0.514056
0.497109
0.480974
0.465613
0.450987
0.437063
0.423811
0.411203
0.399215
0.387826
0.377021
0.366786
0.357113
0.348003
0.33946
0.331503
0.324159
0.317475
0.311516
0.306375
0.302184
0.299106
0.297331
0.297033
0.298307
0.301108
0.305244
0.310459
0.316589
0.323633
0.331707
0.340945
0.35145
0.363286
0.37648
0.391037
0.406944
0.424134
0.442378
0.461105
0.479212
0.494871
0.505901
0.51011
0.508621
0.524998
1.46208
13.003
11.4587
10.163
9.0665
8.13137
7.32812
6.63361
6.02949
5.50104
5.03639
4.62588
4.26158
3.93693
3.6465
3.38572
3.15077
2.93841
2.74588
2.57083
2.41125
2.2654
2.13177
2.00906
1.89613
1.79198
1.69575
1.60667
1.52405
1.44729
1.37587
1.30931
1.24718
1.1891
1.13475
1.0838
1.036
0.991078
0.948829
0.909045
0.871543
0.836159
0.802739
0.771148
0.741261
0.712962
0.686147
0.660721
0.636596
0.613691
0.591932
0.571252
0.551587
0.532882
0.515082
0.49814
0.482011
0.466655
0.452035
0.438117
0.424871
0.412269
0.400288
0.388907
0.37811
0.367883
0.358219
0.349117
0.340582
0.332631
0.325292
0.318609
0.312646
0.307496
0.303287
0.300183
0.298378
0.298053
0.299316
0.302132
0.306309
0.31158
0.31776
0.324847
0.332971
0.342287
0.352909
0.364896
0.378263
0.392998
0.40908
0.426456
0.444961
0.464156
0.483135
0.500278
0.513492
0.520374
0.521553
0.541244
1.5341
13.003
11.4587
10.163
9.06657
8.13147
7.32824
6.63376
6.02966
5.50124
5.03663
4.62615
4.26188
3.93727
3.64686
3.38612
3.1512
2.93887
2.74637
2.57135
2.4118
2.26597
2.13237
2.00969
1.89678
1.79267
1.69646
1.6074
1.5248
1.44807
1.37666
1.31012
1.24801
1.18995
1.13561
1.08468
1.03689
0.991989
0.949753
0.909981
0.872492
0.837118
0.803709
0.772128
0.742249
0.713959
0.687152
0.661733
0.637615
0.614717
0.592965
0.57229
0.552632
0.533932
0.516138
0.499202
0.483079
0.467729
0.453114
0.439202
0.425963
0.413368
0.401394
0.390021
0.379231
0.369013
0.359358
0.350264
0.341737
0.333793
0.326459
0.319777
0.313811
0.308652
0.304424
0.301295
0.299458
0.299104
0.300353
0.303186
0.307414
0.312755
0.319005
0.326153
0.334345
0.343763
0.354539
0.366735
0.380357
0.395378
0.41176
0.429452
0.448328
0.468053
0.487894
0.506449
0.521767
0.531339
0.535372
0.558711
1.61093
13.0031
11.4588
10.1631
9.06665
8.13156
7.32837
6.63391
6.02984
5.50145
5.03687
4.62642
4.26219
3.93761
3.64723
3.38652
3.15164
2.93933
2.74687
2.57188
2.41236
2.26656
2.13299
2.01033
1.89746
1.79336
1.69718
1.60814
1.52557
1.44886
1.37748
1.31095
1.24886
1.19082
1.1365
1.08559
1.03781
0.992922
0.950699
0.910941
0.873463
0.838101
0.804703
0.773132
0.743263
0.714981
0.688183
0.662773
0.638662
0.615771
0.594025
0.573358
0.553706
0.535012
0.517224
0.500294
0.484177
0.468833
0.454225
0.440319
0.427086
0.414498
0.402532
0.391166
0.380385
0.370175
0.360528
0.351443
0.342925
0.334987
0.327658
0.320979
0.31501
0.309842
0.305596
0.302439
0.300569
0.300183
0.301418
0.304269
0.308555
0.313983
0.320323
0.327551
0.335827
0.345366
0.356326
0.368781
0.382735
0.398144
0.414957
0.433112
0.452504
0.472868
0.493621
0.513564
0.530928
0.543178
0.550187
0.57744
1.69275
13.0031
11.4588
10.1631
9.06672
8.13166
7.32849
6.63406
6.03002
5.50166
5.03711
4.6267
4.2625
3.93795
3.64761
3.38693
3.15208
2.93981
2.74738
2.57242
2.41293
2.26716
2.13362
2.01099
1.89814
1.79407
1.69792
1.6089
1.52635
1.44966
1.3783
1.3118
1.24973
1.19171
1.1374
1.08651
1.03875
0.993875
0.951667
0.911922
0.874458
0.839107
0.805721
0.77416
0.744301
0.716029
0.68924
0.663838
0.639735
0.616852
0.595114
0.574454
0.554808
0.536121
0.51834
0.501416
0.485305
0.469967
0.455365
0.441466
0.42824
0.415659
0.4037
0.392343
0.38157
0.371369
0.361731
0.352654
0.344144
0.336214
0.328891
0.322214
0.316243
0.311066
0.306802
0.303617
0.301711
0.30129
0.302507
0.305376
0.309728
0.31526
0.321713
0.329041
0.337418
0.347094
0.358264
0.371021
0.385374
0.401272
0.418645
0.437421
0.457497
0.478655
0.500426
0.521796
0.541188
0.556107
0.566178
0.597555
1.77972
13.0031
11.4588
10.1632
9.06679
8.13176
7.32861
6.63421
6.0302
5.50188
5.03736
4.62698
4.26281
3.9383
3.648
3.38735
3.15253
2.9403
2.74789
2.57297
2.41351
2.26777
2.13426
2.01166
1.89884
1.7948
1.69866
1.60967
1.52715
1.45048
1.37915
1.31266
1.25061
1.19261
1.13833
1.08745
1.03971
0.994849
0.952656
0.912925
0.875474
0.840136
0.806761
0.775212
0.745363
0.717102
0.690322
0.664929
0.640835
0.61796
0.596229
0.575576
0.555938
0.537258
0.519484
0.502566
0.486462
0.471131
0.456536
0.442643
0.429424
0.416851
0.404899
0.39355
0.382786
0.372593
0.362964
0.353897
0.345396
0.337473
0.330155
0.323481
0.317509
0.312323
0.308042
0.304828
0.302884
0.302425
0.303619
0.306505
0.310928
0.31658
0.323171
0.330625
0.339122
0.348949
0.360348
0.373445
0.388258
0.404738
0.422802
0.442362
0.463312
0.485458
0.508411
0.531311
0.552773
0.570381
0.583593
0.61927
1.87206
13.0031
11.4589
10.1632
9.06687
8.13186
7.32874
6.63437
6.03039
5.50209
5.03761
4.62727
4.26313
3.93865
3.64838
3.38777
3.15299
2.94079
2.74842
2.57353
2.4141
2.26839
2.13491
2.01234
1.89954
1.79553
1.69943
1.61046
1.52796
1.45132
1.38
1.31354
1.25151
1.19353
1.13927
1.08841
1.04068
0.995841
0.953664
0.913948
0.87651
0.841186
0.807823
0.776286
0.746449
0.718197
0.691428
0.666044
0.641959
0.619092
0.59737
0.576725
0.557095
0.538422
0.520655