/*--------------------------------*- C++ -*----------------------------------*\
| =========                 |                                                 |
| \\      /  F ield         | OpenFOAM: The Open Source CFD Toolbox           |
|  \\    /   O peration     | Version:  4.1                                   |
|   \\  /    A nd           | Web:      www.OpenFOAM.org                      |
|    \\/     M anipulation  |                                                 |
\*---------------------------------------------------------------------------*/
FoamFile
{
    version     2.0;
    format      ascii;
    class       volScalarField;
    location    "0.2";
    object      p;
}
// * * * * * * * * * * * * * * * * * * * * * * * * * * * * * * * * * * * * * //

dimensions      [0 2 -2 0 0 0 0];

internalField   nonuniform List<scalar> 
43750
(
114.235
114.131
114.08
114.1
114.152
114.217
114.296
114.396
114.515
114.653
114.809
114.982
115.173
115.381
115.607
115.849
116.109
116.385
116.679
116.989
117.316
117.66
118.021
118.399
118.793
119.203
119.63
120.074
120.533
121.009
121.501
122.008
122.53
123.068
123.62
124.186
124.766
125.358
125.963
126.579
127.206
127.843
128.49
129.145
129.808
130.479
131.158
131.845
132.541
133.245
133.96
134.685
135.423
136.174
136.938
137.715
138.505
139.307
140.117
140.934
141.754
142.573
143.389
144.2
145.004
145.801
146.589
147.367
148.134
148.887
149.624
150.343
151.041
151.72
152.381
153.025
153.657
154.278
154.89
155.495
156.093
156.685
157.269
157.845
158.412
158.971
159.523
160.068
160.608
161.144
161.682
162.22
162.747
163.254
163.727
164.155
164.524
164.82
165.03
165.127
114.061
114.034
114.016
114.036
114.086
114.154
114.239
114.342
114.463
114.603
114.76
114.935
115.126
115.335
115.561
115.803
116.063
116.339
116.632
116.942
117.269
117.612
117.972
118.349
118.742
119.151
119.577
120.02
120.478
120.953
121.444
121.95
122.471
123.008
123.56
124.126
124.706
125.299
125.905
126.523
127.153
127.793
128.444
129.104
129.774
130.451
131.137
131.832
132.535
133.247
133.969
134.701
135.445
136.202
136.971
137.754
138.549
139.355
140.17
140.991
141.814
142.636
143.454
144.267
145.072
145.87
146.659
147.438
148.206
148.96
149.696
150.414
151.11
151.786
152.441
153.08
153.706
154.322
154.93
155.532
156.128
156.716
157.297
157.869
158.431
158.984
159.529
160.066
160.599
161.139
161.683
162.222
162.748
163.253
163.727
164.155
164.525
164.821
165.027
165.146
113.976
113.976
113.982
114.007
114.057
114.126
114.212
114.314
114.434
114.572
114.727
114.899
115.088
115.294
115.517
115.757
116.013
116.286
116.576
116.883
117.206
117.546
117.902
118.274
118.663
119.067
119.488
119.925
120.378
120.847
121.331
121.831
122.346
122.875
123.419
123.978
124.55
125.135
125.734
126.345
126.968
127.603
128.249
128.905
129.572
130.249
130.936
131.633
132.34
133.058
133.787
134.526
135.278
136.041
136.816
137.603
138.4
139.207
140.022
140.842
141.664
142.487
143.307
144.123
144.934
145.738
146.533
147.318
148.091
148.85
149.592
150.315
151.018
151.701
152.365
153.013
153.647
154.271
154.887
155.496
156.099
156.696
157.286
157.866
158.437
158.999
159.553
160.102
160.649
161.198
161.747
162.291
162.823
163.334
163.819
164.256
164.633
164.937
165.144
165.274
113.883
113.888
113.902
113.932
113.983
114.052
114.138
114.241
114.362
114.5
114.655
114.827
115.017
115.223
115.446
115.685
115.942
116.215
116.504
116.81
117.132
117.471
117.826
118.197
118.585
118.988
119.407
119.843
120.294
120.76
121.242
121.739
122.25
122.776
123.317
123.871
124.439
125.02
125.614
126.22
126.838
127.468
128.108
128.76
129.421
130.093
130.776
131.468
132.171
132.884
133.607
134.342
135.088
135.845
136.612
137.391
138.179
138.976
139.781
140.591
141.405
142.221
143.036
143.85
144.66
145.465
146.263
147.054
147.834
148.602
149.356
150.093
150.812
151.513
152.196
152.863
153.517
154.159
154.792
155.418
156.038
156.652
157.258
157.856
158.446
159.027
159.601
160.17
160.738
161.307
161.875
162.439
162.991
163.521
164.011
164.456
164.84
165.154
165.37
165.503
113.783
113.791
113.812
113.849
113.902
113.974
114.062
114.166
114.287
114.425
114.58
114.752
114.94
115.145
115.367
115.605
115.86
116.131
116.419
116.723
117.043
117.379
117.732
118.1
118.485
118.886
119.302
119.734
120.182
120.645
121.123
121.616
122.124
122.646
123.183
123.733
124.297
124.875
125.465
126.067
126.681
127.307
127.945
128.593
129.252
129.922
130.602
131.292
131.993
132.704
133.426
134.158
134.901
135.653
136.416
137.189
137.97
138.759
139.555
140.356
141.16
141.966
142.773
143.578
144.381
145.18
145.974
146.762
147.541
148.311
149.07
149.816
150.547
151.264
151.966
152.654
153.329
153.994
154.651
155.3
155.942
156.578
157.207
157.828
158.441
159.046
159.647
160.243
160.839
161.434
162.029
162.618
163.194
163.747
164.264
164.732
165.133
165.443
165.665
165.803
113.673
113.683
113.707
113.747
113.802
113.874
113.962
114.067
114.188
114.325
114.48
114.651
114.838
115.043
115.263
115.5
115.754
116.023
116.309
116.612
116.93
117.265
117.615
117.982
118.364
118.762
119.176
119.605
120.05
120.51
120.985
121.475
121.98
122.499
123.032
123.579
124.139
124.713
125.299
125.898
126.51
127.133
127.767
128.413
129.069
129.737
130.415
131.104
131.803
132.512
133.232
133.962
134.703
135.453
136.212
136.981
137.757
138.54
139.33
140.124
140.921
141.72
142.519
143.318
144.114
144.908
145.697
146.48
147.257
148.026
148.785
149.535
150.273
151
151.715
152.419
153.112
153.795
154.471
155.14
155.803
156.46
157.111
157.754
158.39
159.019
159.643
160.264
160.885
161.506
162.126
162.74
163.342
163.921
164.463
164.951
165.369
165.698
165.934
166.086
113.551
113.562
113.587
113.629
113.686
113.759
113.848
113.953
114.074
114.212
114.366
114.537
114.724
114.927
115.146
115.382
115.634
115.902
116.186
116.486
116.803
117.135
117.483
117.847
118.227
118.622
119.033
119.459
119.9
120.357
120.828
121.315
121.815
122.331
122.86
123.403
123.959
124.529
125.111
125.707
126.314
126.934
127.565
128.208
128.862
129.527
130.202
130.889
131.586
132.294
133.012
133.741
134.479
135.227
135.984
136.749
137.522
138.302
139.087
139.877
140.67
141.465
142.261
143.056
143.85
144.64
145.427
146.209
146.985
147.754
148.515
149.268
150.012
150.745
151.469
152.183
152.888
153.583
154.271
154.953
155.63
156.302
156.968
157.628
158.28
158.924
159.564
160.2
160.836
161.472
162.108
162.739
163.36
163.96
164.525
165.037
165.478
165.828
166.078
166.241
113.415
113.426
113.453
113.496
113.554
113.628
113.717
113.822
113.943
114.081
114.234
114.404
114.59
114.792
115.01
115.244
115.494
115.761
116.043
116.341
116.655
116.985
117.33
117.692
118.069
118.461
118.869
119.292
119.73
120.183
120.651
121.133
121.63
122.142
122.667
123.206
123.758
124.324
124.902
125.494
126.097
126.713
127.341
127.98
128.631
129.293
129.966
130.65
131.345
132.05
132.766
133.492
134.227
134.972
135.726
136.489
137.259
138.036
138.818
139.605
140.396
141.189
141.983
142.777
143.57
144.361
145.149
145.932
146.71
147.482
148.247
149.005
149.755
150.496
151.228
151.952
152.666
153.37
154.067
154.756
155.44
156.119
156.793
157.461
158.12
158.771
159.415
160.054
160.691
161.328
161.964
162.598
163.224
163.833
164.412
164.943
165.404
165.773
166.038
166.211
113.265
113.276
113.304
113.348
113.407
113.481
113.57
113.675
113.796
113.933
114.086
114.255
114.44
114.64
114.857
115.09
115.338
115.603
115.883
116.179
116.491
116.818
117.161
117.519
117.893
118.282
118.687
119.106
119.541
119.99
120.454
120.933
121.426
121.933
122.454
122.989
123.537
124.098
124.673
125.26
125.859
126.471
127.095
127.731
128.378
129.036
129.706
130.387
131.078
131.78
132.493
133.216
133.948
134.69
135.441
136.2
136.967
137.741
138.52
139.304
140.093
140.884
141.677
142.471
143.264
144.056
144.846
145.633
146.415
147.192
147.964
148.728
149.486
150.236
150.979
151.712
152.437
153.152
153.858
154.554
155.243
155.926
156.601
157.27
157.929
158.578
159.217
159.849
160.476
161.099
161.721
162.34
162.954
163.555
164.131
164.666
165.136
165.518
165.792
165.973
113.101
113.112
113.14
113.184
113.243
113.318
113.407
113.512
113.633
113.769
113.921
114.089
114.273
114.472
114.687
114.918
115.165
115.427
115.705
115.999
116.308
116.633
116.973
117.328
117.699
118.085
118.486
118.902
119.332
119.778
120.238
120.713
121.201
121.704
122.221
122.751
123.295
123.852
124.422
125.005
125.6
126.208
126.827
127.459
128.102
128.757
129.423
130.1
130.788
131.486
132.195
132.914
133.643
134.381
135.128
135.884
136.647
137.417
138.193
138.975
139.76
140.55
141.341
142.134
142.928
143.722
144.514
145.303
146.09
146.873
147.652
148.425
149.192
149.952
150.706
151.452
152.189
152.916
153.633
154.339
155.033
155.718
156.394
157.059
157.714
158.356
158.986
159.604
160.214
160.816
161.413
162.004
162.59
163.166
163.721
164.241
164.705
165.085
165.36
165.541
112.922
112.933
112.961
113.006
113.065
113.139
113.229
113.333
113.453
113.589
113.74
113.907
114.089
114.287
114.501
114.73
114.975
115.235
115.51
115.801
116.108
116.43
116.767
117.119
117.486
117.869
118.266
118.678
119.105
119.547
120.003
120.473
120.957
121.456
121.968
122.494
123.033
123.585
124.151
124.729
125.319
125.923
126.538
127.165
127.804
128.454
129.116
129.789
130.472
131.167
131.872
132.587
133.312
134.046
134.789
135.54
136.299
137.066
137.838
138.616
139.399
140.186
140.976
141.768
142.562
143.356
144.149
144.942
145.733
146.521
147.306
148.087
148.863
149.634
150.399
151.157
151.907
152.648
153.377
154.093
154.796
155.485
156.16
156.823
157.472
158.106
158.724
159.328
159.917
160.494
161.061
161.618
162.166
162.703
163.222
163.712
164.151
164.517
164.781
164.955
112.728
112.74
112.768
112.812
112.871
112.946
113.034
113.139
113.258
113.393
113.543
113.709
113.89
114.086
114.298
114.525
114.767
115.025
115.298
115.587
115.89
116.209
116.543
116.892
117.256
117.634
118.028
118.436
118.859
119.296
119.748
120.214
120.694
121.188
121.695
122.216
122.75
123.298
123.858
124.432
125.018
125.616
126.226
126.848
127.483
128.128
128.785
129.454
130.133
130.823
131.523
132.234
132.954
133.684
134.422
135.17
135.924
136.687
137.455
138.23
139.01
139.794
140.581
141.372
142.165
142.958
143.753
144.548
145.341
146.133
146.923
147.711
148.495
149.274
150.05
150.819
151.581
152.334
153.076
153.803
154.515
155.209
155.887
156.549
157.193
157.82
158.428
159.017
159.587
160.139
160.674
161.195
161.701
162.193
162.667
163.114
163.517
163.855
164.1
164.262
112.52
112.532
112.559
112.604
112.663
112.737
112.825
112.929
113.047
113.181
113.33
113.494
113.674
113.868
114.078
114.303
114.543
114.799
115.069
115.355
115.655
115.971
116.302
116.647
117.007
117.382
117.772
118.176
118.595
119.028
119.475
119.936
120.411
120.9
121.402
121.918
122.448
122.99
123.545
124.114
124.694
125.287
125.892
126.51
127.139
127.779
128.431
129.095
129.769
130.454
131.149
131.855
132.57
133.295
134.029
134.771
135.522
136.279
137.044
137.815
138.591
139.372
140.157
140.945
141.737
142.53
143.325
144.12
144.915
145.71
146.504
147.296
148.086
148.872
149.655
150.433
151.205
151.969
152.721
153.458
154.179
154.88
155.562
156.225
156.868
157.489
158.089
158.666
159.219
159.748
160.254
160.739
161.204
161.649
162.074
162.473
162.832
163.134
163.353
163.498
112.297
112.309
112.336
112.38
112.439
112.512
112.6
112.703
112.821
112.954
113.101
113.264
113.442
113.635
113.843
114.065
114.303
114.556
114.824
115.106
115.404
115.716
116.043
116.385
116.741
117.112
117.498
117.898
118.312
118.74
119.182
119.639
120.109
120.593
121.09
121.601
122.125
122.662
123.212
123.774
124.35
124.937
125.537
126.148
126.772
127.407
128.054
128.712
129.38
130.06
130.75
131.45
132.16
132.88
133.608
134.346
135.091
135.844
136.604
137.37
138.143
138.92
139.702
140.488
141.277
142.069
142.863
143.658
144.454
145.25
146.046
146.841
147.635
148.426
149.214
149.998
150.777
151.547
152.307
153.053
153.781
154.49
155.177
155.842
156.485
157.104
157.697
158.264
158.803
159.313
159.794
160.247
160.674
161.075
161.452
161.801
162.113
162.376
162.566
162.692
112.059
112.071
112.098
112.142
112.201
112.273
112.361
112.463
112.579
112.711
112.857
113.018
113.194
113.385
113.591
113.811
114.047
114.297
114.561
114.841
115.135
115.444
115.767
116.105
116.458
116.824
117.206
117.601
118.01
118.434
118.871
119.323
119.788
120.266
120.758
121.263
121.782
122.313
122.857
123.414
123.984
124.565
125.159
125.765
126.383
127.012
127.653
128.304
128.967
129.641
130.325
131.02
131.724
132.438
133.16
133.892
134.632
135.38
136.135
136.896
137.664
138.437
139.216
139.998
140.785
141.574
142.367
143.161
143.956
144.753
145.55
146.346
147.141
147.935
148.726
149.513
150.295
151.07
151.835
152.586
153.32
154.034
154.725
155.393
156.037
156.655
157.245
157.804
158.332
158.826
159.286
159.712
160.106
160.468
160.801
161.104
161.37
161.593
161.753
161.86
111.807
111.819
111.846
111.889
111.947
112.02
112.106
112.207
112.323
112.453
112.598
112.757
112.931
113.12
113.323
113.541
113.774
114.021
114.283
114.559
114.85
115.155
115.475
115.809
116.157
116.519
116.896
117.287
117.691
118.11
118.542
118.988
119.448
119.921
120.407
120.906
121.419
121.944
122.482
123.033
123.596
124.172
124.759
125.359
125.97
126.593
127.228
127.873
128.53
129.197
129.875
130.563
131.261
131.968
132.685
133.41
134.144
134.886
135.635
136.392
137.154
137.923
138.697
139.476
140.259
141.045
141.835
142.627
143.421
144.216
145.012
145.809
146.604
147.398
148.19
148.978
149.761
150.537
151.304
152.057
152.794
153.511
154.206
154.877
155.521
156.138
156.725
157.279
157.798
158.28
158.723
159.128
159.494
159.823
160.118
160.379
160.604
160.79
160.921
161.009
111.541
111.552
111.579
111.622
111.68
111.751
111.837
111.937
112.051
112.18
112.323
112.481
112.653
112.839
113.04
113.256
113.485
113.73
113.988
114.261
114.548
114.85
115.165
115.495
115.839
116.197
116.569
116.954
117.354
117.767
118.194
118.635
119.089
119.556
120.036
120.53
121.036
121.555
122.087
122.631
123.188
123.757
124.338
124.931
125.535
126.152
126.779
127.418
128.068
128.728
129.399
130.08
130.771
131.472
132.182
132.9
133.628
134.363
135.106
135.857
136.613
137.377
138.145
138.919
139.698
140.48
141.266
142.055
142.847
143.639
144.434
145.228
146.022
146.814
147.605
148.392
149.174
149.949
150.714
151.468
152.205
152.923
153.619
154.29
154.934
155.55
156.134
156.684
157.196
157.669
158.099
158.486
158.83
159.132
159.395
159.621
159.811
159.964
160.069
160.142
111.26
111.271
111.298
111.341
111.398
111.468
111.553
111.652
111.765
111.892
112.033
112.189
112.359
112.543
112.742
112.954
113.181
113.422
113.678
113.947
114.23
114.528
114.839
115.165
115.504
115.857
116.224
116.605
116.999
117.407
117.829
118.263
118.711
119.172
119.647
120.134
120.634
121.146
121.671
122.209
122.759
123.321
123.895
124.481
125.078
125.687
126.307
126.939
127.581
128.234
128.897
129.571
130.255
130.948
131.651
132.362
133.082
133.811
134.547
135.29
136.041
136.798
137.56
138.328
139.102
139.879
140.66
141.445
142.232
143.021
143.812
144.603
145.394
146.183
146.971
147.754
148.533
149.305
150.068
150.818
151.553
152.269
152.964
153.633
154.276
154.89
155.471
156.016
156.523
156.987
157.407
157.781
158.108
158.389
158.627
158.825
158.985
159.111
159.195
159.253
110.965
110.977
111.003
111.045
111.101
111.171
111.254
111.352
111.464
111.589
111.729
111.883
112.051
112.232
112.428
112.638
112.862
113.1
113.351
113.617
113.896
114.19
114.497
114.818
115.153
115.501
115.863
116.238
116.627
117.029
117.445
117.874
118.315
118.77
119.238
119.719
120.212
120.717
121.236
121.766
122.309
122.863
123.43
124.008
124.598
125.199
125.812
126.435
127.07
127.715
128.37
129.036
129.712
130.397
131.092
131.795
132.508
133.228
133.957
134.693
135.436
136.185
136.941
137.703
138.469
139.241
140.016
140.795
141.577
142.361
143.146
143.933
144.719
145.504
146.286
147.065
147.839
148.606
149.364
150.109
150.84
151.552
152.242
152.908
153.547
154.156
154.733
155.274
155.775
156.233
156.645
157.008
157.323
157.588
157.807
157.983
158.12
158.223
158.29
158.337
110.657
110.668
110.694
110.735
110.791
110.86
110.942
111.038
111.148
111.272
111.41
111.562
111.727
111.907
112.1
112.306
112.527
112.761
113.01
113.271
113.547
113.836
114.139
114.455
114.785
115.128
115.485
115.854
116.238
116.634
117.044
117.466
117.901
118.35
118.811
119.284
119.771
120.269
120.78
121.303
121.838
122.385
122.944
123.514
124.096
124.689
125.293
125.908
126.534
127.171
127.818
128.475
129.142
129.819
130.505
131.2
131.904
132.616
133.336
134.063
134.798
135.54
136.288
137.042
137.801
138.565
139.333
140.105
140.88
141.657
142.436
143.216
143.996
144.774
145.551
146.323
147.091
147.851
148.602
149.341
150.065
150.77
151.454
152.114
152.747
153.351
153.922
154.457
154.952
155.404
155.809
156.165
156.469
156.723
156.928
157.089
157.208
157.295
157.348
157.387
110.334
110.345
110.371
110.412
110.466
110.534
110.616
110.71
110.819
110.941
111.077
111.226
111.389
111.566
111.756
111.96
112.177
112.408
112.653
112.91
113.182
113.466
113.764
114.076
114.401
114.739
115.09
115.454
115.831
116.222
116.625
117.041
117.47
117.911
118.365
118.831
119.31
119.801
120.304
120.82
121.347
121.885
122.436
122.998
123.571
124.156
124.751
125.358
125.975
126.602
127.24
127.888
128.546
129.213
129.89
130.576
131.27
131.973
132.684
133.402
134.128
134.861
135.6
136.345
137.095
137.85
138.61
139.374
140.141
140.91
141.681
142.453
143.225
143.995
144.764
145.528
146.288
147.04
147.782
148.513
149.228
149.925
150.6
151.252
151.877
152.473
153.037
153.565
154.053
154.498
154.897
155.247
155.545
155.791
155.987
156.136
156.243
156.318
156.362
156.395
109.998
110.009
110.034
110.074
110.128
110.195
110.275
110.369
110.476
110.596
110.73
110.877
111.037
111.211
111.398
111.599
111.813
112.04
112.281
112.534
112.801
113.081
113.375
113.681
114.001
114.333
114.679
115.037
115.408
115.792
116.189
116.598
117.02
117.454
117.901
118.36
118.831
119.314
119.809
120.316
120.835
121.365
121.907
122.46
123.025
123.6
124.186
124.783
125.391
126.009
126.637
127.275
127.923
128.581
129.247
129.923
130.607
131.3
132.001
132.709
133.425
134.147
134.876
135.611
136.352
137.098
137.848
138.602
139.359
140.119
140.88
141.642
142.405
143.166
143.924
144.679
145.429
146.171
146.904
147.624
148.329
149.015
149.68
150.322
150.937
151.524
152.078
152.597
153.078
153.516
153.909
154.253
154.545
154.786
154.976
155.118
155.218
155.285
155.322
155.351
109.649
109.659
109.684
109.724
109.777
109.843
109.922
110.014
110.119
110.237
110.369
110.513
110.671
110.842
111.026
111.224
111.434
111.657
111.894
112.143
112.406
112.681
112.97
113.271
113.585
113.912
114.251
114.604
114.968
115.346
115.736
116.138
116.553
116.98
117.419
117.87
118.333
118.808
119.295
119.793
120.303
120.825
121.357
121.901
122.456
123.022
123.599
124.186
124.783
125.391
126.009
126.637
127.274
127.921
128.577
129.242
129.915
130.597
131.286
131.984
132.688
133.4
134.118
134.842
135.571
136.306
137.045
137.788
138.534
139.283
140.033
140.784
141.535
142.285
143.032
143.776
144.514
145.244
145.965
146.673
147.366
148.04
148.693
149.323
149.927
150.502
151.045
151.554
152.026
152.456
152.842
153.18
153.468
153.705
153.891
154.03
154.126
154.188
154.222
154.248
109.286
109.296
109.321
109.36
109.412
109.477
109.554
109.645
109.748
109.865
109.994
110.136
110.291
110.459
110.64
110.834
111.041
111.26
111.493
111.738
111.996
112.266
112.549
112.845
113.154
113.475
113.808
114.154
114.513
114.883
115.266
115.661
116.069
116.488
116.919
117.362
117.817
118.283
118.761
119.251
119.752
120.264
120.787
121.321
121.866
122.422
122.988
123.565
124.152
124.749
125.356
125.972
126.599
127.234
127.878
128.532
129.193
129.863
130.541
131.226
131.919
132.618
133.324
134.035
134.753
135.475
136.201
136.932
137.665
138.401
139.139
139.877
140.615
141.352
142.086
142.816
143.541
144.258
144.965
145.66
146.339
146.999
147.639
148.254
148.844
149.406
149.937
150.434
150.895
151.316
151.694
152.026
152.309
152.543
152.727
152.864
152.959
153.02
153.051
153.077
108.911
108.921
108.945
108.983
109.034
109.098
109.174
109.263
109.365
109.479
109.606
109.746
109.898
110.063
110.241
110.431
110.634
110.849
111.077
111.318
111.571
111.836
112.114
112.405
112.707
113.022
113.35
113.689
114.041
114.404
114.78
115.168
115.567
115.979
116.402
116.836
117.283
117.74
118.209
118.689
119.181
119.683
120.196
120.72
121.255
121.8
122.355
122.921
123.497
124.083
124.678
125.283
125.897
126.52
127.152
127.793
128.442
129.099
129.764
130.436
131.116
131.802
132.494
133.192
133.896
134.604
135.317
136.033
136.753
137.474
138.198
138.921
139.645
140.367
141.086
141.801
142.51
143.212
143.904
144.583
145.246
145.891
146.514
147.114
147.689
148.236
148.752
149.236
149.684
150.094
150.463
150.788
151.066
151.297
151.479
151.616
151.71
151.771
151.803
151.829
108.522
108.532
108.556
108.594
108.644
108.706
108.781
108.868
108.968
109.08
109.205
109.342
109.491
109.653
109.827
110.014
110.213
110.424
110.648
110.884
111.132
111.392
111.665
111.949
112.246
112.555
112.876
113.209
113.553
113.91
114.278
114.658
115.05
115.453
115.867
116.293
116.731
117.179
117.638
118.109
118.59
119.083
119.585
120.099
120.622
121.156
121.701
122.255
122.819
123.392
123.976
124.568
125.169
125.78
126.399
127.026
127.662
128.305
128.956
129.615
130.28
130.951
131.629
132.312
133.001
133.694
134.392
135.092
135.796
136.502
137.209
137.916
138.623
139.328
140.03
140.728
141.421
142.105
142.78
143.441
144.087
144.714
145.319
145.901
146.458
146.988
147.488
147.957
148.391
148.788
149.145
149.461
149.733
149.96
150.141
150.277
150.372
150.434
150.466
150.493
108.122
108.131
108.155
108.191
108.241
108.302
108.375
108.461
108.558
108.668
108.791
108.925
109.071
109.23
109.401
109.584
109.779
109.986
110.205
110.436
110.679
110.934
111.201
111.48
111.77
112.073
112.387
112.713
113.051
113.4
113.76
114.132
114.516
114.91
115.316
115.733
116.161
116.6
117.05
117.51
117.981
118.463
118.955
119.457
119.969
120.492
121.024
121.566
122.118
122.679
123.249
123.828
124.416
125.013
125.618
126.232
126.853
127.482
128.118
128.761
129.411
130.067
130.728
131.396
132.068
132.745
133.425
134.109
134.795
135.483
136.172
136.862
137.55
138.236
138.92
139.598
140.271
140.936
141.591
142.233
142.859
143.465
144.051
144.613
145.15
145.661
146.143
146.593
147.011
147.393
147.738
148.043
148.307
148.528
148.706
148.841
148.937
149
149.033
149.062
107.709
107.718
107.741
107.777
107.825
107.885
107.957
108.041
108.137
108.244
108.364
108.495
108.639
108.794
108.961
109.14
109.331
109.534
109.748
109.974
110.212
110.462
110.723
110.996
111.28
111.576
111.884
112.203
112.533
112.874
113.227
113.591
113.965
114.351
114.748
115.156
115.574
116.003
116.443
116.893
117.353
117.824
118.305
118.795
119.296
119.806
120.326
120.855
121.394
121.942
122.498
123.064
123.638
124.22
124.811
125.409
126.015
126.628
127.248
127.875
128.509
129.148
129.793
130.442
131.097
131.756
132.418
133.083
133.75
134.419
135.088
135.757
136.425
137.09
137.753
138.41
139.061
139.704
140.337
140.957
141.56
142.144
142.707
143.247
143.762
144.251
144.712
145.142
145.541
145.906
146.235
146.527
146.78
146.993
147.166
147.3
147.395
147.459
147.493
147.523
107.284
107.293
107.315
107.351
107.398
107.457
107.527
107.609
107.702
107.808
107.925
108.053
108.194
108.346
108.509
108.684
108.871
109.069
109.279
109.5
109.732
109.976
110.232
110.499
110.776
111.066
111.366
111.678
112
112.334
112.678
113.034
113.4
113.777
114.164
114.562
114.971
115.389
115.819
116.258
116.707
117.166
117.635
118.114
118.602
119.1
119.607
120.123
120.648
121.182
121.725
122.275
122.835
123.402
123.977
124.559
125.149
125.745
126.349
126.958
127.574
128.195
128.822
129.453
130.088
130.727
131.369
132.014
132.66
133.308
133.955
134.602
135.248
135.89
136.529
137.163
137.79
138.408
139.017
139.611
140.19
140.749
141.286
141.801
142.291
142.755
143.191
143.599
143.976
144.32
144.63
144.906
145.146
145.349
145.514
145.643
145.736
145.8
145.835
145.866
106.847
106.856
106.878
106.912
106.959
107.016
107.085
107.165
107.256
107.359
107.474
107.599
107.736
107.885
108.045
108.216
108.398
108.592
108.796
109.012
109.24
109.478
109.727
109.987
110.259
110.541
110.834
111.138
111.453
111.779
112.115
112.461
112.819
113.186
113.564
113.952
114.351
114.759
115.177
115.605
116.043
116.491
116.947
117.414
117.889
118.374
118.867
119.37
119.881
120.4
120.927
121.463
122.007
122.558
123.116
123.682
124.255
124.834
125.419
126.01
126.607
127.209
127.816
128.427
129.042
129.66
130.28
130.903
131.527
132.151
132.775
133.398
134.018
134.635
135.248
135.856
136.456
137.048
137.629
138.196
138.746
139.277
139.786
140.271
140.733
141.168
141.578
141.958
142.309
142.63
142.918
143.174
143.397
143.586
143.74
143.862
143.951
144.012
144.046
144.077
106.399
106.408
106.429
106.463
106.508
106.564
106.631
106.709
106.798
106.899
107.011
107.133
107.267
107.412
107.568
107.735
107.913
108.102
108.302
108.512
108.734
108.966
109.209
109.463
109.728
110.003
110.289
110.585
110.892
111.209
111.537
111.875
112.223
112.581
112.949
113.327
113.715
114.112
114.519
114.936
115.362
115.797
116.241
116.695
117.157
117.628
118.107
118.595
119.092
119.596
120.108
120.628
121.155
121.689
122.231
122.779
123.333
123.894
124.46
125.032
125.609
126.19
126.776
127.365
127.958
128.553
129.151
129.749
130.349
130.948
131.546
132.143
132.736
133.326
133.91
134.489
135.06
135.621
136.172
136.708
137.227
137.726
138.202
138.655
139.084
139.488
139.865
140.215
140.536
140.828
141.09
141.322
141.523
141.693
141.833
141.944
142.025
142.082
142.113
142.144
105.94
105.948
105.969
106.002
106.046
106.1
106.166
106.242
106.329
106.427
106.536
106.656
106.786
106.927
107.079
107.242
107.416
107.6
107.794
108
108.216
108.442
108.679
108.926
109.184
109.452
109.73
110.019
110.318
110.626
110.945
111.274
111.612
111.961
112.319
112.686
113.063
113.449
113.845
114.25
114.663
115.086
115.518
115.958
116.406
116.863
117.328
117.801
118.282
118.77
119.266
119.769
120.279
120.796
121.32
121.849
122.385
122.926
123.472
124.023
124.579
125.139
125.702
126.269
126.838
127.409
127.981
128.554
129.127
129.699
130.27
130.837
131.402
131.961
132.515
133.061
133.6
134.128
134.645
135.146
135.63
136.094
136.534
136.95
137.342
137.709
138.049
138.363
138.65
138.908
139.138
139.34
139.514
139.66
139.78
139.875
139.944
139.994
140.02
140.05
105.469
105.478
105.498
105.53
105.573
105.626
105.69
105.764
105.849
105.944
106.05
106.167
106.294
106.432
106.58
106.738
106.907
107.086
107.276
107.475
107.685
107.906
108.136
108.377
108.627
108.888
109.159
109.439
109.73
110.03
110.339
110.659
110.988
111.326
111.673
112.03
112.396
112.771
113.155
113.547
113.949
114.358
114.776
115.203
115.637
116.079
116.529
116.987
117.452
117.924
118.403
118.889
119.381
119.88
120.384
120.894
121.41
121.93
122.456
122.985
123.519
124.055
124.595
125.137
125.681
126.226
126.772
127.318
127.863
128.405
128.946
129.483
130.015
130.541
131.061
131.573
132.076
132.568
133.047
133.51
133.955
134.378
134.778
135.152
135.502
135.826
136.124
136.396
136.641
136.86
137.051
137.217
137.357
137.474
137.568
137.641
137.693
137.73
137.749
137.776
104.988
104.997
105.016
105.047
105.089
105.141
105.203
105.275
105.358
105.451
105.554
105.667
105.791
105.924
106.068
106.222
106.387
106.561
106.745
106.939
107.144
107.358
107.582
107.815
108.059
108.312
108.575
108.847
109.129
109.42
109.721
110.03
110.349
110.677
111.014
111.36
111.715
112.078
112.449
112.829
113.218
113.614
114.018
114.43
114.85
115.277
115.712
116.153
116.602
117.057
117.519
117.986
118.46
118.94
119.425
119.915
120.409
120.909
121.412
121.918
122.428
122.941
123.456
123.972
124.489
125.007
125.524
126.041
126.555
127.067
127.575
128.078
128.576
129.067
129.55
130.024
130.488
130.939
131.377
131.798
132.199
132.578
132.932
133.259
133.56
133.835
134.084
134.307
134.504
134.674
134.82
134.941
135.039
135.118
135.178
135.222
135.252
135.272
135.28
135.303
104.497
104.505
104.524
104.554
104.595
104.645
104.705
104.776
104.856
104.946
105.046
105.157
105.277
105.407
105.546
105.696
105.855
106.025
106.203
106.392
106.59
106.798
107.015
107.242
107.478
107.724
107.978
108.242
108.515
108.798
109.089
109.389
109.698
110.015
110.341
110.676
111.019
111.37
111.729
112.096
112.471
112.854
113.244
113.642
114.046
114.458
114.876
115.301
115.733
116.171
116.614
117.063
117.518
117.978
118.442
118.911
119.384
119.861
120.341
120.824
121.309
121.796
122.284
122.774
123.263
123.751
124.239
124.724
125.206
125.684
126.158
126.626
127.086
127.539
127.982
128.415
128.835
129.243
129.635
130.009
130.362
130.691
130.993
131.266
131.512
131.731
131.923
132.089
132.228
132.342
132.431
132.498
132.545
132.576
132.592
132.599
132.598
132.595
132.588
132.603
103.996
104.003
104.022
104.051
104.091
104.14
104.198
104.266
104.344
104.432
104.529
104.636
104.752
104.878
105.014
105.159
105.314
105.478
105.651
105.834
106.026
106.227
106.438
106.657
106.886
107.124
107.37
107.626
107.89
108.163
108.445
108.735
109.033
109.34
109.655
109.978
110.309
110.648
110.994
111.348
111.71
112.078
112.454
112.837
113.226
113.622
114.024
114.432
114.846
115.265
115.69
116.12
116.555
116.994
117.437
117.884
118.335
118.788
119.244
119.702
120.161
120.622
121.082
121.543
122.003
122.461
122.916
123.368
123.816
124.259
124.695
125.125
125.545
125.957
126.357
126.745
127.119
127.478
127.82
128.143
128.442
128.715
128.959
129.172
129.355
129.51
129.636
129.734
129.805
129.851
129.873
129.874
129.857
129.828
129.789
129.747
129.705
129.671
129.642
129.648
103.484
103.492
103.51
103.539
103.577
103.624
103.681
103.747
103.822
103.907
104.001
104.105
104.218
104.34
104.471
104.612
104.761
104.92
105.088
105.265
105.451
105.645
105.849
106.061
106.282
106.512
106.751
106.998
107.253
107.516
107.788
108.068
108.356
108.652
108.956
109.267
109.586
109.912
110.246
110.586
110.934
111.288
111.649
112.016
112.389
112.769
113.154
113.545
113.94
114.341
114.747
115.157
115.571
115.989
116.411
116.835
117.262
117.691
118.122
118.554
118.986
119.419
119.851
120.281
120.71
121.135
121.557
121.975
122.386
122.791
123.189
123.577
123.955
124.322
124.676
125.015
125.339
125.646
125.933
126.199
126.439
126.649
126.828
126.974
127.086
127.166
127.215
127.235
127.226
127.191
127.131
127.051
126.956
126.851