/*--------------------------------*- C++ -*----------------------------------*\
| =========                 |                                                 |
| \\      /  F ield         | OpenFOAM: The Open Source CFD Toolbox           |
|  \\    /   O peration     | Version:  4.1                                   |
|   \\  /    A nd           | Web:      www.OpenFOAM.org                      |
|    \\/     M anipulation  |                                                 |
\*---------------------------------------------------------------------------*/
FoamFile
{
    version     2.0;
    format      ascii;
    class       surfaceScalarField;
    location    "0.2";
    object      phi;
}
// * * * * * * * * * * * * * * * * * * * * * * * * * * * * * * * * * * * * * //

dimensions      [0 3 -1 0 0 0 0];

internalField   nonuniform List<scalar> 
87025
(
0.0199663
3.37058e-05
0.0199094
5.68786e-05
0.0198409
6.8503e-05
0.0197628
7.8121e-05
0.0196756
8.71591e-05
0.0195802
9.54123e-05
0.0194773
0.000102933
0.0193673
0.000110006
0.0192504
0.000116838
0.0191269
0.000123509
0.0189969
0.000130054
0.0188604
0.00013651
0.0187174
0.000142921
0.0185681
0.000149322
0.0184124
0.000155741
0.0182502
0.000162204
0.0180814
0.000168733
0.0179061
0.000175347
0.017724
0.000182065
0.0175351
0.000188903
0.0173393
0.000195872
0.0171363
0.000202983
0.016926
0.000210247
0.0167084
0.000217676
0.0164831
0.000225279
0.01625
0.000233067
0.016009
0.000241051
0.0157597
0.000249241
0.0155021
0.000257649
0.0152358
0.000266281
0.0149606
0.000275144
0.0146764
0.000284235
0.0143829
0.000293552
0.0140798
0.000303077
0.013767
0.000312781
0.0134444
0.000322621
0.0131118
0.000332534
0.0127694
0.000342438
0.0124172
0.000352228
0.0120554
0.000361777
0.0116845
0.000370932
0.011305
0.000379516
0.0109176
0.000387332
0.0105235
0.000394168
0.0101237
0.000399804
0.00971963
0.000404023
0.009313
0.000406627
0.00890555
0.000407454
0.00849916
0.000406391
0.00809576
0.0004034
0.00769723
0.000398525
0.00730532
0.000391912
0.00692151
0.000383813
0.00654692
0.000374584
0.00618224
0.000364679
0.00582762
0.000354626
0.00548262
0.000344994
0.00514629
0.000336332
0.0048172
0.000329097
0.00449365
0.000323551
0.00417398
0.000319666
0.0038569
0.000317084
0.0035417
0.0003152
0.00322834
0.000313357
0.00291725
0.000311091
0.00260897
0.000308274
0.00230387
0.0003051
0.00200195
0.000301926
0.00170285
0.000299094
0.00140605
0.0002968
0.00111106
0.000294991
0.000817764
0.000293299
0.000526721
0.000291043
0.000239324
0.000287397
-4.23558e-05
0.00028168
-0.000315952
0.000273596
-0.000579324
0.000263372
-0.00083063
0.000251306
-0.00106842
0.000237791
-0.00129161
0.000223185
-0.00149948
0.000207876
-0.00169167
0.000192186
-0.0018679
0.000176237
-0.00202774
0.000159836
-0.00217023
0.000142484
-0.0022937
0.000123473
-0.00239627
0.000102574
-0.00247391
7.76396e-05
-0.00251733
4.34221e-05
-0.00251244
-4.89874e-06
-0.00245612
-5.63191e-05
-0.00234859
-0.000107529
-0.00219288
-0.000155705
-0.00199143
-0.000201456
-0.00174669
-0.000244736
-0.00146238
-0.000284315
-0.00114359
-0.000318791
-0.000793821
-0.000349764
-0.000405193
-0.000388628
-0.000405193
0.0200238
9.86524e-06
0.0200532
2.74937e-05
0.020082
3.97652e-05
0.0201101
4.99728e-05
0.0201372
6.00343e-05
0.0201627
6.99682e-05
0.020186
7.95868e-05
0.020207
8.90003e-05
0.0202255
9.8383e-05
0.0202412
0.00010782
0.0202539
0.000117338
0.0202634
0.000126962
0.0202696
0.000136721
0.0202723
0.000146644
0.0202713
0.000156758
0.0202664
0.000167084
0.0202575
0.000177648
0.0202444
0.000188474
0.0202269
0.000199589
0.0202047
0.000211019
0.0201778
0.000222793
0.0201459
0.000234934
0.0201086
0.000247472
0.0200659
0.000260436
0.0200173
0.000273858
0.0199626
0.000287769
0.0199014
0.000302203
0.0198335
0.000317194
0.0197584
0.000332776
0.0196757
0.000348984
0.019585
0.000365851
0.0194858
0.00038341
0.0193777
0.000401685
0.01926
0.000420698
0.0191324
0.000440454
0.018994
0.000460949
0.0188444
0.000482155
0.0186828
0.000504024
0.0185086
0.000526478
0.0183209
0.000549404
0.0181192
0.000572654
0.0179027
0.000596037
0.0176707
0.000619318
0.0174227
0.000642223
0.017158
0.00066444
0.0168764
0.000685631
0.0165776
0.000705448
0.0162615
0.00072355
0.0159283
0.000739631
0.0155782
0.000753448
0.0152119
0.000764845
0.01483
0.000773782
0.0144335
0.000780351
0.0140233
0.000784788
0.0136005
0.00078747
0.0131662
0.000788884
0.0127216
0.000789588
0.0122678
0.000790138
0.0118059
0.000791009
0.011337
0.0007925
0.010862
0.000794662
0.0103818
0.000797266
0.00989714
0.000799849
0.00940866
0.00080184
0.00891703
0.000802717
0.00842316
0.000802141
0.00792824
0.000800021
0.00743368
0.000796487
0.00694097
0.000791808
0.00645152
0.000786249
0.00596663
0.000779879
0.00548756
0.000772373
0.00501567
0.00076293
0.00455262
0.000750445
0.00410037
0.000733929
0.00366102
0.000712946
0.0032366
0.000687798
0.00282863
0.000659273
0.00243808
0.000628344
0.00206538
0.000595885
0.00171075
0.000562503
0.00137453
0.000528409
0.00105744
0.000493322
0.000760769
0.000456508
0.000486323
0.00041693
0.000236424
0.000373372
1.45703e-05
0.000324428
-0.000175988
0.000268198
-0.000335839
0.000203273
-0.000471948
0.00013121
-0.000581798
5.35306e-05
-0.000661441
-2.78858e-05
-0.000705983
-0.000111163
-0.000712294
-0.000195145
-0.000678326
-0.000278703
-0.000604685
-0.000357956
-0.000494718
-0.000428758
-0.000357719
-0.000486763
-0.000201865
-0.000544481
-0.000607059
0.0200003
9.5193e-06
0.0200001
2.77614e-05
0.0199964
4.34259e-05
0.0199892
5.72159e-05
0.0199788
7.03733e-05
0.0199655
8.32688e-05
0.0199493
9.58365e-05
0.0199302
0.00010811
0.0199083
0.000120221
0.0198839
0.00013227
0.0198569
0.000144298
0.0198276
0.000156334
0.0197959
0.000168408
0.019762
0.000180552
0.0197259
0.000192796
0.0196878
0.000205165
0.0196478
0.000217686
0.0196059
0.000230387
0.0195622
0.000243296
0.0195168
0.000256441
0.0194697
0.000269853
0.0194211
0.000283564
0.0193709
0.000297607
0.0193194
0.000312018
0.0192664
0.000326835
0.019212
0.000342098
0.0191564
0.000357848
0.0190995
0.000374129
0.0190413
0.000390987
0.0189818
0.00040847
0.018921
0.000426623
0.0188589
0.000445497
0.0187955
0.000465138
0.0187306
0.000485591
0.0186641
0.000506896
0.018596
0.000529085
0.018526
0.000552182
0.0184538
0.000576198
0.0183791
0.000601125
0.0183016
0.000626938
0.0182207
0.000653585
0.0181357
0.000680986
0.018046
0.000709029
0.0179507
0.000737568
0.0178487
0.000766423
0.0177389
0.000795383
0.0176202
0.000824213
0.0174911
0.000852665
0.0173502
0.000880491
0.0171962
0.000907469
0.0170276
0.00093342
0.0168431
0.000958232
0.0166416
0.000981867
0.016422
0.0010044
0.0161835
0.001026
0.0159254
0.00104693
0.0156475
0.00106752
0.0153496
0.00108808
0.0150317
0.00110887
0.0146942
0.00113004
0.0143373
0.00115151
0.0139616
0.00117302
0.0135673
0.00119407
0.0131551
0.00121409
0.0127254
0.00123245
0.0122789
0.00124861
0.0118167
0.00126218
0.0113404
0.00127287
0.0108516
0.00128051
0.0103529
0.00128496
0.00984683
0.00128598
0.00933607
0.00128313
0.00882327
0.00127573
0.00831082
0.0012629
0.00780098
0.00124377
0.00729615
0.00121778
0.00679903
0.00118491
0.00631255
0.00114576
0.00583936
0.00110153
0.00538137
0.00105387
0.00493939
0.00100449
0.00451321
0.000954583
0.00410216
0.000904378
0.0037057
0.000852967
0.00332398
0.000798644
0.0029579
0.000739455
0.00260868
0.000673647
0.00227702
0.00059986
0.00196298
0.000517319
0.00166769
0.0004265
0.00139234
0.000328877
0.00113853
0.000225926
0.000908464
0.000118899
0.000702357
1.09618e-05
0.000524476
-0.000100822
0.000374576
-0.000208056
0.000251157
-0.000305339
0.000151366
-0.000386972
6.6448e-05
-0.000459563
-0.000540611
0.0199995
9.98867e-06
0.0199975
2.97693e-05
0.0199926
4.83743e-05
0.019984
6.57458e-05
0.019972
8.24326e-05
0.0199565
9.87936e-05
0.0199374
0.000114877
0.0199148
0.000130695
0.0198887
0.000146324
0.0198592
0.00016185
0.0198261
0.000177324
0.0197897
0.000192778
0.0197498
0.000208242
0.0197067
0.000223747
0.0196601
0.000239322
0.0196103
0.000254993
0.0195572
0.000270784
0.0195009
0.00028672
0.0194413
0.000302827
0.0193786
0.000319128
0.0193128
0.000335652
0.019244
0.000352424
0.0191721
0.000369471
0.0190973
0.000386822
0.0190197
0.000404505
0.0189392
0.000422551
0.0188561
0.00044099
0.0187703
0.000459852
0.0186822
0.00047917
0.0185916
0.000498975
0.018499
0.000519297
0.0184043
0.000540166
0.0183078
0.00056161
0.0182098
0.000583654
0.0181103
0.00060632
0.0180098
0.000629624
0.0179084
0.000653575
0.0178064
0.000678176
0.0177041
0.000703419
0.0176018
0.000729286
0.0174996
0.000755749
0.0173978
0.000782766
0.0172966
0.000810282
0.0171959
0.00083823
0.0170958
0.000866529
0.0169961
0.000895092
0.0168965
0.000923826
0.0167965
0.000952638
0.0166956
0.000981446
0.0165929
0.00101019
0.0164874
0.00103884
0.0163783
0.00106739
0.0162642
0.00109592
0.0161441
0.00112452
0.0160167
0.00115339
0.0158809
0.00118274
0.0157356
0.00121281
0.0155798
0.00124385
0.0154127
0.00127605
0.0152332
0.0013095
0.0150406
0.00134414
0.0148338
0.00137976
0.0146119
0.00141597
0.0143738
0.00145226
0.0141182
0.00148804
0.0138441
0.00152271
0.0135506
0.00155568
0.0132371
0.00158637
0.0129034
0.00161421
0.0125498
0.00163857
0.012177
0.00165871
0.0117864
0.00167378
0.0113793
0.0016828
0.0109575
0.00168476
0.0105224
0.00167882
0.0100758
0.00166441
0.00961932
0.00164136
0.00915525
0.00160984
0.00868639
0.00157039
0.00821625
0.00152402
0.00774844
0.00147229
0.00728589
0.00141714
0.00682997
0.0013603
0.00638041
0.00130253
0.00593593
0.00124312
0.00549526
0.00118012
0.00505778
0.00111113
0.00462342
0.00103422
0.00419228
0.000948461
0.00376473
0.000854044
0.00334168
0.000751929
0.00292452
0.00064309
0.00251496
0.00052846
0.00211662
0.000409293
0.00172888
0.000286927
0.00135431
0.000166508
0.000994729
5.42439e-05
0.000651423
-4.36656e-05
0.000321598
-0.000129738
-0.000219013
0.019999
1.09833e-05
0.0199958
3.29509e-05
0.0199899
5.43308e-05
0.0199807
7.49349e-05
0.0199682
9.49505e-05
0.0199523
0.000114618
0.0199332
0.00013403
0.0199107
0.000153213
0.0198848
0.000172214
0.0198555
0.000191101
0.0198229
0.000209928
0.019787
0.000228733
0.0197477
0.000247548
0.019705
0.000266404
0.019659
0.000285332
0.0196096
0.000304362
0.0195569
0.000323519
0.0195008
0.000342832
0.0194413
0.000362327
0.0193784
0.000382032
0.019312
0.000401975
0.0192423
0.000422183
0.0191691
0.000442685
0.0190924
0.000463508
0.0190122
0.000484681
0.0189285
0.000506232
0.0188413
0.000528189
0.0187506
0.000550577
0.0186564
0.00057342
0.0185586
0.000596742
0.0184573
0.00062056
0.0183526
0.000644892
0.0182445
0.000669748
0.018133
0.000695134
0.0180183
0.000721052
0.0179004
0.000747493
0.0177795
0.000774443
0.0176558
0.000801878
0.0175295
0.000829764
0.0174007
0.000858058
0.0172697
0.000886707
0.0171369
0.00091565
0.0170023
0.000944817
0.0168664
0.000974131
0.0167294
0.00100351
0.0165916
0.00103289
0.0164533
0.00106218
0.0163146
0.00109133
0.0161757
0.0011203
0.0160369
0.00114908
0.015898
0.0011777
0.0157591
0.00120623
0.0156203
0.00123478
0.0154813
0.00126351
0.0153421
0.00129262
0.0152025
0.00132236
0.0150623
0.00135298
0.0149214
0.00138473
0.0147796
0.00141782
0.0146367
0.00145241
0.0144923
0.00148855
0.0143459
0.00152619
0.0141967
0.00156518
0.0140437
0.00160525
0.0138857
0.00164604
0.0137212
0.00168717
0.0135487
0.00172817
0.0133666
0.00176852
0.0131732
0.00180763
0.012967
0.00184478
0.0127466
0.00187909
0.0125109
0.00190952
0.0122588
0.00193487
0.0119896
0.00195398
0.0117025
0.00196586
0.0113969
0.00197
0.011072
0.00196632
0.0107268
0.00195504
0.0103608
0.00193633
0.0099747
0.00191014
0.00957053
0.00187646
0.00915179
0.00183587
0.00872229
0.0017898
0.00828472
0.0017401
0.00783977
0.00168808
0.00738626
0.00163363
0.00692217
0.00157522
0.00644558
0.00151081
0.00595517
0.00143888
0.00545032
0.00135889
0.0049312
0.00127106
0.00439855
0.00117573
0.00385387
0.00107314
0.00329956
0.000963601
0.00273848
0.000848011
0.00217602
0.000728965
0.00161926
0.00061101
0.00107435
0.000501242
0.000535795
0.000408817
0.000316783
0.0199988
1.22288e-05
0.019995
3.66943e-05
0.0199885
6.08336e-05
0.019979
8.44882e-05
0.0199662
0.000107699
0.0199502
0.000130596
0.019931
0.000153264
0.0199085
0.000175735
0.0198826
0.000198045
0.0198535
0.000220242
0.0198211
0.000242374
0.0197853
0.000264479
0.0197463
0.000286589
0.0197039
0.000308736
0.0196583
0.000330953
0.0196094
0.00035327
0.0195572
0.000375716
0.0195017
0.000398322
0.0194429
0.000421117
0.0193808
0.000444131
0.0193154
0.000467396
0.0192467
0.000490941
0.0191745
0.000514799
0.019099
0.000539001
0.0190201
0.000563578
0.0189378
0.000588559
0.018852
0.000613975
0.0187628
0.000639853
0.01867
0.000666218
0.0185736
0.000693092
0.0184737
0.000720492
0.0183701
0.000748433
0.018263
0.000776924
0.0181521
0.000805965
0.0180376
0.000835554
0.0179194
0.000865676
0.0177976
0.00089631
0.017672
0.000927425
0.0175428
0.000958979
0.01741
0.000990922
0.0172735
0.00102319
0.0171334
0.00105572
0.0169898
0.00108843
0.0168427
0.00112123
0.0166922
0.00115403
0.0165383
0.00118675
0.0163812
0.0012193
0.0162209
0.00125161
0.0160576
0.00128361
0.0158914
0.00131528
0.0157225
0.00134661
0.0155511
0.00137763
0.0153775
0.00140841
0.0152019
0.00143905
0.0150248
0.00146971
0.0148466
0.00150056
0.0146678
0.00153178
0.014489
0.00156356
0.0143107
0.00159608
0.0141337
0.00162948
0.0139584
0.00166382
0.0137854
0.00169915
0.0136152
0.00173543
0.0134479
0.00177256
0.0132835
0.00181041
0.0131218
0.00184881
0.0129625
0.00188752
0.0128047
0.00192628
0.0126477
0.00196471
0.0124901
0.00200235
0.0123306
0.00203854
0.0121677
0.00207244
0.0119996
0.00210301
0.0118245
0.00212911
0.0116405
0.00214982
0.0114457
0.00216479
0.0112375
0.00217449
0.0110126
0.00217997
0.0107668
0.00218216
0.010496
0.00218096
0.0101974
0.00217499
0.00987099
0.00216231
0.00951893
0.00214185
0.00914475
0.00211428
0.00875121
0.00208162
0.00833893
0.00204591
0.00790626
0.00200788
0.00745024
0.00196684
0.0069677
0.00192141
0.00645612
0.00187047
0.00591382
0.00181336
0.00534003
0.00174952
0.00473514
0.00167803
0.00410108
0.00159767
0.00344174
0.00150735
0.00276351
0.00140719
0.0020746
0.00129993
0.00138299
0.00119285
0.000691702
0.00110011
0.00100848
0.0199986
1.35804e-05
0.0199946
4.07373e-05
0.0199877
6.77005e-05
0.0199779
9.43573e-05
0.0199649
0.000120695
0.0199487
0.000146771
0.0199293
0.000172644
0.0199067
0.000198347
0.0198808
0.000223907
0.0198517
0.00024936
0.0198194
0.000274748
0.0197837
0.000300106
0.0197448
0.000325468
0.0197027
0.000350865
0.0196573
0.00037633
0.0196087
0.000401895
0.0195568
0.000427591
0.0195017
0.000453449
0.0194433
0.000479501
0.0193817
0.00050578
0.0193168
0.000532318
0.0192486
0.000559148
0.019177
0.000586303
0.0191022
0.000613817
0.0190241
0.000641723
0.0189426
0.000670052
0.0188577
0.000698836
0.0187695
0.000728104
0.0186778
0.000757879
0.0185827
0.000788186
0.0184842
0.000819042
0.0183822
0.00085046
0.0182766
0.00088245
0.0181676
0.000915012
0.018055
0.000948144
0.0179388
0.000981831
0.0178191
0.00101605
0.0176957
0.00105079
0.0175687
0.00108599
0.017438
0.00112161
0.0173036
0.00115761
0.0171654
0.00119391
0.0170234
0.00123046
0.0168774
0.00126718
0.0167275
0.00130399
0.0165734
0.00134082
0.0164151
0.00137757
0.0162525
0.00141419
0.0160855
0.00145061
0.015914
0.00148678
0.015738
0.00152268
0.0155573
0.00155828
0.0153721
0.00159362
0.0151824
0.00162873
0.0149885
0.00166366
0.0147905
0.00169851
0.014589
0.00173334
0.0143843
0.00176825
0.0141771
0.0018033
0.013968
0.00183852
0.0137579
0.00187394
0.0135475
0.00190951
0.0133378
0.00194518
0.0131295
0.00198085
0.0129235
0.00201641
0.0127206
0.00205174
0.0125214
0.0020867
0.0123266
0.00212113
0.0121364
0.00215484
0.0119512
0.00218756
0.0117708
0.00221892
0.0115949
0.00224837
0.0114228
0.00227513
0.0112537
0.00229825
0.0110865
0.00231697
0.01092
0.00233129
0.010752
0.00234249
0.0105789
0.00235304
0.0103955
0.00236559
0.0101952
0.00238125
0.00997181
0.00239839
0.00972112
0.002413
0.00944212
0.00242085
0.0091365
0.0024199
0.00880682
0.0024113
0.00845451
0.00239821
0.00807869
0.00238371
0.00767631
0.00236922
0.00724314
0.00235458
0.00677475
0.00233886
0.00626716
0.00232095
0.00571716
0.00229952
0.00512268
0.00227251
0.0044834
0.00223694
0.00380146
0.00218929
0.00308203
0.00212662
0.00233328
0.00204867
0.00156541
0.00196072
0.000786351
0.00187916
0.00179484
0.0199986
1.49887e-05
0.0199944
4.4957e-05
0.0199873
7.48013e-05
0.0199772
0.000104443
0.019964
0.000133856
0.0199477
0.000163059
0.0199283
0.000192087
0.0199057
0.000220969
0.0198799
0.000249727
0.0198508
0.000278391
0.0198186
0.000306993
0.0197831
0.000335567
0.0197444
0.000364146
0.0197025
0.000392762
0.0196574
0.000421446
0.0196091
0.000450231
0.0195575
0.00047915
0.0195027
0.000508234
0.0194447
0.000537519
0.0193835
0.000567037
0.019319
0.000596822
0.0192512
0.000626911
0.0191802
0.000657337
0.0191058
0.000688136
0.0190282
0.000719343
0.0189473
0.000750991
0.018863
0.000783111
0.0187754
0.000815732
0.0186844
0.00084888
0.01859
0.000882578
0.0184922
0.000916842
0.018391
0.000951685
0.0182863
0.000987115
0.0181782
0.00102313
0.0180666
0.00105973
0.0179515
0.0010969
0.017833
0.00113462
0.0177109
0.00117287
0.0175852
0.00121161
0.0174561
0.00125079
0.0173233
0.00129039
0.0171869
0.00133034
0.0170467
0.0013706
0.0169028
0.0014111
0.016755
0.00145179
0.0166032
0.0014926
0.0164473
0.00153348
0.0162871
0.00157438
0.0161225
0.00161524
0.0159533
0.00165603
0.0157792
0.00169671
0.0156002
0.00173728
0.0154161
0.00177772
0.0152268
0.00181805
0.0150322
0.00185828
0.0148323
0.00189843
0.0146271
0.00193851
0.0144168
0.00197852
0.0142017
0.00201845
0.0139819
0.00205826
0.013758
0.00209785
0.0135304
0.00213711
0.0132997
0.0021759
0.0130665
0.00221403
0.0128316
0.00225131
0.0125958
0.00228753
0.01236
0.00232249
0.0121252
0.00235597
0.0118923
0.00238774
0.0116623
0.00241758
0.011436
0.00244517
0.0112143
0.00247008
0.0109978
0.00249166
0.0107869
0.00250909
0.0105821
0.0025218
0.0103833
0.00253011
0.0101897
0.00253604
0.00999939
0.00254339
0.00980837
0.00255661
0.00961118
0.00257844
0.0094017
0.00260787
0.00917475
0.00263995
0.00892739
0.00266821
0.00865911
0.00268818
0.00837079
0.00269961
0.0080631
0.00270591
0.00773517
0.00271164
0.0073842
0.00272019
0.00700578
0.002733
0.00659456
0.00275007
0.00614484
0.00277068
0.00565098
0.00279338
0.00510795
0.00281554
0.00451209
0.00283281
0.00386205
0.00283933
0.00315995
0.00282872
0.00241206
0.00279656
0.00162874
0.00274405
0.000821212
0.00268669
0.00261605
0.0199986
1.643e-05
0.0199942
4.92775e-05
0.019987
8.20399e-05
0.0199768
0.000114663
0.0199635
0.000147118
0.0199472
0.00017941
0.0199277
0.000211556
0.0199051
0.000243576
0.0198793
0.000275491
0.0198504
0.000307323
0.0198183
0.0003391
0.019783
0.000370853
0.0197445
0.000402613
0.0197029
0.000434411
0.019658
0.00046628
0.01961
0.000498253
0.0195588
0.000530362
0.0195044
0.000562643
0.0194468
0.000595129
0.019386
0.000627856
0.0193219
0.000660861
0.0192547
0.000694181
0.0191842
0.000727852
0.0191104
0.000761911
0.0190333
0.000796394
0.018953
0.000831336
0.0188693
0.00086677
0.0187823
0.000902726
0.018692
0.000939229
0.0185983
0.000976301
0.0185011
0.00101396
0.0184006
0.00105222
0.0182966
0.00109108
0.0181892
0.00113055
0.0180784
0.00117061
0.017964
0.00121126
0.0178461
0.00125248
0.0177248
0.00129424
0.0175999
0.0013365
0.0174714
0.00137924
0.0173394
0.00142242
0.0172038
0.00146599
0.0170644
0.0015099
0.0169214
0.00155412
0.0167746
0.0015986
0.0166239
0.00164329
0.0164693
0.00168815
0.0163105
0.00173313
0.0161475
0.00177822
0.0159802
0.00182337
0.0158083
0.00186858
0.0156318
0.00191382
0.0154504
0.00195911
0.015264
0.00200443
0.0150725
0.00204979
0.0148757
0.0020952
0.0146736
0.00214063
0.0144661
0.00218607
0.0142531
0.00223146
0.0140346
0.00227672
0.0138107
0.00232173
0.0135815
0.00236633
0.0133471
0.00241031
0.0131077
0.00245343
0.0128636
0.00249542
0.0126151
0.00253599
0.0123628
0.00257481
0.0121072
0.00261154
0.0118491
0.00264585
0.0115893
0.00267738
0.0113288
0.00270572
0.0110685
0.00273035
0.0108096
0.0027506
0.0105529
0.00276571
0.0102995
0.0027752
0.01005
0.00277968
0.00980442
0.00278158
0.00956244
0.00278537
0.00932267
0.00279638
0.00908275
0.00281836
0.0088396
0.00285102
0.00859001
0.00288954
0.00833138
0.00292684
0.0080621
0.00295746
0.00778135
0.00298036
0.00748845
0.0029988
0.00718214
0.00301795
0.00685995
0.00304238
0.00651804
0.00307491
0.00615124
0.00311687
0.00575329
0.00316863
0.00531716
0.00322951
0.00483554
0.00329715
0.00430164
0.00336671
0.00371033
0.00343064
0.00305974
0.00347931
0.00235275
0.00350355
0.00159799
0.0034988
0.000808242
0.00347644
0.00342429
0.0199985
1.78894e-05
0.0199942
5.36526e-05
0.0199869
8.93543e-05
0.0199766
0.000124956
0.0199632
0.000160434
0.0199469
0.000195783
0.0199274
0.000231012
0.0199049
0.000266135
0.0198792
0.000301166
0.0198504
0.000336127
0.0198184
0.00037104
0.0197834
0.000405933
0.0197451
0.000440837
0.0197038
0.000475783
0.0196592
0.000510803
0.0196116
0.000545929
0.0195607
0.000581197
0.0195067
0.000616642
0.0194496
0.000652299
0.0193892
0.000688207
0.0193257
0.000724402
0.0192589
0.000760924
0.019189
0.000797811
0.0191158
0.000835102
0.0190393
0.000872835
0.0189596
0.000911047
0.0188766
0.000949771
0.0187903
0.000989038
0.0187007
0.00102888
0.0186077
0.0010693
0.0185113
0.00111034
0.0184115
0.001152
0.0183083
0.00119429
0.0182016
0.0012372
0.0180915
0.00128074
0.0179779
0.00132488
0.0178608
0.0013696
0.0177401
0.0014149
0.0176159
0.00146072
0.0174881
0.00150705
0.0173566
0.00155384
0.0172216
0.00160107
0.0170828
0.00164868
0.0169403
0.00169665
0.0167939
0.00174494
0.0166437
0.00179351
0.0164895
0.00184233
0.0163313
0.00189137
0.0161689
0.0019406
0.0160023
0.00199001
0.0158313
0.00203958
0.0156558
0.00208931
0.0154757
0.00213919
0.0152909
0.00218921
0.0151013
0.00223939
0.0149068
0.00228972
0.0147072
0.00234017
0.0145026
0.00239073
0.0142927
0.00244133
0.0140775
0.0024919
0.0138569
0.00254232
0.0136309
0.00259242
0.0133991
0.00264201
0.0131617
0.00269084
0.0129185
0.00273862
0.0126695
0.00278501
0.0124147
0.00282965
0.0121541
0.00287212
0.0118879
0.00291199
0.0116165
0.00294878
0.0113403
0.00298195
0.0110598
0.00301085
0.0107757
0.00303472
0.0104886
0.00305281
0.010199
0.00306481
0.00990718
0.0030715
0.00961336
0.00307541
0.00931789
0.00308084
0.00902151
0.00309276
0.00872518
0.0031147
0.00842963
0.00314657
0.0081349
0.00318427
0.00784009
0.00322164
0.00754367
0.00325389
0.00724389
0.00328014
0.00693921
0.00330349
0.00662813
0.00332903
0.00630879
0.00336171
0.0059784
0.0034053
0.00563281
0.00346247
0.00526636
0.00353508
0.004872
0.00362388
0.00444151
0.00372764
0.00396616
0.00384206
0.00343789
0.00395891
0.00285109
0.0040661
0.00220477
0.00414988
0.00150456
0.00419901
0.00076282
0.00421818
0.00418711
0.0199985
1.93569e-05
0.0199941
5.80531e-05
0.0199868
9.67029e-05
0.0199765
0.000135278
0.0199631
0.00017376
0.0199468
0.00021214
0.0199274
0.00025042
0.0199049
0.000288611
0.0198793
0.000326723
0.0198507
0.000364774
0.0198189
0.000402786
0.0197841
0.000440783
0.0197461
0.000478795
0.0197051
0.000516853
0.0196609
0.000554989
0.0196136
0.000593235
0.0195631
0.000631629
0.0195096
0.000670205
0.0194529
0.000709001
0.019393
0.000748057
0.01933
0.000787411
0.0192638
0.000827105
0.0191945
0.000867179
0.0191219
0.000907674
0.0190461
0.00094863
0.0189671
0.000990084
0.0188848
0.00103207
0.0187992
0.00107463
0.0187103
0.00111778
0.018618
0.00116154
0.0185224
0.00120594
0.0184235
0.00125099
0.0183211
0.00129669
0.0182152
0.00134304
0.0181059
0.00139004
0.0179931
0.00143768
0.0178768
0.00148593
0.0177569
0.00153477
0.0176335
0.00158417
0.0175064
0.00163411
0.0173757
0.00168456
0.0172413
0.00173547
0.0171031
0.00178683
0.0169612
0.0018386
0.0168154
0.00189074
0.0166656
0.00194324
0.0165119
0.00199607
0.0163541
0.00204919
0.0161921
0.0021026
0.0160258
0.00215628
0.0158552
0.0022102
0.0156801
0.00226438
0.0155005
0.00231879
0.0153163
0.00237343
0.0151274
0.0024283
0.0149337
0.00248339
0.0147352
0.00253868
0.0145318
0.00259413
0.0143234
0.0026497
0.01411
0.00270531
0.0138915
0.00276086
0.0136677
0.00281622
0.0134385
0.00287121
0.0132037
0.00292561
0.0129632
0.00297916
0.0127167
0.00303155
0.0124639
0.00308243
0.0122046
0.00313139
0.0119386
0.00317798
0.0116657
0.00322168
0.0113858
0.00326191
0.0110987
0.00329795
0.0108044
0.003329
0.0105028
0.00335441
0.0101935
0.00337405
0.00987611
0.00338892
0.00955008
0.00340144
0.00921574
0.00341517
0.00887477
0.00343374
0.00853025
0.00345922
0.00818587
0.00349095
0.00784455
0.00352559
0.00750739
0.00355881
0.00717361
0.00358767
0.00684146
0.00361229
0.0065092
0.00363574
0.00617564
0.0036626
0.00583975
0.0036976
0.00550003
0.00374502
0.00515383
0.00380867
0.00479694
0.00389196
0.00442342
0.0039974
0.00402555
0.0041255
0.00359422
0.00427339
0.00311982
0.00443331
0.00259409
0.00459183
0.00201259
0.00473138
0.00137749
0.0048341
0.000699216
0.00489646
0.00488632
0.0199985
2.08263e-05
0.0199941
6.24593e-05
0.0199868
0.000104056
0.0199765
0.000145596
0.0199632
0.000187062
0.0199468
0.000228447
0.0199275
0.000269749
0.0199052
0.000310974
0.0198797
0.000352133
0.0198513
0.000393239
0.0198197
0.000434313
0.0197852
0.000475378
0.0197475
0.000516462
0.0197067
0.000557595
0.0196629
0.000598811
0.019616
0.000640143
0.019566
0.000681628
0.0195129
0.000723302
0.0194567
0.000765204
0.0193974
0.000807376
0.019335
0.000849858
0.0192694
0.000892693
0.0192006
0.000935923
0.0191287
0.000979592
0.0190536
0.00102374
0.0189753
0.00106841
0.0188937
0.00111364
0.0188089
0.00115945
0.0187208
0.00120589
0.0186293
0.00125297
0.0185346
0.00130072
0.0184364
0.00134913
0.0183349
0.00139824
0.0182299
0.00144802
0.0181215
0.00149848
0.0180095
0.0015496
0.0178941
0.00160138
0.0177751
0.00165377
0.0176525
0.00170677
0.0175262
0.00176034
0.0173963
0.00181446
0.0172627
0.0018691
0.0171253
0.00192423
0.0169841
0.00197982
0.016839
0.00203586
0.0166899
0.00209233
0.0165368
0.0021492
0.0163795
0.00220645
0.016218
0.00226407
0.0160523
0.00232204
0.0158821
0.00238036
0.0157075
0.00243901
0.0155283
0.00249798
0.0153445
0.00255726
0.0151559
0.00261684
0.0149626
0.00267669
0.0147645
0.00273681
0.0145615
0.00279714
0.0143536
0.00285763
0.0141406
0.00291823
0.0139227
0.00297884
0.0136996
0.00303933
0.0134712
0.00309956
0.0132375
0.00315935
0.0129981
0.00321848
0.012753
0.00327667
0.0125018
0.00333364
0.0122442
0.00338902
0.0119797
0.00344243
0.011708
0.00349339
0.0114286
0.00354137
0.0111408
0.00358568
0.0108442
0.00362561
0.010538
0.00366064
0.0102211
0.00369094
0.00989224
0.00371777
0.00955021
0.00374347
0.00919465
0.00377074
0.00882702
0.00380137
0.00845098
0.00383525
0.00807157
0.00387035
0.00769348
0.00390368
0.00731939
0.0039329
0.00694959
0.00395747
0.00658286
0.00397902
0.0062179
0.0040007
0.00585407
0.00402643
0.0054913
0.00406037
0.0051294
0.00410691
0.00476738
0.00417069
0.00440288
0.00425646
0.00403181
0.00436847
0.00364803
0.00450929
0.00324334
0.00467808
0.00280809
0.00486856
0.00233274
0.00506718
0.00181038
0.00525374
0.00123995
0.00540453
0.000629111
0.0055073
0.00551544
0.0199985
2.22927e-05
0.0199941
6.68569e-05
0.0199868
0.000111392
0.0199765
0.000155881
0.0199633
0.000200312
0.019947
0.000244676
0.0199278
0.000288971
0.0199056
0.000333199
0.0198804
0.00037737
0.0198521
0.000421496
0.0198208
0.000465595
0.0197865
0.000509691
0.0197492
0.000553811
0.0197088
0.000597984
0.0196653
0.000642244
0.0196188
0.000686626
0.0195693
0.000731166
0.0195167
0.000775904
0.019461
0.000820878
0.0194023
0.000866132
0.0193404
0.000911709
0.0192755
0.000957652
0.0192074
0.00100401
0.0191362
0.00105082
0.0190618
0.00109813
0.0189842
0.00114599
0.0189034
0.00119442
0.0188194
0.00124348
0.0187321
0.00129318
0.0186415
0.00134355
0.0185476
0.00139462
0.0184503
0.00144639
0.0183497
0.00149888
0.0182456
0.00155208
0.0181381
0.00160599
0.0180271
0.0016606
0.0179126
0.0017159
0.0177945
0.00177186
0.0176728
0.00182845
0.0175475
0.00188566
0.0174185
0.00194347
0.0172857
0.00200184
0.0171492
0.00206076
0.0170088
0.00212021
0.0168645
0.00218017
0.0167162
0.00224062
0.0165639
0.00230156
0.0164073
0.00236296
0.0162466
0.00242482
0.0160815
0.00248712
0.015912
0.00254986
0.015738
0.00261301
0.0155594
0.00267658
0.0153761
0.00274053
0.0151881
0.00280487
0.0149952
0.00286956
0.0147975
0.00293457
0.0145948
0.00299986
0.014387
0.00306538
0.0141742
0.00313105
0.0139562
0.0031968
0.0137331
0.00326251
0.0135046
0.00332804
0.0132707
0.00339325
0.0130312
0.00345794
0.012786
0.00352188
0.0125348
0.00358483
0.0122773
0.0036465
0.0120132
0.00370657
0.0117419
0.00376468
0.0114629
0.00382036
0.0111755
0.00387308
0.0108789
0.00392223
0.010572
0.00396753
0.0102535
0.00400943
0.00992175
0.00404955
0.00957488
0.00409033
0.0092118
0.00413382
0.00883307
0.0041801
0.00844162
0.0042267
0.00804236
0.00426961
0.00764047
0.00430558
0.00723957
0.00433379
0.00684096
0.00435609
0.00644424
0.00437574
0.00604873
0.0043962
0.00565445
0.0044207
0.00526216
0.00445266
0.00487284
0.00449624
0.00448703
0.0045565
0.0041043
0.00463919
0.00372271
0.00475006
0.00333829
0.00489371
0.00294472
0.00507166
0.00253348
0.0052798
0.00209506
0.0055056
0.00162123
0.00572757
0.00110834
0.00591742
0.000561043
0.0060546
0.00607648
0.0199985
2.37526e-05
0.0199942
7.12351e-05
0.0199869
0.000118693
0.0199766
0.000166114
0.0199635
0.000213487
0.0199473
0.000260803
0.0199282
0.00030806
0.0199062
0.00035526
0.0198811
0.000402409
0.0198531
0.00044952
0.0198221
0.000496609
0.0197881
0.000543699
0.0197511
0.000590816
0.0197111
0.000637993
0.0196681
0.000685261
0.019622
0.000732656
0.019573
0.000780216
0.0195209
0.000827981
0.0194658
0.000875993
0.0194076
0.000924295
0.0193464
0.000972932
0.0192821
0.00102195
0.0192147
0.0010714
0.0191442
0.00112132
0.0190706
0.00117177
0.0189938
0.00122278
0.0189138
0.0012744
0.0188306
0.00132666
0.0187442
0.0013796
0.0186545
0.00143325
0.0185615
0.00148761
0.0184652
0.00154272
0.0183655
0.00159858
0.0182624
0.00165518
0.0181559
0.00171254
0.0180458
0.00177062
0.0179323
0.00182943
0.0178152
0.00188895
0.0176945
0.00194915
0.0175702
0.00201
0.0174421
0.0020715
0.0173104
0.00213362
0.0171748
0.00219635
0.0170353
0.00225966
0.0168919
0.00232356
0.0167445
0.00238802
0.0165931
0.00245304
0.0164374
0.00251861
0.0162775
0.00258472
0.0161133
0.00265136
0.0159446
0.00271854
0.0157714
0.00278622
0.0155935
0.00285441
0.015411
0.00292308
0.0152237
0.00299222
0.0150314
0.00306179