/*--------------------------------*- C++ -*----------------------------------*\
| =========                 |                                                 |
| \\      /  F ield         | OpenFOAM: The Open Source CFD Toolbox           |
|  \\    /   O peration     | Version:  4.1                                   |
|   \\  /    A nd           | Web:      www.OpenFOAM.org                      |
|    \\/     M anipulation  |                                                 |
\*---------------------------------------------------------------------------*/
FoamFile
{
    version     2.0;
    format      ascii;
    class       volScalarField;
    location    "0.05";
    object      epsilon;
}
// * * * * * * * * * * * * * * * * * * * * * * * * * * * * * * * * * * * * * //

dimensions      [0 2 -3 0 0 0 0];

internalField   nonuniform List<scalar> 
43750
(
9.54024
9.87144
10.1958
10.5123
10.8203
11.1191
11.408
11.6862
11.9531
12.2078
12.4494
12.677
12.8891
13.0845
13.2614
13.4177
13.5513
13.6604
13.7432
13.799
13.8278
13.8304
13.8083
13.7633
13.6974
13.6127
13.5115
13.3962
13.2692
13.133
12.9899
12.8417
12.6899
12.5356
12.3795
12.2221
12.0639
11.905
11.7454
11.5853
11.4247
11.2634
11.1016
10.9392
10.7761
10.6124
10.4479
10.2827
10.1167
9.95004
9.78258
9.61436
9.44538
9.27566
9.10521
8.93407
8.76225
8.58981
8.41678
8.24322
8.06919
7.89477
7.72003
7.54506
7.36994
7.1948
7.01973
6.84486
6.67031
6.49622
6.32273
6.15
5.97817
5.80742
5.6379
5.46978
5.30324
5.13844
4.97558
4.8148
4.65629
4.50021
4.34673
4.19599
4.04813
3.90331
3.76163
3.62321
3.48816
3.35656
3.22849
3.104
2.98314
2.86597
2.75251
2.64282
2.53698
2.43545
2.3398
2.27407
12.9879
11.4427
10.1594
9.08615
8.18302
7.41898
6.76966
6.2158
5.74206
5.33616
4.98815
4.68994
4.43488
4.21738
4.03264
3.87631
3.74423
3.63233
3.53663
3.45341
3.37972
3.31368
3.25459
3.20251
3.15751
3.11921
3.08673
3.05902
3.03522
3.01478
2.99741
2.98285
2.9708
2.96083
2.95254
2.94552
2.93947
2.93417
2.92944
2.92517
2.92127
2.91768
2.91435
2.91124
2.9083
2.90552
2.90285
2.90028
2.89777
2.8953
2.89283
2.89032
2.88776
2.8851
2.8823
2.87933
2.87614
2.87269
2.86893
2.86481
2.86028
2.85528
2.84976
2.84364
2.83688
2.8294
2.82113
2.81201
2.80194
2.79088
2.77873
2.76543
2.7509
2.73509
2.71792
2.69934
2.67932
2.6578
2.63479
2.61027
2.58426
2.55681
2.52798
2.49787
2.46659
2.43429
2.40116
2.3674
2.33324
2.29893
2.26474
2.23096
2.19786
2.16572
2.13482
2.10542
2.07755
2.05329
2.03719
2.25095
13.0026
11.4581
10.1625
9.06646
8.13205
7.32983
6.63671
6.03438
5.50818
5.04633
4.63925
4.27914
3.95963
3.67553
3.42259
3.1974
2.99714
2.81957
2.6628
2.52536
2.40603
2.30381
2.21772
2.14661
2.08894
2.04282
2.00619
1.97714
1.95411
1.93606
1.92222
1.91201
1.90485
1.90013
1.89728
1.89579
1.89527
1.89545
1.89611
1.89713
1.89842
1.89992
1.90161
1.90346
1.90545
1.90757
1.90982
1.9122
1.91469
1.9173
1.92001
1.92283
1.92576
1.92877
1.93188
1.93507
1.93833
1.94165
1.94504
1.94847
1.95194
1.95543
1.95893
1.96243
1.96592
1.96937
1.97277
1.9761
1.97935
1.98249
1.9855
1.98837
1.99108
1.99359
1.9959
1.99798
1.99982
2.00138
2.00266
2.00363
2.00429
2.00462
2.00461
2.00426
2.00354
2.00247
2.00104
1.99926
1.99712
1.99464
1.99182
1.98867
1.98521
1.98145
1.9774
1.97313
1.96839
1.96536
1.97198
2.27781
13.0027
11.4581
10.1623
9.06586
8.13079
7.3276
6.63312
6.02901
5.50057
5.03594
4.6255
4.26141
3.93725
3.64778
3.38875
3.15672
2.94897
2.76335
2.59819
2.45218
2.32428
2.2136
2.11924
2.0402
1.97522
1.92279
1.88122
1.84874
1.82375
1.80484
1.79086
1.78083
1.7739
1.76933
1.7665
1.76491
1.76418
1.76404
1.7643
1.76483
1.76555
1.76642
1.76741
1.7685
1.76968
1.77094
1.7723
1.77374
1.77527
1.77689
1.77861
1.78042
1.78234
1.78436
1.78648
1.78871
1.79105
1.7935
1.79607
1.79876
1.80156
1.80447
1.80751
1.81066
1.81393
1.81732
1.82081
1.82442
1.82812
1.83192
1.83582
1.83979
1.84384
1.84795
1.85211
1.85631
1.86053
1.86476
1.86898
1.87317
1.87732
1.8814
1.88539
1.88928
1.89303
1.89663
1.90006
1.90328
1.90627
1.90902
1.91148
1.91364
1.91546
1.91694
1.91802
1.91877
1.91887
1.92048
1.93493
2.32825
13.0027
11.4581
10.1622
9.06564
8.13046
7.32716
6.63259
6.02838
5.49984
5.03511
4.62455
4.2603
3.93596
3.64625
3.38691
3.15451
2.94632
2.76019
2.59446
2.44783
2.31925
2.20777
2.11242
2.03211
1.96557
1.91137
1.86801
1.83397
1.8078
1.78813
1.77374
1.76352
1.7565
1.75188
1.74898
1.74729
1.74643
1.74612
1.74617
1.74647
1.74694
1.74753
1.74821
1.74897
1.74979
1.75067
1.75162
1.75263
1.75371
1.75485
1.75607
1.75736
1.75873
1.76018
1.76171
1.76334
1.76505
1.76686
1.76877
1.77079
1.77291
1.77514
1.77748
1.77995
1.78253
1.78524
1.78808
1.79104
1.79413
1.79735
1.8007
1.80417
1.80778
1.8115
1.81534
1.8193
1.82336
1.82751
1.83174
1.83605
1.84041
1.8448
1.84921
1.85361
1.85799
1.8623
1.86653
1.87064
1.87459
1.87836
1.88191
1.8852
1.88819
1.89086
1.89316
1.89512
1.89641
1.89916
1.91747
2.38944
13.0027
11.4581
10.1621
9.06554
8.13031
7.32697
6.63236
6.02813
5.49957
5.03482
4.62425
4.26001
3.93566
3.64595
3.38662
3.15423
2.94605
2.75993
2.5942
2.44757
2.31896
2.20743
2.11198
2.0315
1.96473
1.91025
1.8666
1.83229
1.8059
1.78607
1.77158
1.7613
1.75424
1.74959
1.74667
1.74495
1.74405
1.74371
1.74372
1.74398
1.7444
1.74493
1.74555
1.74623
1.74698
1.74779
1.74865
1.74957
1.75055
1.75159
1.7527
1.75388
1.75512
1.75644
1.75784
1.75932
1.76089
1.76254
1.76429
1.76614
1.76808
1.77013
1.77229
1.77456
1.77695
1.77945
1.78208
1.78483
1.78771
1.79071
1.79384
1.7971
1.80049
1.80401
1.80765
1.8114
1.81527
1.81924
1.8233
1.82745
1.83166
1.83593
1.84024
1.84455
1.84886
1.85314
1.85735
1.86146
1.86545
1.86928
1.87292
1.87632
1.87945
1.88228
1.88477
1.88694
1.88843
1.89141
1.91227
2.4561
13.0027
11.4581
10.1621
9.06549
8.13023
7.32685
6.63222
6.02796
5.49937
5.0346
4.62402
4.25977
3.93541
3.64569
3.38636
3.15397
2.9458
2.75969
2.594
2.44742
2.3189
2.20746
2.11211
2.03169
1.9649
1.91034
1.86657
1.83216
1.80569
1.7858
1.77125
1.76093
1.75385
1.74917
1.74623
1.7445
1.74359
1.74324
1.74324
1.74349
1.74389
1.74441
1.74501
1.74568
1.74642
1.7472
1.74804
1.74894
1.7499
1.75091
1.75199
1.75314
1.75436
1.75565
1.75701
1.75846
1.75999
1.7616
1.76331
1.76511
1.76702
1.76902
1.77114
1.77336
1.7757
1.77816
1.78074
1.78345
1.78628
1.78924
1.79234
1.79556
1.79891
1.80239
1.806
1.80973
1.81357
1.81752
1.82157
1.8257
1.82991
1.83417
1.83847
1.84278
1.84709
1.85136
1.85557
1.85969
1.86369
1.86753
1.87117
1.87459
1.87774
1.8806
1.88311
1.88532
1.88686
1.8899
1.91296
2.52635
13.0027
11.4581
10.1621
9.06547
8.13019
7.32679
6.63214
6.02786
5.49926
5.03448
4.6239
4.25964
3.93528
3.64557
3.38625
3.15387
2.94572
2.75965
2.59402
2.44752
2.3191
2.20778
2.11253
2.03216
1.96535
1.9107
1.86681
1.83227
1.80569
1.78574
1.77114
1.76079
1.75368
1.74899
1.74604
1.7443
1.74338
1.74302
1.74303
1.74327
1.74367
1.74419
1.74479
1.74546
1.74618
1.74696
1.7478
1.74869
1.74964
1.75065
1.75173
1.75287
1.75407
1.75535
1.75671
1.75814
1.75966
1.76127
1.76296
1.76476
1.76665
1.76864
1.77074
1.77296
1.77528
1.77773
1.7803
1.783
1.78582
1.78878
1.79186
1.79509
1.79844
1.80193
1.80554
1.80928
1.81314
1.81712
1.8212
1.82537
1.82961
1.83393
1.83828
1.84265
1.84703
1.85137
1.85566
1.85985
1.86393
1.86784
1.87156
1.87505
1.87828
1.88121
1.88379
1.88607
1.88765
1.89079
1.91601
2.59954
13.0027
11.4581
10.1621
9.06547
8.13017
7.32676
6.63209
6.02781
5.4992
5.03442
4.62383
4.25956
3.93521
3.6455
3.38619
3.15383
2.9457
2.75966
2.59408
2.44767
2.31936
2.20818
2.11306
2.03278
1.96596
1.91122
1.86719
1.8325
1.8058
1.78575
1.77109
1.76069
1.75355
1.74884
1.74587
1.74413
1.74321
1.74285
1.74285
1.74309
1.7435
1.74401
1.74461
1.74528
1.74601
1.74679
1.74762
1.74852
1.74947
1.75048
1.75155
1.75269
1.7539
1.75518
1.75653
1.75797
1.75949
1.76109
1.76279
1.76458
1.76647
1.76847
1.77057
1.77279
1.77512
1.77757
1.78015
1.78285
1.78568
1.78864
1.79174
1.79498
1.79835
1.80185
1.80549
1.80925
1.81315
1.81716
1.82127
1.82549
1.82979
1.83416
1.83859
1.84304
1.84749
1.85192
1.8563
1.8606
1.86478
1.8688
1.87263
1.87623
1.87956
1.88259
1.88526
1.88763
1.88927
1.89251
1.91992
2.67543
13.0027
11.4581
10.1621
9.06548
8.13017
7.32676
6.63208
6.02779
5.49918
5.03439
4.6238
4.25954
3.93519
3.64549
3.38619
3.15385
2.94574
2.75976
2.59424
2.44792
2.31975
2.20871
2.11374
2.03354
1.96672
1.91187
1.86767
1.83281
1.80596
1.7858
1.77106
1.7606
1.75342
1.74869
1.74571
1.74395
1.74303
1.74266
1.74266
1.74291
1.74331
1.74383
1.74443
1.7451
1.74583
1.74661
1.74745
1.74834
1.74929
1.75031
1.75138
1.75252
1.75373
1.75502
1.75638
1.75782
1.75934
1.76095
1.76265
1.76445
1.76635
1.76836
1.77047
1.7727
1.77504
1.77751
1.7801
1.78282
1.78567
1.78865
1.79178
1.79504
1.79843
1.80197
1.80564
1.80945
1.81338
1.81744
1.82161
1.82588
1.83025
1.83469
1.83918
1.84371
1.84826
1.85278
1.85726
1.86166
1.86595
1.87008
1.87402
1.87774
1.88118
1.88431
1.88708
1.88954
1.89125
1.8946
1.92423
2.75391
13.0027
11.4581
10.1621
9.06549
8.13019
7.32677
6.63209
6.0278
5.49919
5.0344
4.62381
4.25956
3.93521
3.64553
3.38624
3.15392
2.94585
2.7599
2.59446
2.44825
2.32021
2.20934
2.11452
2.03442
1.96759
1.91263
1.86824
1.83318
1.80616
1.78587
1.77104
1.76052
1.7533
1.74854
1.74554
1.74377
1.74284
1.74247
1.74246
1.74271
1.74311
1.74363
1.74423
1.7449
1.74563
1.74641
1.74725
1.74815
1.7491
1.75012
1.7512
1.75234
1.75356
1.75484
1.75621
1.75765
1.75918
1.7608
1.76252
1.76432
1.76624
1.76825
1.77038
1.77262
1.77498
1.77747
1.78008
1.78282
1.7857
1.78872
1.79187
1.79517
1.7986
1.80218
1.8059
1.80976
1.81375
1.81786
1.8221
1.82644
1.83088
1.8354
1.83998
1.84461
1.84924
1.85387
1.85846
1.86297
1.86737
1.87162
1.87568
1.8795
1.88305
1.88629
1.88916
1.89171
1.89348
1.89694
1.92885
2.83496
13.0027
11.4581
10.1622
9.06551
8.13021
7.32679
6.63212
6.02783
5.49922
5.03444
4.62386
4.25961
3.93527
3.6456
3.38633
3.15403
2.94599
2.76011
2.59474
2.44864
2.32075
2.21006
2.11541
2.03542
1.96857
1.91348
1.86888
1.83361
1.8064
1.78597
1.77103
1.76044
1.75317
1.74837
1.74535
1.74357
1.74263
1.74225
1.74225
1.74249
1.74289
1.74341
1.74401
1.74468
1.74541
1.7462
1.74704
1.74794
1.7489
1.74991
1.75099
1.75214
1.75336
1.75465
1.75602
1.75747
1.75901
1.76064
1.76236
1.76418
1.7661
1.76813
1.77028
1.77254
1.77492
1.77743
1.78006
1.78283
1.78574
1.78879
1.79198
1.79532
1.7988
1.80243
1.80621
1.81012
1.81418
1.81836
1.82268
1.8271
1.83163
1.83624
1.84093
1.84565
1.8504
1.85514
1.85985
1.86448
1.86901
1.87338
1.87757
1.88152
1.88518
1.88854
1.8915
1.89414
1.89599
1.89956
1.93378
2.91861
13.0027
11.4581
10.1622
9.06554
8.13024
7.32683
6.63216
6.02787
5.49927
5.0345
4.62392
4.25968
3.93536
3.6457
3.38645
3.15418
2.94619
2.76035
2.59507
2.44909
2.32137
2.21087
2.1164
2.03652
1.96966
1.91442
1.8696
1.83409
1.80668
1.78609
1.77104
1.76037
1.75304
1.74821
1.74516
1.74336
1.74241
1.74203
1.74202
1.74225
1.74266
1.74318
1.74378
1.74445
1.74518
1.74597
1.74681
1.74771
1.74867
1.74969
1.75077
1.75193
1.75315
1.75444
1.75582
1.75728
1.75882
1.76046
1.76219
1.76402
1.76596
1.768
1.77016
1.77244
1.77484
1.77737
1.78004
1.78284
1.78578
1.78887
1.7921
1.79548
1.79902
1.8027
1.80654
1.81052
1.81465
1.81892
1.82332
1.82784
1.83246
1.83718
1.84198
1.84682
1.8517
1.85657
1.86141
1.86618
1.87085
1.87536
1.87968
1.88377
1.88757
1.89104
1.89411
1.89686
1.89879
1.90247
1.93905
3.00492
13.0027
11.4581
10.1622
9.06556
8.13027
7.32687
6.63221
6.02793
5.49934
5.03457
4.62401
4.25978
3.93547
3.64583
3.38661
3.15437
2.94641
2.76065
2.59546
2.4496
2.32205
2.21175
2.11748
2.03772
1.97085
1.91546
1.8704
1.83463
1.807
1.78623
1.77106
1.7603
1.75291
1.74804
1.74496
1.74314
1.74218
1.74179
1.74177
1.74201
1.74241
1.74293
1.74353
1.7442
1.74493
1.74572
1.74657
1.74747
1.74843
1.74945
1.75054
1.75169
1.75292
1.75422
1.7556
1.75707
1.75862
1.76026
1.762
1.76385
1.7658
1.76786
1.77003
1.77233
1.77476
1.77731
1.78001
1.78284
1.78582
1.78894
1.79222
1.79566
1.79925
1.80299
1.80689
1.81095
1.81516
1.81952
1.82401
1.82863
1.83337
1.83821
1.84313
1.84811
1.85312
1.85814
1.86313
1.86806
1.87288
1.87755
1.88203
1.88627
1.89021
1.89382
1.89702
1.89988
1.90189
1.9057
1.9447
3.09397
13.0027
11.4582
10.1622
9.0656
8.13031
7.32692
6.63226
6.028
5.49942
5.03467
4.62411
4.2599
3.93561
3.64599
3.38679
3.15459
2.94668
2.76097
2.59588
2.45017
2.32279
2.21272
2.11865
2.03901
1.97213
1.91657
1.87126
1.83521
1.80734
1.7864
1.77109
1.76023
1.75278
1.74786
1.74475
1.74291
1.74193
1.74153
1.74151
1.74174
1.74214
1.74266
1.74326
1.74393
1.74467
1.74546
1.7463
1.7472
1.74817
1.74919
1.75028
1.75144
1.75267
1.75398
1.75536
1.75683
1.7584
1.76005
1.7618
1.76366
1.76562
1.7677
1.76989
1.77221
1.77466
1.77725
1.77997
1.78284
1.78585
1.78902
1.79235
1.79584
1.79949
1.8033
1.80727
1.81141
1.81571
1.82016
1.82476
1.82949
1.83435
1.83932
1.84438
1.84951
1.85468
1.85986
1.86501
1.87011
1.87511
1.87996
1.88461
1.88902
1.89313
1.89689
1.90022
1.90322
1.90532
1.90927
1.95073
3.18587
13.0027
11.4582
10.1623
9.06563
8.13036
7.32697
6.63233
6.02808
5.49951
5.03477
4.62424
4.26004
3.93577
3.64617
3.387
3.15483
2.94697
2.76134
2.59635
2.45078
2.3236
2.21375
2.1199
2.0404
1.97351
1.91778
1.87219
1.83585
1.80773
1.78658
1.77113
1.76017
1.75265
1.74767
1.74453
1.74267
1.74168
1.74126
1.74124
1.74146
1.74186
1.74238
1.74298
1.74365
1.74438
1.74517
1.74602
1.74692
1.74789
1.74892
1.75001
1.75117
1.7524
1.75372
1.75511
1.75659
1.75816
1.75982
1.76158
1.76345
1.76543
1.76752
1.76974
1.77208
1.77456
1.77717
1.77992
1.78283
1.78589
1.7891
1.79248
1.79603
1.79974
1.80362
1.80768
1.8119
1.81629
1.82085
1.82556
1.83042
1.83541
1.84052
1.84573
1.85102
1.85636
1.86172
1.86706
1.87235
1.87754
1.88259
1.88744
1.89203
1.89632
1.90026
1.90375
1.90689
1.9091
1.91319
1.95718
3.28073
13.0028
11.4582
10.1623
9.06567
8.13041
7.32703
6.63241
6.02816
5.49961
5.03489
4.62437
4.2602
3.93595
3.64638
3.38723
3.1551
2.9473
2.76174
2.59685
2.45143
2.32446
2.21485
2.12124
2.04188
1.97497
1.91906
1.87318
1.83653
1.80814
1.78678
1.77118
1.76011
1.75251
1.74749
1.74431
1.74242
1.74141
1.74098
1.74095
1.74117
1.74157
1.74208
1.74268
1.74335
1.74408
1.74487
1.74572
1.74663
1.74759
1.74862
1.74972
1.75088
1.75212
1.75344
1.75484
1.75632
1.7579
1.75957
1.76135
1.76323
1.76522
1.76734
1.76957
1.77194
1.77444
1.77708
1.77987
1.78281
1.78592
1.78918
1.79261
1.79622
1.8
1.80396
1.8081
1.81242
1.81691
1.82158
1.82641
1.83141
1.83654
1.84181
1.84719
1.85265
1.85818
1.86374
1.86929
1.87479
1.88019
1.88545
1.89052
1.89533
1.89982
1.90395
1.90762
1.91092
1.91325
1.9175
1.96407
3.37867
13.0028
11.4582
10.1623
9.06571
8.13046
7.3271
6.63249
6.02826
5.49973
5.03502
4.62452
4.26037
3.93614
3.6466
3.38749
3.1554
2.94765
2.76217
2.59739
2.45213
2.32537
2.21601
2.12264
2.04344
1.97651
1.92041
1.87423
1.83726
1.80858
1.78701
1.77124
1.76005
1.75237
1.74729
1.74407
1.74216
1.74113
1.74069
1.74065
1.74087
1.74126
1.74177
1.74237
1.74304
1.74377
1.74456
1.74541
1.74632
1.74728
1.74831
1.74941
1.75058
1.75182
1.75314
1.75455
1.75604
1.75763
1.75931
1.7611
1.76299
1.765
1.76713
1.76939
1.77178
1.77431
1.77698
1.77981
1.78279
1.78594
1.78926
1.79275
1.79642
1.80028
1.80432
1.80855
1.81296
1.81757
1.82236
1.82733
1.83246
1.83776
1.84319
1.84875
1.85441
1.86014
1.86592
1.87169
1.87743
1.88307
1.88857
1.89388
1.89892
1.90364
1.90799
1.91185
1.91533
1.91781
1.92223
1.97143
3.47982
13.0028
11.4582
10.1624
9.06575
8.13052
7.32717
6.63257
6.02836
5.49985
5.03517
4.62469
4.26056
3.93635
3.64684
3.38776
3.15572
2.94802
2.76262
2.59797
2.45287
2.32633
2.21724
2.12412
2.04508
1.97814
1.92184
1.87535
1.83803
1.80906
1.78725
1.77131
1.76
1.75223
1.74709
1.74383
1.74189
1.74084
1.74039
1.74034
1.74055
1.74093
1.74144
1.74204
1.74271
1.74344
1.74423
1.74508
1.74599
1.74696
1.74799
1.74909
1.75026
1.75151
1.75283
1.75424
1.75574
1.75734
1.75903
1.76083
1.76274
1.76476
1.76691
1.76919
1.77161
1.77416
1.77687
1.77973
1.78276
1.78596
1.78933
1.79288
1.79662
1.80056
1.80469
1.80901
1.81354
1.81826
1.82318
1.82829
1.83358
1.83905
1.84467
1.85043
1.8563
1.86226
1.86827
1.87429
1.88028
1.88619
1.89196
1.89753
1.90284
1.90781
1.9124
1.91648
1.92016
1.9228
1.92741
1.9793
3.58429
13.0028
11.4583
10.1624
9.0658
8.13057
7.32724
6.63266
6.02848
5.49998
5.03532
4.62486
4.26076
3.93658
3.64709
3.38805
3.15606
2.94842
2.76311
2.59858
2.45365
2.32734
2.21852
2.12567
2.04679
1.97984
1.92335
1.87652
1.83885
1.80956
1.78751
1.77139
1.75995
1.75209
1.74689
1.74358
1.74161
1.74054
1.74007
1.74001
1.74022
1.7406
1.7411
1.7417
1.74237
1.7431
1.74389
1.74474
1.74564
1.74661
1.74765
1.74875
1.74992
1.75117
1.7525
1.75392
1.75543
1.75703
1.75873
1.76054
1.76247
1.76451
1.76668
1.76898
1.77142
1.77401
1.77675
1.77965
1.78272
1.78597
1.7894
1.79302
1.79683
1.80085
1.80507
1.80949
1.81413
1.81898
1.82404
1.82931
1.83477
1.84042
1.84624
1.85221
1.85831
1.86452
1.87079
1.87708
1.88336
1.88956
1.89563
1.90149
1.9071
1.91236
1.91722
1.92154
1.92545
1.92827
1.93308
1.98772
3.69224
13.0028
11.4583
10.1624
9.06585
8.13064
7.32732
6.63276
6.02859
5.50012
5.03548
4.62505
4.26097
3.93682
3.64737
3.38836
3.15641
2.94885
2.76362
2.59921
2.45447
2.32839
2.21985
2.12728
2.04858
1.98162
1.92492
1.87775
1.83971
1.81009
1.78778
1.77147
1.7599
1.75195
1.74668
1.74333
1.74132
1.74023
1.73975
1.73968
1.73987
1.74025
1.74075
1.74134
1.74201
1.74274
1.74353
1.74438
1.74528
1.74625
1.74729
1.74839
1.74957
1.75082
1.75216
1.75358
1.75509
1.7567
1.75842
1.76024
1.76218
1.76424
1.76642
1.76875
1.77122
1.77383
1.77661
1.77955
1.78267
1.78597
1.78946
1.79315
1.79704
1.80114
1.80546
1.80999
1.81475
1.81974
1.82495
1.83038
1.83602
1.84187
1.8479
1.85411
1.86047
1.86694
1.87349
1.88009
1.88668
1.8932
1.8996
1.9058
1.91173
1.9173
1.92247
1.92707
1.93123
1.93426
1.9393
1.99674
3.8038
13.0028
11.4583
10.1625
9.06589
8.1307
7.3274
6.63286
6.02871
5.50026
5.03565
4.62524
4.26119
3.93707
3.64765
3.38869
3.15679
2.94929
2.76415
2.59988
2.45531
2.32948
2.22123
2.12895
2.05043
1.98347
1.92655
1.87904
1.84061
1.81066
1.78808
1.77157
1.75986
1.75181
1.74647
1.74307
1.74103
1.73991
1.73941
1.73933
1.73952
1.73989
1.74039
1.74098
1.74164
1.74237
1.74316
1.744
1.74491
1.74588
1.74692
1.74802
1.7492
1.75046
1.7518
1.75322
1.75474
1.75636
1.75808
1.75992
1.76187
1.76395
1.76615
1.7685
1.771
1.77364
1.77646
1.77944
1.78261
1.78596
1.78951
1.79327
1.79724
1.80143
1.80585
1.81051
1.8154
1.82052
1.82589
1.8315
1.83734
1.8434
1.84967
1.85613
1.86276
1.86952
1.87639
1.88332
1.89025
1.89713
1.90389
1.91046
1.91675
1.92269
1.92819
1.93311
1.93756
1.94081
1.9461
2.00642
3.91911
13.0028
11.4583
10.1625
9.06594
8.13077
7.32749
6.63297
6.02884
5.50042
5.03583
4.62545
4.26142
3.93734
3.64795
3.38903
3.15718
2.94975
2.76471
2.60057
2.45619
2.33061
2.22266
2.13067
2.05235
1.98539
1.92825
1.88038
1.84156
1.81125
1.7884
1.77168
1.75982
1.75166
1.74625
1.7428
1.74073
1.73958
1.73907
1.73897
1.73915
1.73952
1.74001
1.7406
1.74126
1.74198
1.74277
1.74362
1.74452
1.74549
1.74653
1.74764
1.74882
1.75008
1.75142
1.75285
1.75438
1.756
1.75773
1.75958
1.76155
1.76364
1.76587
1.76824
1.77076
1.77344
1.77629
1.77932
1.78253
1.78594
1.78956
1.79339
1.79744
1.80173
1.80626
1.81103
1.81606
1.82134
1.82688
1.83267
1.83872
1.84501
1.85153
1.85826
1.86519
1.87227
1.87948
1.88677
1.89409
1.90136
1.90853
1.91551
1.92221
1.92855
1.93443
1.9397
1.94448
1.948
1.95357
2.01681
4.03835
13.0028
11.4583
10.1625
9.066
8.13083
7.32758
6.63308
6.02898
5.50057
5.03601
4.62566
4.26167
3.93761
3.64827
3.38939
3.15759
2.95023
2.76529
2.60128
2.4571
2.33177
2.22414
2.13245
2.05432
1.98737
1.93002
1.88177
1.84254
1.81187
1.78873
1.7718
1.75979
1.75152
1.74603
1.74253
1.74042
1.73925
1.73871
1.7386
1.73877
1.73913
1.73962
1.74021
1.74086
1.74159
1.74237
1.74322
1.74412
1.74509
1.74613
1.74723
1.74842
1.74968
1.75102
1.75246
1.75399
1.75563
1.75737
1.75922
1.7612
1.76331
1.76556
1.76795
1.7705
1.77321
1.7761
1.77917
1.78244
1.7859
1.78959
1.7935
1.79764
1.80202
1.80666
1.81156
1.81673
1.82217
1.82789
1.83389
1.84016
1.84669
1.85349
1.86052
1.86777
1.8752
1.88279
1.89047
1.8982
1.90592
1.91354
1.92097
1.92814
1.93492
1.94124
1.94691
1.95206
1.95588
1.96176
2.028
4.16165
13.0029
11.4584
10.1626
9.06605
8.1309
7.32767
6.63319
6.02911
5.50074
5.0362
4.62588
4.26192
3.9379
3.64859
3.38976
3.15802
2.95073
2.76588
2.60202
2.45803
2.33297
2.22565
2.13427
2.05636
1.98941
1.93183
1.88321
1.84356
1.81251
1.78908
1.77193
1.75976
1.75138
1.74581
1.74226
1.7401
1.7389
1.73835
1.73823
1.73839
1.73874
1.73922
1.7398
1.74046
1.74118
1.74196
1.7428
1.74371
1.74468
1.74571
1.74682
1.748
1.74926
1.75061
1.75205
1.75359
1.75523
1.75698
1.75885
1.76084
1.76297
1.76523
1.76765
1.77023
1.77297
1.7759
1.77901
1.78233
1.78585
1.7896
1.79359
1.79782
1.80231
1.80707
1.8121
1.81742
1.82303
1.82894
1.83515
1.84166
1.84846
1.85554
1.8629
1.87049
1.87831
1.8863
1.89443
1.90262
1.91082
1.91894
1.92689
1.93457
1.94186
1.94867
1.9548
1.96036
1.96453
1.97076
2.04005
4.28919
13.0029
11.4584
10.1626
9.0661
8.13098
7.32776
6.63331
6.02926
5.50091
5.0364
4.62611
4.26218
3.93819
3.64893
3.39014
3.15846
2.95124
2.7665
2.60277
2.45899
2.33419
2.2272
2.13614
2.05844
1.9915
1.93371
1.8847
1.84462
1.81319
1.78945
1.77207
1.75974
1.75124
1.74559
1.74198
1.73978
1.73856
1.73798
1.73784
1.73799
1.73834
1.73882
1.73939
1.74004
1.74076
1.74154
1.74238
1.74328
1.74425
1.74528
1.74639
1.74757
1.74884
1.75019
1.75163
1.75317
1.75482
1.75658
1.75846
1.76046
1.7626
1.76489
1.76733
1.76993
1.77271
1.77567
1.77883
1.7822
1.78578
1.7896
1.79367
1.798
1.80259
1.80747
1.81264
1.81812
1.82391
1.83002
1.83646
1.84322
1.8503
1.8577
1.8654
1.87337
1.8816
1.89004
1.89865
1.90736
1.91609
1.92477
1.9333
1.94156
1.94942
1.95678
1.96343
1.96947
1.97405
1.98066
2.05307
4.42115
13.0029
11.4584
10.1626
9.06616
8.13105
7.32786
6.63343
6.0294
5.50108
5.0366
4.62634
4.26245
3.9385
3.64927
3.39053
3.15891
2.95177
2.76712
2.60355
2.45997
2.33544
2.22878
2.13805
2.06058
1.99365
1.93563
1.88624
1.84572
1.81389
1.78983
1.77223
1.75972
1.7511
1.74537
1.74169
1.73946
1.7382
1.73761
1.73745
1.73759
1.73793
1.7384
1.73897
1.73962
1.74033
1.74111
1.74194
1.74284
1.74381
1.74484
1.74595
1.74713
1.74839
1.74975
1.75119
1.75274
1.75439
1.75616
1.75804
1.76006
1.76222
1.76452
1.76698
1.76961
1.77242
1.77542
1.77862
1.78204
1.78569
1.78959
1.79373
1.79816
1.80286
1.80786
1.81318
1.81882
1.8248
1.83112
1.8378
1.84483
1.85221
1.85995
1.86802
1.87641
1.88509
1.89402
1.90315
1.91242
1.92176
1.93106
1.94023
1.94914
1.95766
1.96566
1.9729
1.97949
1.98452
1.99159
2.06718
4.55768
13.0029
11.4584
10.1627
9.06621
8.13112
7.32795
6.63355
6.02955
5.50126
5.03681
4.62658
4.26272
3.93881
3.64962
3.39094
3.15937
2.9523
2.76777
2.60434
2.46097
2.33672
2.23039
2.14
2.06275
1.99584
1.9376
1.88781
1.84685
1.81462
1.79024
1.77239
1.75971
1.75097
1.74514
1.74141
1.73913
1.73784
1.73722
1.73705
1.73718
1.73751
1.73797
1.73854
1.73918
1.73989
1.74066
1.7415
1.74239
1.74336
1.74439
1.74549
1.74667
1.74794
1.74929
1.75074
1.75229
1.75394
1.75572
1.75761
1.75964
1.76181
1.76413
1.76662
1.76927
1.77211
1.77515
1.7784
1.78187
1.78558
1.78954
1.79378
1.7983
1.80311
1.80825
1.81371
1.81953
1.8257
1.83225
1.83917
1.84649
1.8542
1.86229
1.87076
1.8796
1.88877
1.89823
1.90795
1.91785
1.92784
1.93785
1.94774
1.95739
1.96665
1.97537
1.98329
1.99051
1.99608
2.00366
2.0825
4.69897
13.0029
11.4585
10.1627
9.06627
8.1312
7.32805
6.63367
6.0297
5.50144
5.03703
4.62683
4.263
3.93913
3.64999
3.39135
3.15984
2.95286
2.76843
2.60515
2.46198
2.33802
2.23203
2.14198
2.06497
1.99808
1.93962
1.88943
1.84802
1.81537
1.79066
1.77257
1.75971
1.75084
1.74492
1.74112
1.73879
1.73747
1.73684
1.73665
1.73676
1.73708
1.73754
1.7381
1.73874
1.73944
1.74021
1.74104
1.74193
1.74289
1.74392
1.74502
1.7462
1.74747
1.74882
1.75027
1.75182
1.75348
1.75526
1.75716
1.7592
1.76139
1.76372
1.76623
1.76891
1.77178
1.77485
1.77815
1.78167
1.78544
1.78948
1.7938
1.79841
1.80335
1.80862
1.81424
1.82023
1.82661
1.83338
1.84058
1.8482
1.85624
1.86472
1.87363
1.88294
1.89265
1.9027
1.91305
1.92364
1.93438
1.94517
1.95587
1.96636
1.97646
1.98601
1.99472
2.00268
2.00887
2.01703
2.0992
4.84519
13.0029
11.4585
10.1628
9.06632
8.13128
7.32815
6.6338
6.02986
5.50162
5.03724
4.62708
4.26329
3.93946
3.65036
3.39177
3.16033
2.95342
2.7691
2.60597
2.46301
2.33933
2.23369
2.14398
2.06722
2.00036
1.94168
1.89109
1.84921
1.81615
1.7911
1.77276
1.75971
1.75071
1.7447
1.74083
1.73846
1.73711
1.73644
1.73624
1.73634
1.73665
1.7371
1.73765
1.73828
1.73898
1.73975
1.74057
1.74146
1.74242
1.74344
1.74454
1.74572
1.74698
1.74834
1.74979
1.75134
1.753
1.75478
1.7567
1.75874
1.76094
1.76329
1.76582
1.76852
1.77142
1.77453
1.77787
1.78144
1.78528
1.78939
1.79379
1.79851
1.80356
1.80896
1.81474
1.82092
1.82751
1.83453
1.842
1.84994
1.85835
1.86724
1.87661
1.88644
1.89673
1.90742
1.91847
1.92983
1.94139
1.95306
1.96469
1.97613
1.98719
1.99769
2.00732
2.01612
2.02305
2.03189
2.11746
4.99653
13.0029
11.4585
10.1628
9.06638
8.13135
7.32825
6.63392
6.03001
5.50181
5.03746
4.62734
4.26358
3.93979
3.65074
3.3922
3.16082
2.95399
2.76978
2.6068
2.46406
2.34066
2.23536
2.14601
2.0695
2.00268
1.94378
1.89279
1.85044
1.81695
1.79156
1.77296
1.75972
1.75059
1.74448
1.74055
1.73812
1.73674
1.73605
1.73583
1.73591
1.73621
1.73665
1.7372
1.73783
1.73852
1.73928
1.7401
1.74099
1.74194
1.74296
1.74405
1.74523
1.74649
1.74784
1.74929
1.75084
1.75251
1.75429
1.75621
1.75827
1.76047
1.76284
1.76538
1.76811
1.77104
1.77418
1.77756
1.78119
1.78508
1.78926
1.79375
1.79857
1.80374
1.80929
1.81523
1.82159
1.8284
1.83568
1.84344
1.85172
1.86051
1.86984
1.8797
1.8901
1.90101
1.9124
1.92423
1.93643
1.94891
1.96156
1.97424
1.98676
1.99893
2.01054
2.02123
2.03103
2.03883
2.04846
2.13751
5.15315
13.0029
11.4585
10.1628
9.06644
8.13143
7.32835
6.63405
6.03017
5.502
5.03769
4.6276
4.26388
3.94013
3.65112
3.39264
3.16132
2.95457
2.77047
2.60765
2.46512
2.34201
2.23706
2.14806
2.0718
2.00503
1.94592
1.89452
1.8517
1.81778
1.79204
1.77317
1.75974
1.75047
1.74426
1.74026
1.73779
1.73636
1.73565
1.73541
1.73548
1.73577
1.7362
1.73674
1.73736
1.73805
1.7388
1.73962
1.7405
1.74145
1.74246
1.74355
1.74472
1.74598
1.74733
1.74878
1.75033
1.75199
1.75378
1.7557
1.75777
1.75998
1.76236
1.76492
1.76767
1.77063
1.77381
1.77722
1.7809
1.78485
1.78911
1.79368
1.7986
1.80389
1.80958
1.81568
1.82224
1.82928
1.83682
1.84489
1.85351
1.86271
1.87251
1.8829
1.8939
1.90549
1.91764
1.93032
1.94346
1.95697
1.97073
1.98459
1.99836
2.0118
2.02469
2.03663
2.04761
2.05644
2.06701
2.15963
5.31522
13.003
11.4586
10.1629
9.06649
8.13151
7.32845
6.63418
6.03033
5.50219
5.03791
4.62786
4.26418
3.94047
3.65151
3.39308
3.16183
2.95516
2.77117
2.6085
2.46618
2.34336
2.23876
2.15013
2.07413
2.0074
1.94808
1.89628
1.85299
1.81863
1.79254
1.7734
1.75977
1.75036
1.74405
1.73997
1.73745
1.73599
1.73525
1.73499
1.73505
1.73532
1.73575
1.73628
1.73689
1.73757
1.73832
1.73913
1.74001
1.74095
1.74196
1.74304
1.74421
1.74546
1.74681
1.74825
1.7498
1.75147
1.75326
1.75518
1.75725
1.75947
1.76187
1.76444
1.76721
1.77019
1.7734
1.77686
1.78058
1.78459
1.78891
1.79357
1.79859
1.804
1.80983
1.8161
1.82286
1.83013
1.83794
1.84633
1.85532
1.86495
1.87524
1.8862
1.89784
1.91016
1.92315
1.93677
1.95095
1.96561
1.98062
1.99582
2.01101
2.02593
2.04032
2.05373
2.06611
2.07617
2.08786
2.18416
5.4829
13.003
11.4586
10.1629
9.06655
8.13159
7.32856
6.63431
6.03049
5.50239
5.03814
4.62813
4.26449
3.94082
3.6519
3.39353
3.16234
2.95576
2.77187
2.60936
2.46726
2.34472
2.24048
2.1522
2.07647
2.0098
1.95027
1.89807
1.85431
1.8195
1.79305
1.77364
1.75981
1.75025
1.74384
1.73969
1.73712
1.73562
1.73485
1.73457
1.73461
1.73488
1.73529
1.73581
1.73642
1.73709
1.73783
1.73864
1.73951
1.74044
1.74144
1.74252
1.74369
1.74493
1.74627
1.74771
1.74926
1.75093
1.75272
1.75464
1.75671
1.75894
1.76134
1.76393
1.76672
1.76972
1.77296
1.77645
1.78022
1.78429
1.78868
1.79342
1.79854
1.80407
1.81004
1.81648
1.82344
1.83094
1.83904
1.84775
1.85713
1.8672
1.87801
1.88957
1.90191
1.91503
1.92893
1.94357
1.9589
1.97484
1.99127
2.008
2.02483
2.04147
2.05761
2.07276
2.08682
2.09837
2.1114
2.2115
5.65632
13.003
11.4586
10.163
9.06661
8.13166
7.32866
6.63445
6.03065
5.50258
5.03837
4.6284
4.2648
3.94117
3.6523
3.39398
3.16286
2.95636
2.77258
2.61022
2.46834
2.34609
2.24219
2.15429
2.07883
2.01221
1.95249
1.89989
1.85564
1.82039
1.79358
1.77389
1.75986
1.75015
1.74364
1.73941
1.73678
1.73524
1.73445
1.73414
1.73417
1.73443
1.73483
1.73534
1.73594
1.73661
1.73734
1.73814
1.739
1.73993
1.74093
1.742
1.74315
1.74439
1.74573
1.74716
1.74871
1.75037
1.75216
1.75408
1.75616
1.75839
1.7608
1.7634
1.7662
1.76922
1.77249
1.77602
1.77983
1.78395
1.7884
1.79323
1.79844
1.80409
1.8102
1.81681
1.82397
1.83172
1.84009
1.84914
1.85892
1.86946
1.88081
1.89301
1.90609
1.92007
1.93495
1.95072
1.96733
1.98471
2.00273
2.02121
2.03994
2.05858
2.0768
2.09403
2.11009
2.12346
2.13814
2.2422
5.83561
13.003
11.4586
10.163
9.06666
8.13174
7.32876
6.63458
6.03082
5.50278
5.03861
4.62867
4.26511
3.94152
3.6527
3.39444
3.16338
2.95696
2.7733
2.61109
2.46942
2.34745
2.24391
2.15637
2.08119
2.01464
1.95473
1.90173
1.85701
1.8213
1.79412
1.77416
1.75992
1.75006
1.74344
1.73914
1.73645
1.73487
1.73405
1.73372
1.73374
1.73397
1.73437
1.73487
1.73546
1.73612
1.73685
1.73764
1.73849
1.73941
1.7404
1.74147
1.74261
1.74385
1.74518
1.74661
1.74814
1.7498
1.75159
1.75351
1.75558
1.75782
1.76023
1.76284
1.76565
1.7687
1.77198
1.77554
1.77939
1.78356
1.78808
1.79298
1.79829
1.80405
1.8103
1.81708
1.82444
1.83243
1.84109
1.85049
1.86068
1.87171
1.88363
1.8965
1.91037
1.92527
1.94122
1.95822
1.97624
1.99522
2.01505
2.03554
2.05645
2.07745
2.09813
2.11786
2.13638
2.15199
2.1687
2.27691
6.02085
13.003
11.4587
10.163
9.06672
8.13182
7.32887
6.63471
6.03098
5.50298
5.03884
4.62894
4.26542
3.94188
3.65311
3.3949
3.1639
2.95757
2.77402
2.61196
2.4705
2.34882
2.24563
2.15846
2.08355
2.01708
1.95698
1.90359
1.85839
1.82224
1.79468
1.77444
1.75999
1.74998
1.74325
1.73887
1.73612
1.7345
1.73365
1.7333
1.7333
1.73352
1.73391
1.7344
1.73498
1.73563
1.73635
1.73713
1.73798
1.73889
1.73987
1.74093
1.74207
1.74329
1.74461
1.74604
1.74757
1.74922
1.751
1.75292
1.75499
1.75723
1.75964
1.76225
1.76508
1.76814
1.77144
1.77503
1.77892
1.78313
1.78771
1.79268
1.79808
1.80395
1.81034
1.81728
1.82485
1.83307
1.84203
1.85178
1.86238
1.87391
1.88643
1.90002
1.91472
1.93061
1.94771
1.96606
1.98564
2.00641
2.02828
2.05106
2.07452