/*--------------------------------*- C++ -*----------------------------------*\
| =========                 |                                                 |
| \\      /  F ield         | OpenFOAM: The Open Source CFD Toolbox           |
|  \\    /   O peration     | Version:  4.1                                   |
|   \\  /    A nd           | Web:      www.OpenFOAM.org                      |
|    \\/     M anipulation  |                                                 |
\*---------------------------------------------------------------------------*/
FoamFile
{
    version     2.0;
    format      ascii;
    class       volScalarField;
    location    "0.05";
    object      p;
}
// * * * * * * * * * * * * * * * * * * * * * * * * * * * * * * * * * * * * * //

dimensions      [0 2 -2 0 0 0 0];

internalField   nonuniform List<scalar> 
43750
(
70.4897
70.3835
70.3267
70.3384
70.3796
70.4304
70.4932
70.5731
70.6705
70.7836
70.9111
71.0528
71.2084
71.3773
71.559
71.7528
71.9585
72.176
72.4057
72.6494
72.9094
73.1881
73.4868
73.8045
74.1385
74.4852
74.8412
75.2046
75.5749
75.9521
76.3367
76.729
77.129
77.5369
77.9528
78.3767
78.809
79.2497
79.699
80.1569
80.6234
81.0987
81.5827
82.0754
82.5768
83.0869
83.6055
84.1327
84.6683
85.2121
85.7641
86.324
86.8915
87.4665
88.0487
88.6378
89.2333
89.835
90.4424
91.0551
91.6725
92.2941
92.9193
93.5475
94.178
94.8102
95.4431
96.0762
96.7083
97.3388
97.9666
98.5907
99.2101
99.8238
100.431
101.029
101.619
102.198
102.765
103.319
103.859
104.383
104.891
105.379
105.849
106.297
106.722
107.124
107.501
107.852
108.175
108.469
108.734
108.968
109.17
109.34
109.476
109.579
109.648
109.688
70.3228
70.2939
70.2707
70.2817
70.3203
70.3745
70.4419
70.5246
70.6233
70.7371
70.8653
71.0076
71.1639
71.3342
71.5183
71.7161
71.9277
72.1534
72.3935
72.6479
72.9163
73.1987
73.4953
73.8068
74.133
74.473
74.8249
75.1866
75.5566
75.9338
76.318
76.7094
77.1084
77.5154
77.9305
78.3539
78.7857
79.226
79.6748
80.1323
80.5985
81.0734
81.5571
82.0495
82.5507
83.0605
83.579
84.106
84.6415
85.1853
85.7372
86.2971
86.8648
87.44
88.0224
88.6117
89.2077
89.8098
90.4177
91.031
91.649
92.2714
92.8975
93.5267
94.1582
94.7915
95.4257
96.0601
96.6937
97.3257
97.9551
98.5809
99.2022
99.8177
100.426
101.027
101.619
102.2
102.769
103.326
103.868
104.394
104.904
105.395
105.866
106.316
106.744
107.148
107.527
107.879
108.204
108.5
108.766
109.001
109.205
109.376
109.513
109.617
109.685
109.727
70.2429
70.2402
70.2402
70.2575
70.296
70.351
70.4196
70.5021
70.5997
70.7122
70.8391
70.9801
71.1351
71.3039
71.4864
71.6824
71.8919
72.1145
72.35
72.5983
72.8603
73.1371
73.4303
73.7409
74.0688
74.4126
74.7692
75.1354
75.5088
75.8878
76.2726
76.6638
77.062
77.468
77.8821
78.3045
78.7353
79.1746
79.6224
80.0788
80.5438
81.0176
81.5001
81.9914
82.4913
82.9999
83.5171
84.0429
84.5771
85.1196
85.6702
86.2288
86.7952
87.369
87.9501
88.5382
89.1328
89.7337
90.3404
90.9524
91.5693
92.1906
92.8156
93.4437
94.0744
94.7068
95.3403
95.974
96.6071
97.2387
97.8678
98.4934
99.1146
99.7303
100.339
100.94
101.532
102.114
102.685
103.242
103.785
104.313
104.824
105.316
105.789
106.241
106.67
107.076
107.456
107.81
108.137
108.435
108.702
108.939
109.144
109.316
109.454
109.559
109.627
109.668
70.1584
70.1608
70.1694
70.1915
70.2308
70.2862
70.3557
70.4392
70.5373
70.6502
70.7774
70.9187
71.0739
71.243
71.4259
71.6225
71.8329
72.0572
72.2957
72.549
72.8172
73.1003
73.3982
73.7108
74.0375
74.3774
74.7287
75.0896
75.4585
75.8344
76.217
76.6067
77.0039
77.4089
77.8219
78.2433
78.673
79.1111
79.5578
80.0131
80.477
80.9496
81.431
81.921
82.4198
82.9272
83.4433
83.9678
84.5008
85.0421
85.5916
86.149
86.7141
87.2868
87.8667
88.4536
89.047
89.6468
90.2523
90.8632
91.479
92.0992
92.7232
93.3503
93.98
94.6114
95.244
95.8768
96.509
97.1398
97.7681
98.3931
99.0136
99.6286
100.237
100.838
101.429
102.011
102.581
103.138
103.681
104.208
104.719
105.211
105.684
106.135
106.565
106.97
107.351
107.705
108.031
108.328
108.596
108.833
109.037
109.209
109.347
109.452
109.52
109.56
70.0698
70.0759
70.0914
70.1194
70.1621
70.2195
70.2907
70.3758
70.4749
70.5881
70.7155
70.8568
71.012
71.181
71.3639
71.5606
71.7711
71.9955
72.2339
72.4862
72.7527
73.0338
73.3298
73.641
73.9666
74.3054
74.6555
75.0149
75.3823
75.7567
76.138
76.5265
76.9224
77.3262
77.738
78.1579
78.5862
79.023
79.4682
79.922
80.3845
80.8556
81.3354
81.8239
82.3212
82.827
83.3415
83.8645
84.3959
84.9357
85.4835
86.0394
86.603
87.1741
87.7525
88.3379
88.9299
89.5281
90.1323
90.7418
91.3563
91.9751
92.5978
93.2238
93.8523
94.4826
95.1141
95.7459
96.3772
97.0071
97.6346
98.2587
98.8785
99.4928
100.101
100.701
101.292
101.872
102.442
102.998
103.541
104.068
104.578
105.069
105.542
105.993
106.421
106.826
107.206
107.559
107.885
108.182
108.449
108.685
108.889
109.06
109.198
109.302
109.369
109.409
69.9739
69.9818
70.0005
70.0318
70.0763
70.1344
70.2062
70.2916
70.3909
70.5041
70.6312
70.7722
70.9271
71.0957
71.2782
71.4746
71.6848
71.9089
72.1472
72.3999
72.6673
72.9496
73.2469
73.5587
73.8842
74.2218
74.5699
74.9267
75.2913
75.6631
76.0421
76.4285
76.8225
77.2244
77.6344
78.0526
78.479
78.9139
79.3572
79.8091
80.2696
80.7388
81.2167
81.7032
82.1985
82.7023
83.2148
83.7358
84.2652
84.8029
85.3487
85.9025
86.4641
87.0332
87.6096
88.193
88.7831
89.3794
89.9817
90.5894
91.2021
91.8192
92.4402
93.0645
93.6914
94.3203
94.9503
95.5807
96.2107
96.8393
97.4656
98.0887
98.7074
99.3208
99.9276
100.527
101.117
101.697
102.266
102.821
103.363
103.889
104.398
104.889
105.361
105.811
106.239
106.643
107.022
107.374
107.699
107.995
108.261
108.497
108.7
108.871
109.008
109.112
109.179
109.219
69.8684
69.877
69.8976
69.9311
69.9773
70.0367
70.1094
70.1956
70.2954
70.409
70.5363
70.6773
70.8321
71.0007
71.183
71.3792
71.5892
71.8133
72.0514
72.3038
72.5706
72.8519
73.1477
73.4577
73.7811
74.1165
74.4623
74.8169
75.1793
75.5489
75.9257
76.31
76.7019
77.1016
77.5094
77.9254
78.3497
78.7823
79.2234
79.673
80.1312
80.598
81.0735
81.5577
82.0505
82.552
83.062
83.5805
84.1074
84.6426
85.186
85.7373
86.2965
86.8631
87.4371
88.018
88.6057
89.1997
89.7996
90.405
91.0154
91.6303
92.2492
92.8714
93.4963
94.1232
94.7514
95.3801
96.0083
96.6354
97.2602
97.8818
98.4992
99.1113
99.7169
100.315
100.904
101.483
102.051
102.606
103.147
103.672
104.181
104.671
105.141
105.591
106.018
106.421
106.8
107.151
107.475
107.771
108.036
108.271
108.473
108.643
108.78
108.884
108.95
108.99
69.7521
69.7612
69.7829
69.8177
69.8653
69.9255
69.9988
70.0854
70.1854
70.2989
70.4261
70.5668
70.7211
70.8892
71.0709
71.2665
71.4758
71.6991
71.9365
72.188
72.4539
72.7343
73.0291
73.338
73.6599
73.9934
74.3371
74.6893
75.0492
75.4162
75.7905
76.1722
76.5615
76.9587
77.364
77.7773
78.199
78.629
79.0674
79.5143
79.9698
80.4339
80.9066
81.3879
81.8779
82.3765
82.8836
83.3992
83.9232
84.4554
84.9959
85.5442
86.1004
86.6641
87.2351
87.8132
88.3979
88.989
89.5861
90.1887
90.7963
91.4086
92.0248
92.6444
93.2669
93.8914
94.5172
95.1436
95.7697
96.3947
97.0176
97.6374
98.2531
98.8635
99.4677
100.064
100.652
101.23
101.797
102.351
102.89
103.415
103.923
104.412
104.882
105.331
105.757
106.16
106.538
106.889
107.212
107.507
107.772
108.006
108.208
108.378
108.514
108.618
108.684
108.724
69.6244
69.6338
69.6561
69.6919
69.7403
69.8011
69.8748
69.9616
70.0617
70.1752
70.3021
70.4425
70.5965
70.764
70.9451
71.14
71.3486
71.5711
71.8076
72.0582
72.323
72.6021
72.8953
73.2022
73.5219
73.853
74.194
74.5434
74.9004
75.2646
75.636
76.0148
76.4012
76.7955
77.1979
77.6083
78.027
78.4539
78.8893
79.3331
79.7855
80.2464
80.7159
81.194
81.6807
82.1759
82.6797
83.192
83.7126
84.2414
84.7784
85.3234
85.8761
86.4364
87.004
87.5786
88.16
88.7477
89.3414
89.9407
90.5452
91.1542
91.7673
92.3839
93.0033
93.6249
94.2479
94.8716
95.4952
96.1176
96.7381
97.3556
97.9692
98.5776
99.1799
99.7747
100.361
100.937
101.502
102.055
102.594
103.117
103.624
104.113
104.582
105.03
105.456
105.858
106.235
106.586
106.909
107.203
107.468
107.702
107.904
108.073
108.209
108.313
108.378
108.418
69.485
69.4945
69.5173
69.5535
69.6024
69.6636
69.7375
69.8244
69.9245
70.0378
70.1644
70.3042
70.4576
70.6243
70.8046
70.9986
71.2062
71.4275
71.6627
71.9119
72.1752
72.4526
72.7439
73.0487
73.3661
73.6946
74.0328
74.3793
74.7332
75.0943
75.4624
75.838
76.2213
76.6123
77.0114
77.4185
77.8338
78.2573
78.6892
79.1296
79.5784
80.0357
80.5016
80.976
81.459
81.9505
82.4505
82.9589
83.4757
84.0007
84.5338
85.0748
85.6237
86.18
86.7437
87.3145
87.8919
88.4758
89.0657
89.6612
90.2619
90.8672
91.4767
92.0897
92.7056
93.3238
93.9436
94.5641
95.1845
95.804
96.4217
97.0365
97.6475
98.2535
98.8534
99.4462
100.03
100.605
101.168
101.719
102.257
102.779
103.285
103.772
104.241
104.688
105.113
105.515
105.891
106.241
106.564
106.858
107.123
107.356
107.558
107.727
107.863
107.967
108.032
108.072
69.3336
69.3432
69.3661
69.4027
69.4519
69.5133
69.5872
69.674
69.7739
69.8868
70.0128
70.1521
70.3046
70.4705
70.6498
70.8426
71.049
71.2689
71.5027
71.7502
72.0118
72.2872
72.5764
72.8788
73.1935
73.5191
73.8542
74.1974
74.5479
74.9054
75.2701
75.6421
76.0218
76.4092
76.8046
77.208
77.6195
78.0393
78.4674
78.9038
79.3486
79.802
80.2638
80.7341
81.2129
81.7002
82.196
82.7002
83.2126
83.7333
84.262
84.7987
85.3431
85.8951
86.4543
87.0207
87.5937
88.1732
88.7588
89.35
89.9464
90.5475
91.1528
91.7617
92.3737
92.988
93.6039
94.2207
94.8376
95.4537
96.068
96.6797
97.2876
97.8908
98.488
99.0782
99.6601
100.232
100.794
101.343
101.879
102.399
102.904
103.39
103.857
104.304
104.728
105.129
105.505
105.855
106.177
106.471
106.735
106.968
107.17
107.339
107.475
107.579
107.644
107.684
69.1701
69.1797
69.2028
69.2394
69.2887
69.3501
69.4239
69.5105
69.61
69.7224
69.8478
69.9862
70.1378
70.3026
70.4808
70.6722
70.8771
71.0955
71.3275
71.5732
71.8326
72.1058
72.3926
72.6923
73.004
73.3264
73.6581
73.9977
74.3445
74.6982
75.059
75.4272
75.8029
76.1864
76.5777
76.9771
77.3845
77.8
78.2239
78.656
79.0965
79.5454
80.0027
80.4685
80.9427
81.4254
81.9165
82.4159
82.9236
83.4394
83.9633
84.4951
85.0346
85.5816
86.136
86.6973
87.2655
87.8401
88.4207
89.0071
89.5986
90.195
90.7956
91.3999
92.0073
92.6172
93.2288
93.8414
94.4541
95.0662
95.6768
96.2848
96.8892
97.489
98.0832
98.6704
99.2495
99.8192
100.378
100.925
101.459
101.978
102.481
102.966
103.431
103.877
104.3
104.7
105.076
105.425
105.747
106.04
106.304
106.537
106.739
106.908
107.044
107.147
107.212
107.252
68.9944
69.0041
69.0271
69.0638
69.113
69.1742
69.2478
69.3339
69.4329
69.5446
69.6692
69.8067
69.9572
70.1208
70.2976
70.4875
70.6907
70.9073
71.1373
71.3808
71.638
71.9087
72.1927
72.4894
72.7979
73.1169
73.4448
73.7805
74.1232
74.4728
74.8295
75.1934
75.5649
75.944
76.331
76.7259
77.1288
77.5398
77.9589
78.3863
78.822
79.2661
79.7185
80.1793
80.6485
81.1261
81.612
82.1062
82.6086
83.1191
83.6377
84.1641
84.6982
85.2397
85.7886
86.3445
86.9072
87.4763
88.0515
88.6325
89.2187
89.8097
90.405
91.0042
91.6065
92.2113
92.818
93.4257
94.0339
94.6414
95.2476
95.8514
96.4518
97.0478
97.6383
98.2221
98.798
99.3647
99.921
100.465
100.997
101.513
102.014
102.497
102.962
103.406
103.828
104.227
104.602
104.95
105.272
105.565
105.828
106.061
106.262
106.431
106.567
106.671
106.735
106.775
68.8066
68.8163
68.8392
68.8758
68.9247
68.9857
69.0589
69.1445
69.2428
69.3537
69.4774
69.6138
69.763
69.9252
70.1004
70.2886
70.49
70.7045
70.9323
71.1734
71.428
71.6959
71.977
72.2705
72.5755
72.8906
73.2145
73.546
73.8844
74.2296
74.5817
74.941
75.3079
75.6823
76.0646
76.4546
76.8526
77.2586
77.6728
78.095
78.5256
78.9643
79.4114
79.8668
80.3305
80.8025
81.2828
81.7713
82.268
82.7727
83.2854
83.8058
84.334
84.8696
85.4125
85.9624
86.519
87.0821
87.6513
88.2262
88.8064
89.3915
89.981
90.5743
91.1709
91.7701
92.3713
92.9737
93.5765
94.179
94.7802
95.3792
95.975
96.5667
97.1529
97.7328
98.3049
98.8681
99.4211
99.9626
100.491
101.005
101.504
101.985
102.447
102.89
103.311
103.709
104.082
104.43
104.75
105.043
105.306
105.538
105.739
105.908
106.044
106.147
106.212
106.252
68.6067
68.6163
68.6392
68.6755
68.7242
68.7847
68.8574
68.9424
69.0399
69.1498
69.2724
69.4075
69.5554
69.716
69.8894
70.0757
70.275
70.4873
70.7126
70.9511
71.2029
71.4678
71.7456
72.0356
72.3368
72.6479
72.9675
73.2944
73.6282
73.9686
74.3159
74.6703
75.0322
75.4016
75.7787
76.1636
76.5563
76.957
77.3656
77.7824
78.2073
78.6404
79.0816
79.5312
79.9889
80.4549
80.9291
81.4114
81.9018
82.4002
82.9065
83.4206
83.9422
84.4713
85.0076
85.5509
86.1009
86.6574
87.22
87.7883
88.3619
88.9405
89.5235
90.1104
90.7006
91.2935
91.8885
92.4848
93.0818
93.6785
94.2741
94.8677
95.4583
96.0449
96.6264
97.2017
97.7695
98.3287
98.8779
99.4158
99.941
100.452
100.948
101.427
101.887
102.327
102.746
103.143
103.515
103.862
104.181
104.473
104.735
104.967
105.168
105.337
105.472
105.576
105.64
105.68
68.3948
68.4043
68.427
68.463
68.5113
68.5714
68.6434
68.7276
68.8242
68.9331
69.0544
69.1881
69.3344
69.4933
69.6648
69.849
70.046
70.2558
70.4785
70.7142
70.9629
71.2246
71.4989
71.7851
72.0823
72.389
72.704
73.0261
73.3548
73.6901
74.0322
74.3814
74.738
75.102
75.4736
75.8529
76.24
76.6349
77.0378
77.4486
77.8674
78.2944
78.7295
79.1727
79.624
80.0835
80.5511
81.0268
81.5104
82.002
82.5014
83.0084
83.523
84.045
84.5742
85.1103
85.6531
86.2024
86.7577
87.3188
87.8852
88.4565
89.0324
89.6121
90.1953
90.7813
91.3694
91.9591
92.5494
93.1396
93.729
94.3165
94.9012
95.4821
96.0581
96.6282
97.191
97.7455
98.2903
98.824
99.3454
99.853
100.345
100.821
101.279
101.717
102.134
102.528
102.899
103.244
103.563
103.853
104.115
104.346
104.546
104.715
104.85
104.953
105.017
105.057
68.1709
68.1803
68.2028
68.2385
68.2863
68.3458
68.417
68.5004
68.5959
68.7036
68.8236
68.9558
69.1003
69.2573
69.4267
69.6086
69.8032
70.0103
70.2302
70.4628
70.7082
70.9664
71.2369
71.5191
71.812
72.1141
72.4241
72.7411
73.0646
73.3945
73.7311
74.0747
74.4256
74.7839
75.1497
75.523
75.9041
76.2928
76.6894
77.0939
77.5063
77.9267
78.3551
78.7916
79.236
79.6886
80.1491
80.6176
81.0939
81.5781
82.0701
82.5696
83.0766
83.591
84.1124
84.6407
85.1757
85.7171
86.2645
86.8177
87.3762
87.9397
88.5076
89.0796
89.655
90.2333
90.8139
91.396
91.979
92.5621
93.1444
93.725
94.3031
94.8776
95.4474
96.0115
96.5686
97.1177
97.6573
98.1863
98.7032
99.2066
99.6952
100.167
100.622
101.057
101.471
101.863
102.232
102.575
102.892
103.182
103.442
103.673
103.872
104.04
104.174
104.277
104.341
104.381
67.9352
67.9445
67.9667
68.002
68.0493
68.1081
68.1785
68.2609
68.3553
68.4616
68.5801
68.7106
68.8533
69.0082
69.1753
69.3548
69.5467
69.751
69.9678
70.1971
70.4391
70.6935
70.9601
71.238
71.5263
71.8235
72.1283
72.4399
72.7577
73.0819
73.4126
73.7503
74.0952
74.4474
74.807
75.1741
75.5487
75.931
76.3209
76.7186
77.1242
77.5376
77.9589
78.3881
78.8253
79.2703
79.7233
80.1841
80.6527
81.129
81.6129
82.1044
82.6032
83.1093
83.6224
84.1423
84.6688
85.2017
85.7405
86.2851
86.835
87.3899
87.9493
88.5127
89.0796
89.6495
90.2217
90.7955
91.3704
91.9454
92.5199
93.0928
93.6634
94.2306
94.7934
95.3507
95.9014
96.4442
96.978
97.5014
98.013
98.5115
98.9955
99.4635
99.914
100.346
100.757
101.146
101.512
101.853
102.168
102.456
102.715
102.944
103.143
103.31
103.443
103.546
103.609
103.649
67.6877
67.6969
67.7189
67.7537
67.8004
67.8584
67.928
68.0092
68.1024
68.2073
68.3241
68.4528
68.5935
68.7462
68.9109
69.0878
69.2768
69.4781
69.6916
69.9175
70.1557
70.4062
70.6685
70.9419
71.2254
71.5174
71.8168
72.1226
72.4345
72.7526
73.0772
73.4087
73.7472
74.093
74.4461
74.8065
75.1743
75.5496
75.9326
76.3231
76.7214
77.1274
77.5411
77.9627
78.392
78.8291
79.274
79.7266
80.1869
80.6548
81.1302
81.613
82.103
82.6002
83.1043
83.6152
84.1326
84.6562
85.1859
85.7212
86.2618
86.8073
87.3573
87.9114
88.469
89.0296
89.5926
90.1573
90.7231
91.2893
91.855
92.4194
92.9816
93.5406
94.0955
94.6451
95.1884
95.7241
96.2511
96.768
97.2735
97.7662
98.2448
98.7077
99.1536
99.5809
99.9882
100.374
100.737
101.075
101.388
101.673
101.93
102.158
102.355
102.521
102.654
102.756
102.818
102.858
67.4287
67.4378
67.4594
67.4938
67.5398
67.597
67.6655
67.7457
67.8374
67.9408
68.0558
68.1826
68.3211
68.4714
68.6336
68.8077
68.9938
69.1918
69.4019
69.624
69.8584
70.1047
70.3626
70.6312
70.9095
71.1961
71.4898
71.7896
72.0953
72.407
72.7251
73.05
73.3819
73.7209
74.0671
74.4204
74.7811
75.1492
75.5247
75.9077
76.2982
76.6964
77.1021
77.5155
77.9366
78.3653
78.8016
79.2455
79.697
80.1559
80.6221
81.0957
81.5764
82.064
82.5586
83.0597
83.5673
84.081
84.6007
85.1259
85.6564
86.1918
86.7317
87.2756
87.823
88.3735
88.9264
89.4811
90.037
90.5933
91.1493
91.7042
92.257
92.8069
93.3528
93.8937
94.4286
94.9562
95.4753
95.9847
96.4831
96.9691
97.4413
97.8983
98.3386
98.7608
99.1633
99.5448
99.9036
100.238
100.548
100.831
101.085
101.311
101.506
101.671
101.802
101.904
101.965
102.005
67.1582
67.1672
67.1885
67.2223
67.2677
67.324
67.3915
67.4703
67.5606
67.6623
67.7755
67.9002
68.0364
68.1843
68.3437
68.5149
68.6977
68.8924
69.0988
69.3171
69.5473
69.7892
70.0424
70.3061
70.5791
70.86
71.1476
71.4411
71.7403
72.0453
72.3567
72.6747
72.9996
73.3315
73.6704
74.0164
74.3695
74.7299
75.0976
75.4726
75.855
76.2449
76.6423
77.0471
77.4594
77.8792
78.3064
78.7411
79.1832
79.6325
80.0891
80.5528
81.0235
81.501
81.9853
82.476
82.9731
83.4762
83.9852
84.4996
85.0192
85.5436
86.0725
86.6053
87.1417
87.6811
88.223
88.7667
89.3116
89.8571
90.4024
90.9466
91.489
92.0286
92.5645
93.0956
93.6209
94.1392
94.6494
95.1502
95.6404
96.1185
96.5832
97.0332
97.4669
97.8829
98.2797
98.6558
99.0098
99.3403
99.6458
99.9251
100.177
100.4
100.593
100.755
100.885
100.986
101.047
101.085
66.8766
66.8854
66.9063
66.9396
66.9842
67.0395
67.1059
67.1834
67.2721
67.3721
67.4833
67.6058
67.7396
67.8848
68.0414
68.2095
68.389
68.58
68.7827
68.9969
69.2228
69.4601
69.7084
69.9669
70.2342
70.5092
70.7905
71.0775
71.3698
71.6679
71.9722
72.283
72.6006
72.925
73.2563
73.5946
73.9399
74.2922
74.6517
75.0183
75.3922
75.7734
76.1619
76.5577
76.9608
77.3712
77.7888
78.2137
78.6459
79.0851
79.5314
79.9846
80.4447
80.9115
81.3848
81.8645
82.3503
82.8421
83.3395
83.8423
84.3502
84.8628
85.3797
85.9006
86.425
86.9524
87.4822
88.0139
88.5468
89.0804
89.6137
90.1462
90.677
91.2051
91.7297
92.2498
92.7643
93.2721
93.772
94.2629
94.7435
95.2125
95.6685
96.1101
96.5359
96.9445
97.3344
97.7041
98.0523
98.3773
98.678
98.9528
99.2006
99.4203
99.6104
99.7708
99.8987
99.9981
100.057
100.096
66.5838
66.5925
66.6131
66.6457
66.6895
66.7439
66.809
66.8851
66.9722
67.0703
67.1794
67.2996
67.4309
67.5734
67.727
67.8918
68.0678
68.2551
68.4537
68.6637
68.8851
69.1176
69.3608
69.6138
69.8754
70.1442
70.4189
70.699
70.9843
71.2752
71.572
71.8753
72.1853
72.5019
72.8254
73.1555
73.4926
73.8365
74.1874
74.5453
74.9102
75.2823
75.6614
76.0477
76.4411
76.8416
77.2492
77.6638
78.0855
78.514
78.9495
79.3916
79.8405
80.2958
80.7575
81.2253
81.6992
82.1788
82.6639
83.1543
83.6496
84.1495
84.6536
85.1616
85.6729
86.1872
86.7039
87.2225
87.7423
88.2627
88.783
89.3025
89.8203
90.3356
90.8476
91.3552
91.8575
92.3533
92.8416
93.3212
93.7907
94.2491
94.6948
95.1267
95.5432
95.943
96.3246
96.6866
97.0275
97.3459
97.6405
97.9099
98.1529
98.3683
98.5547
98.7121
98.8375
98.9352
98.9929
99.0307
66.2803
66.2887
66.3089
66.341
66.3839
66.4372
66.501
66.5756
66.661
66.7572
66.8642
66.982
67.1106
67.2502
67.4006
67.562
67.7344
67.9178
68.1123
68.3178
68.5345
68.762
68.9999
69.2473
69.5028
69.7651
70.0331
70.3061
70.584
70.8673
71.1565
71.452
71.754
72.0626
72.3778
72.6995
73.028
73.3631
73.705
74.0538
74.4094
74.7719
75.1413
75.5176
75.9008
76.291
76.688
77.0918
77.5024
77.9197
78.3437
78.7742
79.2111
79.6543
80.1037
80.559
81.0201
81.4868
81.9588
82.4358
82.9176
83.4039
83.8942
84.3882
84.8855
85.3857
85.8881
86.3923
86.8978
87.4038
87.9097
88.4148
88.9183
89.4195
89.9173
90.411
90.8995
91.3817
91.8567
92.3232
92.7801
93.2262
93.66
94.0804
94.486
94.8753
95.2469
95.5996
95.9318
96.2421
96.5293
96.7919
97.0288
97.2389
97.4207
97.5742
97.6965
97.792
97.8478
97.8848
65.966
65.9743
65.9941
66.0255
66.0675
66.1197
66.1823
66.2553
66.3389
66.433
66.5377
66.653
66.7789
66.9154
67.0626
67.2205
67.3891
67.5684
67.7586
67.9595
68.1713
68.3937
68.6261
68.8675
69.1168
69.3725
69.6334
69.8991
70.1694
70.4449
70.7261
71.0135
71.3073
71.6074
71.914
72.227
72.5465
72.8725
73.2051
73.5443
73.8902
74.2427
74.6019
74.9678
75.3404
75.7197
76.1056
76.4981
76.8971
77.3026
77.7145
78.1327
78.557
78.9874
79.4237
79.8658
80.3134
80.7663
81.2243
81.6872
82.1546
82.6262
83.1017
83.5808
84.0629
84.5477
85.0347
85.5234
86.0131
86.5034
86.9935
87.4828
87.9705
88.4558
88.938
89.416
89.889
90.3559
90.8158
91.2674
91.7098
92.1416
92.5616
92.9686
93.3612
93.7381
94.0979
94.4393
94.7609
95.0614
95.3395
95.5938
95.8232
96.0266
96.2027
96.3513
96.4696
96.5622
96.6157
96.6518
65.6414
65.6495
65.6688
65.6996
65.7407
65.7917
65.8528
65.9242
66.006
66.098
66.2003
66.313
66.436
66.5694
66.7132
66.8675
67.0321
67.2073
67.3929
67.5891
67.7958
68.0128
68.2395
68.4749
68.7178
68.9666
69.2202
69.4782
69.7407
70.0081
70.2811
70.5601
70.8453
71.1368
71.4345
71.7385
72.0487
72.3652
72.6881
73.0174
73.3531
73.6952
74.0438
74.3989
74.7604
75.1283
75.5026
75.8832
76.2701
76.6632
77.0624
77.4676
77.8787
78.2957
78.7182
79.1462
79.5795
80.0178
80.461
80.9087
81.3607
81.8168
82.2764
82.7394
83.2052
83.6735
84.1438
84.6155
85.0882
85.5613
86.0341
86.506
86.9762
87.4441
87.9087
88.3692
88.8248
89.2745
89.7172
90.1519
90.5775
90.9929
91.3969
91.7882
92.1656
92.5278
92.8736
93.2015
93.5104
93.799
94.0659
94.31
94.5301
94.7252
94.8941
95.0367
95.15
95.239
95.2897
95.3244
65.3066
65.3145
65.3334
65.3634
65.4035
65.4534
65.513
65.5828
65.6626
65.7524
65.8523
65.9622
66.0823
66.2125
66.3528
66.5032
66.6638
66.8346
67.0156
67.2069
67.4084
67.6199
67.8407
68.0698
68.306
68.5477
68.7939
69.044
69.2984
69.5575
69.8219
70.0923
70.3687
70.6512
70.9397
71.2343
71.5349
71.8416
72.1544
72.4734
72.7986
73.1299
73.4675
73.8113
74.1612
74.5172
74.8794
75.2476
75.6218
76.0019
76.3879
76.7795
77.1768
77.5795
77.9875
78.4007
78.8189
79.2418
79.6692
80.1009
80.5365
80.9759
81.4186
81.8643
82.3126
82.7631
83.2154
83.6688
84.123
84.5774
85.0313
85.484
85.935
86.3835
86.8287
87.2698
87.7058
88.136
88.5593
88.9747
89.3812
89.7777
90.1631
90.5362
90.8958
91.2407
91.5698
91.8817
92.1753
92.4494
92.7027
92.9343
93.143
93.3279
93.4878
93.6228
93.7298
93.8143
93.8614
93.8946
64.9618
64.9695
64.9879
65.0172
65.0563
65.1049
65.1631
65.2311
65.3089
65.3965
65.4938
65.601
65.718
65.8448
65.9815
66.128
66.2844
66.4507
66.627
66.8132
67.0093
67.2151
67.4298
67.6525
67.8818
68.1162
68.3547
68.5968
68.8428
69.0933
69.3491
69.6105
69.8778
70.151
70.4301
70.7149
71.0056
71.3021
71.6045
71.9129
72.2271
72.5473
72.8734
73.2055
73.5434
73.8871
74.2367
74.5919
74.9529
75.3195
75.6915
76.0689
76.4516
76.8395
77.2323
77.6299
78.0321
78.4387
78.8494
79.2641
79.6824
80.104
80.5287
80.9559
81.3855
81.8169
82.2497
82.6834
83.1175
83.5515
83.9847
84.4166
84.8465
85.2736
85.6972
86.1166
86.5308
86.9391
87.3405
87.734
88.1187
88.4936
88.8575
89.2094
89.5482
89.8727
90.182
90.4748
90.75
91.0066
91.2435
91.4597
91.6544
91.8266
91.9754
92.101
92.2001
92.2788
92.3216
92.3528
64.6073
64.6148
64.6327
64.6612
64.6993
64.7467
64.8033
64.8695
64.9452
65.0305
65.1252
65.2295
65.3433
65.4667
65.5997
65.7422
65.8943
66.056
66.2273
66.4083
66.5989
66.7988
67.0074
67.2234
67.4457
67.6726
67.9032
68.137
68.3744
68.6161
68.8629
69.1151
69.3731
69.6368
69.906
70.1809
70.4613
70.7474
71.039
71.3364
71.6393
71.948
72.2622
72.5821
72.9075
73.2385
73.5749
73.9168
74.2639
74.6163
74.9739
75.3365
75.7039
76.0762
76.453
76.8342
77.2196
77.609
78.0022
78.3989
78.7988
79.2016
79.607
80.0147
80.4241
80.835
81.2469
81.6593
82.0718
82.4836
82.8944
83.3035
83.7101
84.1137
84.5136
84.9089
85.2988
85.6825
86.0592
86.428
86.7878
87.1378
87.477
87.8043
88.1188
88.4195
88.7053
88.9753
89.2285
89.464
89.681
89.8785
90.0559
90.2126
90.3475
90.4613
90.5506
90.622
90.6594
90.6881
64.2433
64.2506
64.2681
64.2958
64.3328
64.3788
64.4339
64.4982
64.5718
64.6547
64.7468
64.8481
64.9587
65.0785
65.2077
65.3461
65.4937
65.6507
65.817
65.9926
66.1775
66.3714
66.5736
66.7829
66.9979
67.2172
67.4397
67.665
67.8937
68.1263
68.3638
68.6067
68.855
69.1089
69.3681
69.6327
69.9026
70.1778
70.4584
70.7444
71.0357
71.3324
71.6344
71.9417
72.2542
72.5719
72.8948
73.2227
73.5555
73.8932
74.2357
74.5828
74.9343
75.2903
75.6503
76.0144
76.3822
76.7536
77.1282
77.5059
77.8864
78.2692
78.6542
79.0409
79.429
79.818
80.2075
80.597
80.986
81.374
81.7603
82.1445
82.5258
82.9036
83.2772
83.6458
84.0086
84.3649
84.7139
85.0546
85.3862
85.7078
86.0185
86.3174
86.6036
86.8762
87.1344
87.3774
87.6043
87.8144
88.0072
88.1819
88.3381
88.4755
88.5932
88.6923
88.7695
88.8317
88.8624
88.8879
63.8702
63.8773
63.8942
63.9211
63.957
64.0017
64.0552
64.1176
64.189
64.2694
64.3587
64.457
64.5643
64.6805
64.8057
64.9399
65.0831
65.2352
65.3963
65.5665
65.7456
65.9333
66.1289
66.3313
66.5389
66.7504
66.9646
67.1813
67.4009
67.6243
67.8524
68.0856
68.3241
68.5679
68.8168
69.0708
69.3299
69.594
69.8632
70.1375
70.4169
70.7012
70.9906
71.2849
71.5841
71.8881
72.1969
72.5103
72.8283
73.1507
73.4775
73.8085
74.1435
74.4824
74.825
75.1711
75.5205
75.8729
76.2281
76.5858
76.9457
77.3075
77.6709
78.0354
78.4006
78.7663
79.1318
79.4967
79.8605
80.2227
80.5826
80.9398
81.2934
81.6429
81.9876
82.3267
82.6595
82.9852
83.303
83.6121
83.9117
84.2009
84.4789
84.745
84.9983
85.2382
85.4638
85.6747
85.8701
86.0498
86.2132
86.3601
86.4903
86.6039
86.7003
86.7811
86.8429
86.8936
86.9158
86.9374
63.4881
63.495
63.5114
63.5374
63.5723
63.6156
63.6674
63.7279
63.797
63.8749
63.9614
64.0566
64.1605
64.273
64.3942
64.5241
64.6626
64.8098
64.9656
65.1302
65.3033
65.4848
65.6737
65.869
66.0691
66.2725
66.4783
66.6862
66.8966
67.1106
67.329
67.5524
67.7808
68.0143
68.2527
68.4959
68.7438
68.9966
69.2541
69.5164
69.7834
70.0551
70.3314
70.6123
70.8978
71.1877
71.4819
71.7804
72.083
72.3896
72.7002
73.0144
73.3322
73.6534
73.9778
74.3051
74.6352
74.9678
75.3026
75.6393
75.9776
76.3172
76.6576
76.9986
77.3397
77.6805
78.0204
78.359
78.6958
79.0302
79.3616
79.6894
80.0129
80.3315
80.6445
80.9511
81.2506
81.5422
81.8252
82.0988
82.3621
82.6145
82.8552
83.0834
83.2986
83.5002
83.6875
83.8603
84.0183
84.1612
84.2891
84.4021
84.5004
84.5845
84.6545
84.7122
84.7548
84.7909
84.8026
84.8191
63.0974
63.104
63.1199
63.1451
63.1788
63.2207
63.2708
63.3293
63.3962
63.4715
63.5552
63.6472
63.7476
63.8563
63.9735
64.0989
64.2327
64.3748
64.5253
64.6841
64.8512
65.0262
65.2084
65.3964
65.5888
65.7841
65.9813
66.1802
66.3813
66.5857
66.7942
67.0075
67.2256
67.4486
67.6762
67.9083
68.1449
68.386
68.6315
68.8815
69.1359
69.3946
69.6575
69.9247
70.196
70.4713
70.7506
71.0336
71.3204
71.6107
71.9043
72.2012
72.5012
72.804
73.1094
73.4173
73.7272
74.0391
74.3525
74.6672
74.9828
75.299
75.6154
75.9315
76.247
76.5613
76.874
77.1846
77.4924
77.797
78.0976
78.3937
78.6845
78.9695
79.2477
79.5186
79.7814
80.0352
80.2794
80.5131
80.7356
80.9462
81.1442
81.3289
81.5
81.6569
81.7993
81.9271
82.0403
82.1392
82.2241
82.2956
82.3546
82.4023
82.4392
82.4681
82.4865
82.5041
82.5025
82.5125
62.6983
62.7047
62.72
62.7444
62.7769
62.8174
62.8657
62.9222
62.9868
63.0595
63.1402
63.229
63.3259
63.4308
63.5437
63.6647
63.7937
63.9306
64.0756
64.2286
64.3896
64.558
64.7333
64.914
65.0986
65.2856
65.474
65.6637
65.8554
66.0499
66.2484
66.4515
66.6591
66.8713
67.0879
67.3088
67.5338
67.7629
67.9962
68.2336
68.475
68.7204
68.9696
69.2227
69.4794
69.7398
70.0036
70.2708
70.5411
70.8146
71.0909
71.3699
71.6513
71.9351
72.2208
72.5084
72.7974
73.0877
73.3788
73.6705
73.9623
74.254
74.545
74.835
75.1234
75.4097
75.6935
75.9742
76.2511
76.5237
76.7913
77.0532
77.3087
77.557
77.7975
78.0293
78.2516
78.4636
78.6646
78.8537
79.0303
79.1935
79.3429
79.4778
79.5979
79.7028
79.7926
79.8672
79.9272
79.9731
80.0059
80.0268
80.0375
80.0399
80.0355
80.0281
80.0159
80.0098
79.9912
79.993
62.2911
62.2973
62.3121
62.3355
62.3669
62.4059
62.4525
62.5069
62.5692
62.6392
62.7169
62.8025
62.8957
62.9967
63.1054
63.2218
63.3459
63.4776
63.617
63.7641
63.9188
64.0806
64.2488
64.422
64.5987
64.7773
64.9568
65.1373
65.3193
65.5039
65.6922
65.8848
66.0818
66.2831
66.4885
66.6978
66.911
67.128
67.3488
67.5733
67.8014
68.0331
68.2683
68.5069
68.7488
68.9938
69.2418
69.4926
69.7462
70.0022
70.2606
70.5211
70.7835
71.0475
71.3129
71.5794
71.8467
72.1145
72.3824
72.6501
72.9171
73.1831
73.4475
73.7099
73.9698
74.2267
74.4799
74.7288
74.9729
75.2113
75.4435
75.6687
75.886
76.0948
76.2941
76.4831
76.661
76.827
76.9801
77.1196
77.2446
77.3545
77.4487
77.5266
77.588
77.6326
77.6607
77.6726
77.6692
77.6515
77.6212
77.5803
77.5314
77.4775
77.4212
77.3678
77.3165
77.2802
77.2399
77.2311
61.8761
61.8821
61.8963
61.9189
61.9491
61.9865
62.0314
62.0837
62.1435
62.2109
62.2856
62.3678
62.4574
62.5544
62.6588
62.7706
62.8897
63.0161
63.1499
63.2909
63.4392
63.5943
63.7554
63.921
64.0896
64.2597
64.4303
64.6013
64.7736
64.9481
65.1261
65.3081
65.4943
65.6844
65.8784
66.076
66.2772
66.4818
66.6898
66.9012
67.1158
67.3336
67.5545
67.7783
68.0049
68.2341
68.4659
68.7
68.9363
69.1745
69.4144
69.6559
69.8986
70.1422
70.3866
70.6314
70.8762
71.1207
71.3645
71.6072
71.8483
72.0874
72.3241
72.5576
72.7876
73.0133
73.2342
73.4496
73.6588
73.8609
74.0553
74.2411
74.4174
74.5835
74.7382
74.8808
75.0102
75.1255
75.2257
75.3101
75.3776
75.4275
75.4592
75.4721
75.466
75.4409
75.397
75.3351
75.2562
75.1623
75.0555
74.939
74.8163
74.692
74.5704
74.4584
74.3571
74.2816
74.2132
74.1906
61.4537
61.4594
61.473
61.4947
61.5237
61.5596
61.6027
61.6529
61.7103
61.7749
61.8466
61.9254
62.0113
62.1043
62.2043
62.3114
62.4255
62.5465
62.6745
62.8095
62.9513
63.0996
63.2534
63.4114
63.5718
63.7333
63.8948
64.0564
64.2187
64.3831
64.5506
64.7218
64.897
65.0759
65.2583
65.444
65.6329
65.8249
66.02
66.218
66.4189
66.6225
66.8287
67.0374
67.2484
67.4616
67.6768
67.8937
68.1123
68.3322
68.5532
68.7751
68.9976
69.2203
69.443
69.6653
69.8869
70.1073
70.3261
70.5429
70.7571
70.9683
71.1759
71.3793
71.5779
71.771
71.9579
72.1379
72.3101
72.4738
72.628
72.7718
72.9042
73.0243
73.1309
73.2231
73.2996
73.3595
73.4017
73.425
73.4284
73.4112
73.3724
73.3116
73.2283
73.1226
72.9949
72.8461
72.6778
72.4924
72.293
72.0837
71.8696
71.6572