/*--------------------------------*- C++ -*----------------------------------*\
| =========                 |                                                 |
| \\      /  F ield         | OpenFOAM: The Open Source CFD Toolbox           |
|  \\    /   O peration     | Version:  4.1                                   |
|   \\  /    A nd           | Web:      www.OpenFOAM.org                      |
|    \\/     M anipulation  |                                                 |
\*---------------------------------------------------------------------------*/
FoamFile
{
    version     2.0;
    format      ascii;
    class       surfaceScalarField;
    location    "0.05";
    object      phi;
}
// * * * * * * * * * * * * * * * * * * * * * * * * * * * * * * * * * * * * * //

dimensions      [0 3 -1 0 0 0 0];

internalField   nonuniform List<scalar> 
87025
(
0.019967
3.30422e-05
0.0199118
5.5192e-05
0.0198459
6.58563e-05
0.0197713
7.45857e-05
0.0196885
8.28097e-05
0.0195982
9.0349e-05
0.0195009
9.7279e-05
0.019397
0.000103905
0.0192865
0.00011045
0.0191695
0.00011701
0.0190459
0.000123619
0.0189156
0.000130292
0.0187786
0.000136999
0.018635
0.000143644
0.0184849
0.000150034
0.0183291
0.000155852
0.0181684
0.000160647
0.0180045
0.00016389
0.0178394
0.0001651
0.0176756
0.000163867
0.0175154
0.00016022
0.0173605
0.000154886
0.0172113
0.000149207
0.0170666
0.000144671
0.0169243
0.000142269
0.0167822
0.000142133
0.0166385
0.000143649
0.0164926
0.000145917
0.0163444
0.000148223
0.0161941
0.000150264
0.0160421
0.000152088
0.0158882
0.000153881
0.0157324
0.000155788
0.0155745
0.000157851
0.0154145
0.000160041
0.0152522
0.000162315
0.0150875
0.000164649
0.0149205
0.000167041
0.014751
0.000169497
0.014579
0.000172024
0.0144043
0.000174624
0.014227
0.000177295
0.014047
0.000180037
0.0138642
0.000182846
0.0136784
0.000185721
0.0134898
0.000188658
0.0132981
0.000191656
0.0131034
0.000194711
0.0129056
0.00019782
0.0127046
0.000200978
0.0125004
0.000204181
0.012293
0.000207424
0.0120823
0.000210701
0.0118683
0.000214006
0.011651
0.000217331
0.0114303
0.00022067
0.0112063
0.000224014
0.0109789
0.000227354
0.0107483
0.00023068
0.0105143
0.000233983
0.010277
0.000237252
0.0100365
0.000240474
0.00979291
0.000243638
0.00954618
0.00024673
0.00929644
0.000249738
0.0090438
0.000252647
0.00878835
0.000255442
0.00853024
0.000258111
0.00826961
0.000260637
0.0080066
0.000263007
0.00774139
0.000265206
0.00747417
0.000267219
0.00720514
0.000269034
0.0069345
0.000270638
0.00666248
0.000272019
0.00638932
0.000273169
0.00611524
0.000274079
0.00584049
0.000274744
0.00556533
0.00027516
0.00529001
0.000275326
0.00501476
0.000275246
0.00473984
0.000274923
0.00446547
0.000274369
0.00419187
0.000273596
0.00391925
0.000272621
0.00364779
0.000271464
0.00337764
0.000270149
0.00310893
0.000268705
0.00284177
0.000267162
0.00257622
0.000265554
0.0023123
0.000263914
0.00205002
0.00026228
0.00178934
0.000260685
0.00153018
0.000259159
0.00127245
0.000257728
0.00101607
0.000256381
0.000760892
0.000255178
0.000507215
0.000253677
0.000253312
0.000253902
0.000253312
0.0200237
9.3357e-06
0.0200531
2.57985e-05
0.020082
3.69161e-05
0.0201106
4.59786e-05
0.0201386
5.48981e-05
0.0201652
6.36981e-05
0.0201903
7.21988e-05
0.0202137
8.05158e-05
0.0202353
8.8826e-05
0.0202551
9.72145e-05
0.020273
0.000105703
0.020289
0.000114297
0.020303
0.000123003
0.0203148
0.00013182
0.0203241
0.000140727
0.0203304
0.000149634
0.0203327
0.000158342
0.02033
0.000166546
0.0203211
0.000174033
0.0203037
0.000181205
0.0202746
0.000189314
0.0202293
0.000200205
0.0201632
0.000215371
0.020073
0.000234811
0.0199588
0.000256528
0.0198237
0.000277189
0.0196737
0.00029361
0.0195155
0.000304163
0.0193544
0.000309265
0.0191939
0.000310801
0.019035
0.000310999
0.0188774
0.000311499
0.0187202
0.000313012
0.0185625
0.000315524
0.0184038
0.00031871
0.0182439
0.000322265
0.0180825
0.000326025
0.0179196
0.000329954
0.017755
0.000334068
0.0175886
0.000338387
0.0174203
0.000342919
0.01725
0.000347665
0.0170774
0.000352621
0.0169025
0.000357784
0.016725
0.000363151
0.016545
0.000368722
0.0163621
0.000374496
0.0161764
0.00038047
0.0159875
0.000386642
0.0157955
0.000393009
0.0156001
0.000399569
0.0154012
0.000406317
0.0151987
0.000413249
0.0149923
0.00042036
0.014782
0.000427643
0.0145676
0.000435091
0.0143489
0.000442696
0.0141258
0.000450449
0.0138982
0.000458338
0.0136658
0.000466353
0.0134286
0.00047448
0.0131863
0.000482704
0.012939
0.000491009
0.0126863
0.000499378
0.0124283
0.000507793
0.0121647
0.000516232
0.0118954
0.000524673
0.0116205
0.000533093
0.0113396
0.000541468
0.0110529
0.00054977
0.0107601
0.000557974
0.0104613
0.000566052
0.0101563
0.000573973
0.00984525
0.000581711
0.00952804
0.000589234
0.00920469
0.000596516
0.00887524
0.000603527
0.00853975
0.00061024
0.00819827
0.000616632
0.00785092
0.000622678
0.00749781
0.000628358
0.00713908
0.000633655
0.00677489
0.000638556
0.00640544
0.000643051
0.00603092
0.000647136
0.00565158
0.000650811
0.00526765
0.000654081
0.00487939
0.000656957
0.0044871
0.000659453
0.00409107
0.000661591
0.00369159
0.000663392
0.00328899
0.000664883
0.00288358
0.00066609
0.0024757
0.000667036
0.00206569
0.000667742
0.00165388
0.000668193
0.0012406
0.000668456
0.000826215
0.000668063
0.000411043
0.000669074
0.000664356
0.0200007
8.65645e-06
0.0200013
2.5217e-05
0.019999
3.92057e-05
0.0199936
5.13504e-05
0.0199856
6.28915e-05
0.0199751
7.41987e-05
0.0199621
8.52098e-05
0.0199466
9.59605e-05
0.0199289
0.000106582
0.0199089
0.000117166
0.0198869
0.000127738
0.0198629
0.000138292
0.0198371
0.000148825
0.0198096
0.00015935
0.0197804
0.000169872
0.0197498
0.00018029
0.0197179
0.00019025
0.0196852
0.000199198
0.0196523
0.000206887
0.0196193
0.000214241
0.0195848
0.00022382
0.0195456
0.000239428
0.0194965
0.000264455
0.0194316
0.000299664
0.0193463
0.000341871
0.0192388
0.000384689
0.0191112
0.000421172
0.0189686
0.000446795
0.0188169
0.000461002
0.0186611
0.000466596
0.0185043
0.000467747
0.0183478
0.000468005
0.0181915
0.000469311
0.0180349
0.000472125
0.0178775
0.00047611
0.017719
0.000480782
0.0175592
0.000485832
0.017398
0.000491156
0.0172353
0.000496761
0.017071
0.000502675
0.016905
0.000508914
0.0167372
0.000515479
0.0165675
0.000522364
0.0163957
0.000529566
0.0162218
0.000537081
0.0160456
0.000544908
0.015867
0.000553048
0.015686
0.000561497
0.0155024
0.000570257
0.0153161
0.000579324
0.0151269
0.000588698
0.0149349
0.000598375
0.0147398
0.000608354
0.0145415
0.000618631
0.0143399
0.000629201
0.014135
0.00064006
0.0139265
0.000651203
0.0137143
0.000662621
0.0134983
0.000674307
0.0132784
0.000686253
0.0130545
0.000698447
0.0128263
0.000710877
0.0125938
0.000723532
0.0123567
0.000736394
0.0121151
0.000749449
0.0118686
0.000762678
0.0116172
0.000776062
0.0113608
0.000789577
0.011099
0.000803202
0.0108319
0.000816909
0.0105592
0.000830673
0.0102808
0.000844464
0.0099965
0.000858251
0.00970621
0.000872001
0.00940977
0.00088568
0.00910703
0.000899253
0.00879787
0.000912681
0.00848219
0.000925926
0.00815987
0.00093895
0.00783083
0.000951713
0.00749502
0.000964173
0.00715238
0.000976292
0.00680291
0.000988028
0.00644662
0.000999342
0.00608356
0.0010102
0.00571382
0.00102055
0.00533752
0.00103038
0.00495484
0.00103964
0.004566
0.0010483
0.00417126
0.00105633
0.00377093
0.00106372
0.00336539
0.00107042
0.00295505
0.00107643
0.00254037
0.00108172
0.00212184
0.00108627
0.00169999
0.00109004
0.00127535
0.00109309
0.000848407
0.00109501
0.000420213
0.00109727
0.00108457
0.0199998
8.85324e-06
0.0199986
2.63978e-05
0.019995
4.27869e-05
0.0199884
5.79709e-05
0.0199788
7.25051e-05
0.0199663
8.67507e-05
0.0199507
0.00010076
0.0199321
0.000114546
0.0199105
0.000128185
0.0198859
0.000141753
0.0198584
0.000155281
0.0198279
0.000168766
0.0197945
0.000182202
0.0197583
0.000195612
0.0197191
0.000209024
0.0196771
0.000222342
0.0196321
0.000235191
0.0195843
0.000247019
0.0195335
0.000257709
0.0194791
0.000268586
0.0194199
0.000283061
0.0193533
0.000306023
0.0192761
0.00034166
0.0191851
0.000390642
0.0190784
0.000448569
0.0189561
0.000507032
0.0188203
0.000556981
0.0186746
0.000592492
0.0185228
0.00061275
0.0183681
0.000621328
0.0182122
0.000623656
0.0180557
0.000624443
0.0178987
0.000626348
0.0177407
0.000630093
0.0175815
0.000635322
0.0174209
0.000641447
0.0172586
0.000648077
0.0170947
0.000655076
0.016929
0.000662446
0.0167615
0.000670223
0.0165919
0.000678426
0.0164204
0.000687056
0.0162466
0.000696107
0.0160706
0.000705572
0.0158923
0.00071545
0.0157114
0.000725737
0.015528
0.000736433
0.015342
0.000747536
0.0151532
0.000759045
0.0149616
0.000770958
0.014767
0.000783272
0.0145694
0.000795986
0.0143687
0.000809096
0.0141647
0.000822597
0.0139574
0.000836486
0.0137467
0.000850757
0.0135325
0.000865403
0.0133147
0.000880417
0.0130932
0.00089579
0.012868
0.000911512
0.0126388
0.000927573
0.0124058
0.00094396
0.0121686
0.000960658
0.0119274
0.000977654
0.0116819
0.000994929
0.0114321
0.00101247
0.0111779
0.00103024
0.0109193
0.00104824
0.010656
0.00106643
0.0103881
0.0010848
0.0101155
0.00110331
0.00983804
0.00112193
0.00955566
0.00114063
0.00926828
0.00115938
0.0089758
0.00117815
0.00867816
0.0011969
0.00837525
0.00121558
0.00806702
0.00123416
0.00775337
0.0012526
0.00743425
0.00127083
0.00710959
0.00128883
0.00677935
0.00130653
0.0064435
0.00132388
0.00610202
0.00134082
0.00575492
0.0013573
0.00540224
0.00137324
0.00504403
0.00138859
0.00468039
0.00140327
0.00431147
0.00141722
0.00393745
0.00143036
0.00355855
0.00144261
0.00317505
0.00145392
0.00278729
0.0014642
0.00239564
0.00147338
0.00200051
0.0014814
0.00160238
0.00148818
0.00120172
0.00149375
0.000798963
0.00149777
0.000394984
0.00150125
0.00147955
0.0199993
9.57495e-06
0.0199969
2.87543e-05
0.0199923
4.73792e-05
0.019985
6.52653e-05
0.0199749
8.26072e-05
0.019962
9.96501e-05
0.0199463
0.000116491
0.0199277
0.000133158
0.0199062
0.000149698
0.0198818
0.000166168
0.0198544
0.000182602
0.0198242
0.000199001
0.019791
0.000215365
0.0197549
0.00023174
0.0197158
0.000248175
0.0196735
0.000264565
0.0196283
0.000280451
0.0195801
0.000295177
0.0195291
0.000308731
0.0194746
0.000323054
0.0194149
0.000342773
0.0193468
0.000374156
0.0192663
0.000422105
0.0191703
0.000486675
0.0190574
0.000561491
0.0189289
0.000635562
0.0187881
0.000697726
0.0186394
0.000741197
0.0184865
0.000765636
0.0183319
0.000775916
0.0181767
0.000778871
0.018021
0.000780195
0.0178643
0.000782987
0.0177064
0.000788001
0.017547
0.000794753
0.0173859
0.000802535
0.0172231
0.0008109
0.0170585
0.000819707
0.0168919
0.000828972
0.0167234
0.000838744
0.0165528
0.000849046
0.01638
0.000859879
0.0162048
0.000871237
0.0160273
0.000883113
0.0158472
0.000895503
0.0156646
0.000908407
0.0154792
0.000921823
0.015291
0.000935749
0.0150998
0.000950185
0.0149057
0.000965127
0.0147084
0.000980573
0.0145078
0.000996519
0.014304
0.00101296
0.0140967
0.0010299
0.0138858
0.00104732
0.0136714
0.00106522
0.0134532
0.00108359
0.0132312
0.00110242
0.0130053
0.0011217
0.0127754
0.00114142
0.0125414
0.00116156
0.0123032
0.00118211
0.0120608
0.00120304
0.0118141
0.00122435
0.0115631
0.00124601
0.0113075
0.00126799
0.0110475
0.00129027
0.0107829
0.00131283
0.0105137
0.00133563
0.0102399
0.00135864
0.00996136
0.00138183
0.00967812
0.00140517
0.00939014
0.00142861
0.00909741
0.00145212
0.00879992
0.00147565
0.00849766
0.00149916
0.00819064
0.0015226
0.00787887
0.00154593
0.00756237
0.0015691
0.00724117
0.00159204
0.0069153
0.0016147
0.00658481
0.00163702
0.00624974
0.00165894
0.00591018
0.00168039
0.00556619
0.00170129
0.00521787
0.00172156
0.00486532
0.00174113
0.00450869
0.0017599
0.00414811
0.00177779
0.00378377
0.0017947
0.00341587
0.00181052
0.00304462
0.00182516
0.0026703
0.00183852
0.00229319
0.00185049
0.00191361
0.00186098
0.00153189
0.00186989
0.00114841
0.00187723
0.000763496
0.00188268
0.000377699
0.00188704
0.00185725
0.019999
1.05466e-05
0.0199961
3.16827e-05
0.0199909
5.25343e-05
0.0199833
7.29479e-05
0.0199729
9.29717e-05
0.0199598
0.000112743
0.0199439
0.000132351
0.0199253
0.000151833
0.0199037
0.000171223
0.0198794
0.000190562
0.0198521
0.000209875
0.0198219
0.000229163
0.0197888
0.000248433
0.0197528
0.000267742
0.0197139
0.000287166
0.0196718
0.000306604
0.0196267
0.000325549
0.0195786
0.000343282
0.0195275
0.000359878
0.0194728
0.000377749
0.0194131
0.000402494
0.0193456
0.000441611
0.0192668
0.000500863
0.0191734
0.000580086
0.0190636
0.00067134
0.0189379
0.000761194
0.0187995
0.0008362
0.0186523
0.000888383
0.0185003
0.000917601
0.0183463
0.000929916
0.0181916
0.000933597
0.0180364
0.000935433
0.0178803
0.000939052
0.017723
0.000945296
0.0175642
0.000953566
0.0174037
0.000963018
0.0172415
0.000973137
0.0170774
0.00098377
0.0169114
0.000994945
0.0167435
0.00100672
0.0165734
0.00101914
0.0164011
0.00103219
0.0162264
0.00104586
0.0160494
0.00106017
0.0158698
0.00107509
0.0156876
0.00109064
0.0155026
0.0011068
0.0153148
0.00112358
0.015124
0.00114098
0.0149301
0.00115899
0.0147331
0.00117761
0.0145327
0.00119685
0.014329
0.00121669
0.0141218
0.00123713
0.0139109
0.00125816
0.0136964
0.00127977
0.013478
0.00130196
0.0132557
0.00132472
0.0130294
0.00134803
0.0127989
0.00137187
0.0125642
0.00139623
0.0123253
0.00142109
0.0120819
0.00144643
0.011834
0.00147222
0.0115816
0.00149844
0.0113245
0.00152506
0.0110627
0.00155205
0.0107962
0.00157937
0.0105248
0.00160698
0.0102486
0.00163485
0.00996751
0.00166294
0.00968149
0.00169118
0.00939055
0.00171955
0.00909469
0.00174798
0.00879391
0.00177642
0.00848824
0.00180482
0.00817773
0.00183312
0.00786242
0.00186124
0.00754238
0.00188914
0.00721768
0.00191673
0.00688844
0.00194395
0.00655475
0.00197071
0.00621673
0.00199695
0.00587453
0.00202258
0.0055283
0.00204752
0.00517821
0.00207166
0.00482442
0.00209492
0.00446713
0.00211719
0.00410655
0.00213838
0.00374288
0.00215836
0.00337636
0.00217704
0.00300723
0.00219429
0.00263573
0.00221001
0.00226214
0.00222408
0.00188671
0.0022364
0.00150975
0.00224686
0.00113153
0.00225545
0.000752357
0.00226184
0.000372568
0.00226683
0.00222982
0.0199989
1.16276e-05
0.0199957
3.49212e-05
0.0199901
5.80699e-05
0.0199821
8.09683e-05
0.0199715
0.000103612
0.0199582
0.000126069
0.0199421
0.000148405
0.0199233
0.000170656
0.0199016
0.000192854
0.0198772
0.000215029
0.0198499
0.0002372
0.0198197
0.000259365
0.0197865
0.000281538
0.0197505
0.000303796
0.0197114
0.00032624
0.0196693
0.000348768
0.019624
0.00037081
0.0195757
0.000391549
0.0195245
0.0004111
0.0194699
0.000432313
0.0194107
0.000461753
0.0193441
0.00050818
0.0192667
0.000578269
0.0191751
0.000671722
0.0190673
0.000779146
0.0189437
0.000884768
0.018807
0.000972863
0.0186613
0.00103415
0.0185103
0.00106853
0.0183571
0.00108314
0.0182031
0.00108765
0.0180485
0.00108999
0.0178932
0.00109439
0.0177366
0.00110183
0.0175786
0.0011116
0.0174189
0.00112272
0.0172575
0.00113459
0.0170942
0.00114705
0.016929
0.00116013
0.0167618
0.00117391
0.0165925
0.00118842
0.016421
0.00120368
0.0162472
0.00121967
0.016071
0.00123638
0.0158923
0.00125383
0.0157109
0.00127199
0.0155268
0.00129089
0.0153399
0.00131051
0.01515
0.00133086
0.0149571
0.00135193
0.014761
0.00137372
0.0145616
0.00139623
0.0143588
0.00141946
0.0141525
0.00144339
0.0139427
0.00146803
0.0137291
0.00149336
0.0135117
0.00151938
0.0132903
0.00154607
0.0130649
0.00157341
0.0128354
0.0016014
0.0126016
0.00163
0.0123635
0.00165921
0.0121209
0.00168899
0.0118739
0.00171932
0.0116221
0.00175016
0.0113657
0.00178149
0.0111045
0.00181326
0.0108384
0.00184543
0.0105675
0.00187797
0.0102915
0.00191081
0.0100105
0.00194391
0.00972448
0.00197722
0.00943337
0.00201066
0.00913716
0.00204419
0.00883587
0.00207772
0.0085295
0.00211119
0.00821809
0.00214452
0.0079017
0.00217764
0.00758038
0.00221046
0.00725422
0.00224289
0.00692333
0.00227484
0.00658783
0.00230622
0.00624785
0.00233693
0.00590356
0.00236687
0.00555514
0.00239594
0.00520278
0.00242402
0.00484668
0.00245101
0.00448709
0.00247679
0.00412422
0.00250124
0.00375834
0.00252425
0.00338969
0.00254568
0.00301855
0.00256543
0.00264519
0.00258338
0.00226988
0.00259939
0.00189289
0.00261339
0.00151452
0.00262523
0.00113505
0.00263493
0.000754771
0.00264212
0.000373977
0.00264763
0.0026038
0.0199989
1.27688e-05
0.0199954
3.8346e-05
0.0199896
6.38556e-05
0.0199814
8.9229e-05
0.0199706
0.00011445
0.0199571
0.000139549
0.0199409
0.000164572
0.019922
0.000189554
0.0199003
0.000214523
0.0198759
0.000239505
0.0198485
0.000264513
0.0198184
0.000289543
0.0197853
0.000314614
0.0197493
0.000339818
0.0197102
0.000365279
0.0196681
0.000390893
0.0196229
0.000416026
0.0195747
0.000439767
0.0195235
0.000462271
0.019469
0.000486811
0.0194099
0.000520886
0.0193436
0.000574475
0.0192667
0.000655153
0.0191759
0.000762532
0.0190692
0.000885846
0.0189469
0.00100706
0.0188115
0.00110822
0.018667
0.0011787
0.0185171
0.00121839
0.0183648
0.00123542
0.0182116
0.00124085
0.0180579
0.00124374
0.0179033
0.00124894
0.0177476
0.00125757
0.0175903
0.00126884
0.0174314
0.00128163
0.0172708
0.00129526
0.0171083
0.00130955
0.0169439
0.00132454
0.0167774
0.00134032
0.0166089
0.00135693
0.0164382
0.00137438
0.0162652
0.00139267
0.0160898
0.0014118
0.0159119
0.00143175
0.0157313
0.00145254
0.0155481
0.00147416
0.015362
0.00149661
0.0151729
0.0015199
0.0149809
0.00154401
0.0147856
0.00156897
0.0145871
0.00159474
0.0143852
0.00162135
0.0141798
0.00164877
0.0139709
0.00167701
0.0137582
0.00170605
0.0135417
0.00173588
0.0133212
0.0017665
0.0130968
0.00179787
0.0128682
0.00183
0.0126353
0.00186285
0.0123981
0.0018964
0.0121565
0.00193063
0.0119103
0.0019655
0.0116595
0.00200098
0.011404
0.00203703
0.0111436
0.00207361
0.0108784
0.00211066
0.0106082
0.00214815
0.010333
0.00218601
0.0100527
0.00222419
0.00976733
0.00226261
0.00947679
0.00230121
0.00918107
0.0023399
0.00888017
0.00237862
0.00857409
0.00241727
0.00826284
0.00245577
0.00794647
0.00249401
0.00762502
0.0025319
0.00729857
0.00256934
0.00696721
0.0026062
0.00663104
0.00264239
0.0062902
0.00267777
0.00594484
0.00271223
0.00559514
0.00274565
0.00524127
0.00277789
0.00488346
0.00280882
0.00452193
0.00283832
0.00415694
0.00286624
0.00378872
0.00289246
0.00341757
0.00291684
0.00304375
0.00293925
0.00266756
0.00295956
0.0022893
0.00297766
0.00190925
0.00299343
0.00152773
0.00300675
0.00114504
0.00301762
0.0007615
0.00302566
0.00037741
0.00303172
0.00298121
0.0199988
1.39464e-05
0.0199953
4.18814e-05
0.0199893
6.97959e-05
0.0199809
9.76471e-05
0.01997
0.000125421
0.0199564
0.000153133
0.0199401
0.000180817
0.0199212
0.000208501
0.0198995
0.000236213
0.019875
0.000263976
0.0198477
0.0002918
0.0198176
0.00031968
0.0197846
0.000347635
0.0197486
0.000375776
0.0197096
0.00040425
0.0196676
0.000432948
0.0196224
0.000461168
0.0195743
0.000487897
0.0195233
0.000513316
0.019469
0.000541105
0.0194102
0.000579692
0.0193444
0.000640281
0.0192681
0.000731375
0.0191782
0.000852515
0.0190724
0.000991589
0.0189512
0.00112832
0.0188169
0.00124251
0.0186733
0.00132222
0.0185245
0.00136726
0.0183731
0.00138677
0.0182208
0.00139316
0.0180679
0.00139663
0.0179142
0.00140263
0.0177594
0.00141246
0.017603
0.00142523
0.0174449
0.00143969
0.0172851
0.0014551
0.0171234
0.00147122
0.0169598
0.00148812
0.0167943
0.00150589
0.0166266
0.0015246
0.0164567
0.00154426
0.0162845
0.00156485
0.0161099
0.00158638
0.0159329
0.00160884
0.0157531
0.00163225
0.0155707
0.00165659
0.0153855
0.00168187
0.0151973
0.00170809
0.015006
0.00173526
0.0148116
0.00176337
0.0146139
0.00179242
0.0144129
0.0018224
0.0142083
0.00185331
0.0140002
0.00188515
0.0137883
0.00191791
0.0135727
0.00195156
0.013353
0.00198611
0.0131294
0.00202153
0.0129016
0.00205781
0.0126695
0.00209492
0.0124331
0.00213283
0.0121922
0.00217152
0.0119467
0.00221096
0.0116966
0.00225109
0.0114417
0.00229189
0.011182
0.0023333
0.0109174
0.00237528
0.0106478
0.00241775
0.0103732
0.00246067
0.0100934
0.00250396
0.00980846
0.00254755
0.00951832
0.00259135
0.00922293
0.00263529
0.0089223
0.00267926
0.0086164
0.00272317
0.00830526
0.00276691
0.00798889
0.00281038
0.00766734
0.00285345
0.00734067
0.00289601
0.00700895
0.00293792
0.00667228
0.00297905
0.00633079
0.00301926
0.0059846
0.00305842
0.00563388
0.00309637
0.00527881
0.00313296
0.00491958
0.00316804
0.00455643
0.00320147
0.00418959
0.00323309
0.00381931
0.00326274
0.00344586
0.00329028
0.00306955
0.00331556
0.00269066
0.00333846
0.0023095
0.00335882
0.00192638
0.00337654
0.00154165
0.00339149
0.00115561
0.00340366
0.00076861
0.00341266
0.000380981
0.00341935
0.00336219
0.0199988
1.51452e-05
0.0199952
4.54814e-05
0.0199892
7.5829e-05
0.0199807
0.000106163
0.0199696
0.000136477
0.0199559
0.000166781
0.0199397
0.0001971
0.0199207
0.00022746
0.019899
0.000257889
0.0198746
0.000288408
0.0198474
0.000319025
0.0198173
0.000349733
0.0197844
0.000380556
0.0197486
0.000411619
0.0197097
0.000443089
0.0196678
0.000474852
0.0196228
0.000506136
0.0195749
0.000535822
0.0195241
0.000564114
0.0194701
0.000595097
0.0194117
0.000638114
0.0193464
0.000705589
0.0192708
0.00080695
0.0191816
0.000941694
0.0190768
0.00109639
0.0189566
0.00124855
0.0188234
0.00137574
0.0186809
0.00146467
0.0185331
0.00151511
0.0183827
0.00153713
0.0182314
0.00154451
0.0180795
0.00154856
0.0179267
0.00155538
0.0177728
0.0015664
0.0176173
0.00158068
0.0174602
0.00159682
0.0173013
0.001614
0.0171406
0.00163195
0.0169779
0.00165076
0.0168133
0.00167054
0.0166465
0.00169135
0.0164776
0.0017132
0.0163063
0.0017361
0.0161327
0.00176003
0.0159565
0.001785
0.0157777
0.00181102
0.0155962
0.00183808
0.0154119
0.00186619
0.0152246
0.00189536
0.0150343
0.00192557
0.0148409
0.00195684
0.0146441
0.00198916
0.014444
0.00202253
0.0142404
0.00205694
0.0140331
0.00209239
0.0138221
0.00212887
0.0136073
0.00216637
0.0133886
0.00220487
0.0131658
0.00224435
0.0129388
0.0022848
0.0127075
0.0023262
0.0124718
0.0023685
0.0122317
0.00241169
0.0119869
0.00245572
0.0117374
0.00250055
0.0114832
0.00254614
0.0112241
0.00259244
0.01096
0.00263938
0.0106908
0.0026869
0.0104166
0.00273493
0.0101371
0.0027834
0.00985243
0.00283223
0.00956247
0.00288131
0.00926719
0.00293056
0.00896658
0.00297987
0.00866061
0.00302913
0.0083493
0.00307822
0.00803266
0.00312702
0.00771073
0.00317538
0.00738356
0.00322318
0.00705122
0.00327026
0.0067138
0.00331647
0.00637141
0.00336166
0.00602418
0.00340565
0.00567225
0.00344829
0.00531581
0.0034894
0.00495504
0.00352881
0.00459016
0.00356635
0.00422141
0.00360184
0.00384903
0.00363512
0.0034733
0.00366601
0.00309451
0.00369435
0.00271296
0.00372
0.00232898
0.0037428
0.00194289
0.00376263
0.00155504
0.00377934
0.00116576
0.00379294
0.000775429
0.00380299
0.000384384
0.00381039
0.00374657
0.0199988
1.63557e-05
0.0199952
4.91168e-05
0.0199891
8.19131e-05
0.0199805
0.000114733
0.0199694
0.000147575
0.0199557
0.000180452
0.0199394
0.000213384
0.0199205
0.000246397
0.0198989
0.000279517
0.0198745
0.000312766
0.0198474
0.000346153
0.0198175
0.000379667
0.0197847
0.000413336
0.019749
0.000447299
0.0197103
0.000481743
0.0196687
0.000516547
0.0196239
0.000550868
0.0195763
0.000583479
0.0195258
0.000614605
0.0194721
0.000648724
0.0194142
0.000696087
0.0193494
0.000770332
0.0192746
0.000881822
0.0191862
0.00103002
0.0190824
0.00120021
0.0189633
0.0013677
0.0188311
0.00150785
0.0186898
0.00160601
0.018543
0.00166187
0.0183937
0.00168644
0.0182434
0.00169482
0.0180925
0.00169947
0.0179408
0.0017071
0.0177878
0.00171933
0.0176334
0.00173511
0.0174773
0.00175293
0.0173194
0.00177187
0.0171597
0.00179167
0.0169981
0.00181239
0.0168345
0.00183416
0.0166688
0.00185707
0.0165008
0.00188112
0.0163306
0.00190631
0.016158
0.00193264
0.0159829
0.00196012
0.0158052
0.00198875
0.0156247
0.00201853
0.0154415
0.00204947
0.0152552
0.00208157
0.015066
0.00211484
0.0148736
0.00214927
0.0146779
0.00218486
0.0144788
0.00222162
0.0142762
0.00225954
0.0140699
0.00229861
0.01386
0.00233883
0.0136462
0.00238018
0.0134284
0.00242265
0.0132065
0.00246622
0.0129805
0.00251087
0.0127501
0.00255657
0.0125153
0.0026033
0.012276
0.00265102
0.012032
0.0026997
0.0117833
0.00274928
0.0115297
0.00279971
0.0112712
0.00285095
0.0110076
0.00290292
0.010739
0.00295556
0.0104651
0.00300879
0.010186
0.00306252
0.00990155
0.00311667
0.00961172
0.00317114
0.00931648
0.00322581
0.00901579
0.00328057
0.00870963
0.00333529
0.00839801
0.00338985
0.00808093
0.0034441
0.00775842
0.00349789
0.00743054
0.00355106
0.00709734
0.00360346
0.00675891
0.0036549
0.00641536
0.00370521
0.0060668
0.00375421
0.00571339
0.0038017
0.00535529
0.0038475
0.00499269
0.00389141
0.00462581
0.00393323
0.00425487
0.00397278
0.00388015
0.00400985
0.0035019
0.00404426
0.00312042
0.00407583
0.00273603
0.00410439
0.00234906
0.00412977
0.00195985
0.00415185
0.00156875
0.00417044
0.00117614
0.00418555
0.00078238
0.00419675
0.000387845
0.00420493
0.00413442
0.0199988
1.75712e-05
0.0199951
5.27675e-05
0.019989
8.8018e-05
0.0199804
0.000123321
0.0199693
0.000158681
0.0199557
0.000194112
0.0199394
0.000229636
0.0199205
0.000265277
0.019899
0.000301064
0.0198747
0.000337019
0.0198477
0.000373149
0.019818
0.000409444
0.0197854
0.000445933
0.0197499
0.000482771
0.0197115
0.000520162
0.0196701
0.000557978
0.0196256
0.000595303
0.0195783
0.000630804
0.0195282
0.00066472
0.019475
0.000701918
0.0194175
0.000753552
0.0193534
0.000834464
0.0192793
0.00095595
0.0191918
0.00111746
0.019089
0.00130302
0.018971
0.00148575
0.01884
0.00163881
0.0186998
0.0017462
0.0185542
0.0018075
0.018406
0.00183464
0.0182568
0.00184405
0.0181069
0.0018493
0.0179563
0.00185774
0.0178045
0.00187115
0.0176512
0.00188843
0.0174962
0.00190793
0.0173394
0.00192864
0.0171808
0.00195026
0.0170203
0.00197289
0.0168578
0.00199666
0.0166932
0.00202165
0.0165264
0.00204789
0.0163574
0.00207538
0.0161859
0.00210411
0.0160119
0.00213409
0.0158354
0.00216532
0.0156561
0.00219781
0.015474
0.00223158
0.0152889
0.00226662
0.0151008
0.00230293
0.0149096
0.00234052
0.014715
0.0023794
0.0145171
0.00241955
0.0143157
0.00246098
0.0141106
0.00250368
0.0139018
0.00254765
0.0136891
0.00259287
0.0134724
0.00263932
0.0132516
0.002687
0.0130266
0.00273588
0.0127973
0.00278593
0.0125634
0.00283712
0.0123251
0.00288941
0.012082
0.00294277
0.0118341
0.00299715
0.0115813
0.00305249
0.0113235
0.00310873
0.0110606
0.00316581
0.0107926
0.00322365
0.0105192
0.00328216
0.0102405
0.00334125
0.00995631
0.00340083
0.00966667
0.00346078
0.00937148
0.00352099
0.00907072
0.00358132
0.00876436
0.00364165
0.0084524
0.00370182
0.00813482
0.00376167
0.00781166
0.00382105
0.00748296
0.00387977
0.00714877
0.00393765
0.00680917
0.0039945
0.00646427
0.00405012
0.00611418
0.0041043
0.00575904
0.00415684
0.00539903
0.00420751
0.00503433
0.00425611
0.00466515
0.00430241
0.00429174
0.00434619
0.00391435
0.00438724
0.00353327
0.00442534
0.00314879
0.00446031
0.00276124
0.00449194
0.00237095
0.00452006
0.0019783
0.0045445
0.00158365
0.00456509
0.00118739
0.00458182
0.000789913
0.00459423
0.000391597
0.00460324
0.00452601
0.0199988
1.87867e-05
0.0199951
5.64189e-05
0.019989
9.4121e-05
0.0199805
0.000131899
0.0199694
0.000169763
0.0199558
0.00020773
0.0199396
0.000245824
0.0199208
0.00028407
0.0198993
0.000322498
0.0198752
0.000361131
0.0198484
0.000399977
0.0198188
0.000439026
0.0197864
0.000478308
0.0197512
0.00051799
0.0197131
0.000558297
0.019672
0.000599092
0.0196279
0.000639385
0.019581
0.000677737
0.0195313
0.000714401
0.0194786
0.000754626
0.0194217
0.000810456
0.0193582
0.000897933
0.0192849
0.00102929
0.0191983
0.00120397
0.0190966
0.00140475
0.0189797
0.00160263
0.01885
0.00176856
0.018711
0.00188518
0.0185666
0.00195194
0.0184195
0.00198167
0.0182715
0.00199212
0.0181228
0.00199797
0.0179733
0.0020072
0.0178227
0.00202179
0.0176705
0.00204056
0.0175167
0.00206173
0.0173612
0.0020842
0.0172038
0.00210765
0.0170445
0.00213218
0.0168832
0.00215793
0.0167199
0.00218501
0.0165543
0.00221343
0.0163865
0.0022432
0.0162163
0.00227432
0.0160436
0.00230679
0.0158683
0.00234062
0.0156903
0.00237583
0.0155094
0.00241241
0.0153257
0.00245038
0.0151389
0.00248974
0.0149489
0.0025305
0.0147556
0.00257265
0.014559
0.0026162
0.0143588
0.00266115
0.014155
0.00270749
0.0139475
0.00275521
0.013736
0.00280432
0.0135206
0.00285478
0.013301
0.00290658
0.0130771
0.00295971
0.0128489
0.00301414
0.0126162
0.00306982
0.0123789
0.00312674
0.0121368
0.00318483
0.0118899
0.00324406
0.0116381
0.00330437
0.0113811
0.00336569
0.011119
0.00342795
0.0108515
0.00349106
0.0105788
0.00355495
0.0103005
0.0036195
0.0100167
0.00368462
0.00972731
0.00375018
0.00943224
0.00381606
0.00913146
0.00388211
0.00882492
0.00394819
0.00851261
0.00401412
0.00819453
0.00407975
0.00787069
0.00414489
0.00754111
0.00420934
0.00720586
0.0042729
0.006865
0.00433536
0.00651862
0.0043965
0.00616684
0.00445608
0.0058098
0.00451388
0.00544767
0.00456965
0.00508063
0.00462315
0.00470891
0.00467413
0.00433273
0.00472236
0.00395237
0.00476759
0.00356812
0.0048096
0.00318029
0.00484814
0.00278921
0.00488302
0.00239525
0.00491402
0.00199877
0.00494098
0.00160018
0.00496368
0.00119987
0.00498213
0.000798261
0.00499583
0.000395759
0.00500575
0.00492177
0.0199988
1.99988e-05
0.0199951
6.00598e-05
0.0199891
0.000100205
0.0199805
0.000140445
0.0199695
0.000180797
0.0199559
0.00022128
0.0199398
0.000261921
0.0199212
0.000302747
0.0198999
0.000343788
0.0198759
0.000385072
0.0198493
0.000426605
0.0198199
0.000468376
0.0197878
0.00051042
0.0197529
0.000552915
0.0197151
0.000596105
0.0196744
0.000639841
0.0196307
0.000683064
0.0195842
0.000724227
0.019535
0.000763595
0.0194828
0.000806795
0.0194265
0.000866748
0.0193638
0.000960688
0.0192913
0.00110178
0.0192058
0.00128949
0.0191052
0.00150537
0.0189895
0.0017183
0.018861
0.00189705
0.0187233
0.00202289
0.0185801
0.00209512
0.0184343
0.00212747
0.0182875
0.00213896
0.01814
0.0021454
0.0179918
0.00215542
0.0178424
0.00217118
0.0176916
0.00219142
0.017539
0.00221424
0.0173848
0.00223847
0.0172287
0.00226374
0.0170707
0.00229016
0.0169108
0.00231789
0.0167487
0.00234704
0.0165845
0.00237763
0.0164181
0.00240968
0.0162492
0.00244317
0.0160779
0.00247813
0.0159039
0.00251455
0.0157273
0.00255246
0.0155479
0.00259185
0.0153655
0.00263275
0.0151801
0.00267515
0.0149915
0.00271907
0.0147997
0.0027645
0.0146044
0.00281145
0.0144056
0.00285992
0.0142032
0.0029099
0.013997
0.0029614
0.013787
0.0030144
0.0135728
0.00306888
0.0133546
0.00312484
0.0131321
0.00318225