/*--------------------------------*- C++ -*----------------------------------*\
| =========                 |                                                 |
| \\      /  F ield         | OpenFOAM: The Open Source CFD Toolbox           |
|  \\    /   O peration     | Version:  4.1                                   |
|   \\  /    A nd           | Web:      www.OpenFOAM.org                      |
|    \\/     M anipulation  |                                                 |
\*---------------------------------------------------------------------------*/
FoamFile
{
    version     2.0;
    format      ascii;
    class       volVectorField;
    location    "0.05";
    object      U;
}
// * * * * * * * * * * * * * * * * * * * * * * * * * * * * * * * * * * * * * //

dimensions      [0 1 -1 0 0 0 0];

internalField   nonuniform List<vector> 
43750
(
(9.99009 0.0213251 0)
(9.96928 0.0355282 0)
(9.94155 0.0414156 0)
(9.90628 0.0453112 0)
(9.86602 0.0488641 0)
(9.82237 0.0522008 0)
(9.77554 0.0552782 0)
(9.72533 0.0581617 0)
(9.67174 0.0609408 0)
(9.61485 0.0636711 0)
(9.55469 0.0663841 0)
(9.49123 0.0690993 0)
(9.42441 0.0718168 0)
(9.35423 0.0745032 0)
(9.28076 0.0770853 0)
(9.20418 0.0794496 0)
(9.12488 0.0814268 0)
(9.04349 0.0827014 0)
(8.96094 0.0826843 0)
(8.87838 0.0806181 0)
(8.79712 0.0759148 0)
(8.71826 0.0685743 0)
(8.64234 0.0594382 0)
(8.56911 0.050042 0)
(8.49766 0.0420715 0)
(8.42679 0.0367062 0)
(8.35546 0.0342179 0)
(8.28308 0.0340299 0)
(8.20952 0.0351497 0)
(8.13486 0.0366686 0)
(8.05926 0.0380514 0)
(7.98278 0.0391437 0)
(7.90538 0.0400122 0)
(7.82699 0.0407768 0)
(7.74753 0.0415203 0)
(7.66695 0.0422753 0)
(7.58522 0.0430451 0)
(7.5023 0.043825 0)
(7.41818 0.0446123 0)
(7.33281 0.0454069 0)
(7.24616 0.0462091 0)
(7.15819 0.0470193 0)
(7.06886 0.0478371 0)
(6.97815 0.0486617 0)
(6.88602 0.0494924 0)
(6.79243 0.0503282 0)
(6.69736 0.0511678 0)
(6.60078 0.05201 0)
(6.50265 0.0528532 0)
(6.40296 0.0536958 0)
(6.30167 0.0545357 0)
(6.19878 0.0553711 0)
(6.09425 0.0561994 0)
(5.98808 0.0570184 0)
(5.88025 0.0578252 0)
(5.77075 0.058617 0)
(5.65958 0.0593906 0)
(5.54674 0.0601429 0)
(5.43223 0.0608702 0)
(5.31607 0.0615689 0)
(5.19826 0.0622352 0)
(5.07882 0.062865 0)
(4.95779 0.0634542 0)
(4.83519 0.0639987 0)
(4.71106 0.064494 0)
(4.58546 0.064936 0)
(4.45842 0.0653203 0)
(4.33002 0.0656427 0)
(4.20032 0.0658992 0)
(4.06939 0.0660859 0)
(3.93732 0.0661993 0)
(3.8042 0.0662364 0)
(3.67011 0.0661944 0)
(3.53517 0.0660713 0)
(3.39949 0.0658658 0)
(3.26317 0.0655772 0)
(3.12633 0.0652061 0)
(2.9891 0.0647535 0)
(2.8516 0.0642221 0)
(2.71395 0.0636154 0)
(2.57628 0.0629381 0)
(2.43872 0.0621965 0)
(2.30137 0.0613978 0)
(2.16436 0.060551 0)
(2.02779 0.0596659 0)
(1.89176 0.0587539 0)
(1.75634 0.0578273 0)
(1.62162 0.0568994 0)
(1.48765 0.0559842 0)
(1.35447 0.0550965 0)
(1.2221 0.0542508 0)
(1.09056 0.0534617 0)
(0.959819 0.0527426 0)
(0.829865 0.0521045 0)
(0.700645 0.0515562 0)
(0.572131 0.0510903 0)
(0.444149 0.050725 0)
(0.317442 0.0502546 0)
(0.186825 0.0506052 0)
(0.0700776 0.0515745 0)
(10.004 0.00671593 0)
(10.018 0.0159556 0)
(10.0337 0.0216247 0)
(10.0486 0.0261683 0)
(10.0626 0.0306191 0)
(10.0761 0.0349194 0)
(10.089 0.0389602 0)
(10.1012 0.0428382 0)
(10.1125 0.046687 0)
(10.1228 0.050576 0)
(10.1323 0.054527 0)
(10.1408 0.0585464 0)
(10.1483 0.0626286 0)
(10.1547 0.0667453 0)
(10.1601 0.0708319 0)
(10.164 0.0747679 0)
(10.1663 0.0783721 0)
(10.1664 0.0814417 0)
(10.1637 0.083857 0)
(10.1574 0.085733 0)
(10.1463 0.0874898 0)
(10.1283 0.0897381 0)
(10.101 0.0929816 0)
(10.0622 0.0972837 0)
(10.0109 0.102145 0)
(9.94795 0.106722 0)
(9.87583 0.11026 0)
(9.79796 0.112455 0)
(9.71756 0.113518 0)
(9.63689 0.113976 0)
(9.55701 0.114359 0)
(9.47798 0.115001 0)
(9.39939 0.115987 0)
(9.32076 0.117251 0)
(9.24172 0.11868 0)
(9.16209 0.120195 0)
(9.08177 0.121764 0)
(9.00071 0.123384 0)
(8.91886 0.125064 0)
(8.83614 0.126812 0)
(8.7525 0.12863 0)
(8.66785 0.130516 0)
(8.58213 0.132469 0)
(8.49527 0.134489 0)
(8.40719 0.136574 0)
(8.31784 0.138724 0)
(8.22713 0.140936 0)
(8.135 0.14321 0)
(8.04137 0.145543 0)
(7.94618 0.147935 0)
(7.84934 0.150382 0)
(7.75079 0.152882 0)
(7.65045 0.155432 0)
(7.54825 0.158028 0)
(7.4441 0.160667 0)
(7.33794 0.163345 0)
(7.22968 0.166056 0)
(7.11926 0.168795 0)
(7.00659 0.171557 0)
(6.8916 0.174335 0)
(6.77422 0.177123 0)
(6.65438 0.179912 0)
(6.532 0.182694 0)
(6.40701 0.185461 0)
(6.27935 0.188204 0)
(6.14896 0.190912 0)
(6.01577 0.193577 0)
(5.87974 0.196185 0)
(5.7408 0.198728 0)
(5.59891 0.201193 0)
(5.45404 0.203568 0)
(5.30615 0.205842 0)
(5.15521 0.208004 0)
(5.00122 0.210042 0)
(4.84415 0.211944 0)
(4.68401 0.213702 0)
(4.52081 0.215305 0)
(4.35457 0.216746 0)
(4.18532 0.218016 0)
(4.01311 0.219112 0)
(3.83798 0.220029 0)
(3.66 0.220766 0)
(3.47926 0.221323 0)
(3.29583 0.221705 0)
(3.10981 0.221917 0)
(2.92132 0.221967 0)
(2.73047 0.221868 0)
(2.5374 0.221634 0)
(2.34223 0.221281 0)
(2.14511 0.220828 0)
(1.9462 0.220295 0)
(1.74564 0.219704 0)
(1.5436 0.219077 0)
(1.34024 0.218432 0)
(1.13571 0.217787 0)
(0.93024 0.217138 0)
(0.723756 0.216521 0)
(0.517744 0.21569 0)
(0.305126 0.215766 0)
(0.110287 0.21462 0)
(10.0001 0.00426371 0)
(10.0004 0.0116368 0)
(10.0002 0.0173698 0)
(9.99858 0.0222146 0)
(9.99525 0.0268331 0)
(9.99051 0.0313708 0)
(9.98457 0.0358079 0)
(9.97747 0.0401835 0)
(9.96918 0.0445638 0)
(9.95974 0.0489811 0)
(9.94922 0.0534354 0)
(9.93769 0.0579176 0)
(9.92522 0.0624233 0)
(9.91187 0.0669583 0)
(9.8977 0.0715289 0)
(9.88273 0.076103 0)
(9.86704 0.0805657 0)
(9.85081 0.0847663 0)
(9.83436 0.0887292 0)
(9.81793 0.0929018 0)
(9.80131 0.0983072 0)
(9.78344 0.106337 0)
(9.76214 0.118075 0)
(9.73442 0.133465 0)
(9.69734 0.150919 0)
(9.6491 0.167768 0)
(9.58982 0.181387 0)
(9.52149 0.190319 0)
(9.44713 0.19473 0)
(9.36972 0.196011 0)
(9.29133 0.195919 0)
(9.21297 0.195813 0)
(9.13483 0.196346 0)
(9.05668 0.197587 0)
(8.97823 0.199328 0)
(8.89928 0.201345 0)
(8.81972 0.203511 0)
(8.73948 0.205789 0)
(8.65852 0.208188 0)
(8.57678 0.21072 0)
(8.49423 0.213393 0)
(8.41079 0.216207 0)
(8.32642 0.219158 0)
(8.24105 0.222246 0)
(8.15464 0.225468 0)
(8.06712 0.228825 0)
(7.97845 0.232316 0)
(7.88857 0.23594 0)
(7.79742 0.239697 0)
(7.70496 0.243587 0)
(7.61111 0.247607 0)
(7.51583 0.251757 0)
(7.41906 0.256034 0)
(7.32073 0.260438 0)
(7.22079 0.264965 0)
(7.11917 0.269612 0)
(7.01582 0.274377 0)
(6.91067 0.279254 0)
(6.80365 0.28424 0)
(6.6947 0.289329 0)
(6.58376 0.294515 0)
(6.47074 0.299791 0)
(6.35559 0.30515 0)
(6.23822 0.310582 0)
(6.11857 0.31608 0)
(5.99657 0.321632 0)
(5.87213 0.327228 0)
(5.74519 0.332854 0)
(5.61565 0.338499 0)
(5.48346 0.344149 0)
(5.34852 0.349787 0)
(5.21076 0.3554 0)
(5.07011 0.360969 0)
(4.92649 0.36648 0)
(4.77983 0.371913 0)
(4.63005 0.377251 0)
(4.4771 0.382475 0)
(4.32091 0.387569 0)
(4.16142 0.392513 0)
(3.9986 0.39729 0)
(3.8324 0.401882 0)
(3.66279 0.406276 0)
(3.48977 0.410454 0)
(3.31333 0.414404 0)
(3.13348 0.418113 0)
(2.95027 0.421573 0)
(2.76375 0.424774 0)
(2.57399 0.427711 0)
(2.38108 0.430379 0)
(2.18515 0.432777 0)
(1.98634 0.434903 0)
(1.78483 0.436758 0)
(1.5808 0.438344 0)
(1.37449 0.439661 0)
(1.1661 0.440708 0)
(0.955985 0.441473 0)
(0.74407 0.441984 0)
(0.532326 0.442022 0)
(0.31302 0.442477 0)
(0.111048 0.438027 0)
(9.99997 0.00436267 0)
(9.99965 0.0128207 0)
(9.99861 0.0205987 0)
(9.99624 0.027747 0)
(9.99224 0.0345655 0)
(9.98666 0.0412189 0)
(9.9796 0.0477251 0)
(9.97107 0.0540916 0)
(9.96104 0.0603574 0)
(9.94949 0.0665622 0)
(9.93645 0.0727254 0)
(9.92194 0.0788508 0)
(9.90597 0.0849396 0)
(9.88856 0.0910029 0)
(9.86971 0.0970517 0)
(9.84941 0.10304 0)
(9.82765 0.108785 0)
(9.80446 0.113978 0)
(9.77983 0.118416 0)
(9.75365 0.122479 0)
(9.7255 0.127549 0)
(9.69442 0.135869 0)
(9.65891 0.149598 0)
(9.61723 0.169474 0)
(9.56796 0.193919 0)
(9.51055 0.219338 0)
(9.44561 0.241585 0)
(9.37471 0.257744 0)
(9.29988 0.267171 0)
(9.22294 0.271278 0)
(9.14513 0.272435 0)
(9.06703 0.272777 0)
(8.9887 0.273556 0)
(8.91 0.275142 0)
(8.83073 0.2774 0)
(8.75078 0.280069 0)
(8.67007 0.282968 0)
(8.58854 0.286031 0)
(8.50615 0.289256 0)
(8.42286 0.292659 0)
(8.3386 0.296248 0)
(8.25334 0.300024 0)
(8.16703 0.303984 0)
(8.0796 0.308127 0)
(7.99102 0.312449 0)
(7.90123 0.316952 0)
(7.81019 0.321633 0)
(7.71785 0.326493 0)
(7.62416 0.331532 0)
(7.52906 0.336748 0)
(7.43253 0.342141 0)
(7.33449 0.347709 0)
(7.23492 0.353453 0)
(7.13375 0.359369 0)
(7.03095 0.365456 0)
(6.92647 0.371713 0)
(6.82026 0.378136 0)
(6.71227 0.384722 0)
(6.60247 0.391468 0)
(6.49079 0.39837 0)
(6.37721 0.405422 0)
(6.26167 0.41262 0)
(6.14413 0.419957 0)
(6.02455 0.427426 0)
(5.90288 0.435021 0)
(5.77907 0.442732 0)
(5.65309 0.450551 0)
(5.5249 0.458467 0)
(5.39444 0.466469 0)
(5.26167 0.474546 0)
(5.12655 0.482683 0)
(4.98904 0.490869 0)
(4.8491 0.499086 0)
(4.70667 0.50732 0)
(4.56172 0.515553 0)
(4.4142 0.523766 0)
(4.26408 0.531942 0)
(4.11131 0.540058 0)
(3.95585 0.548094 0)
(3.79767 0.556027 0)
(3.63674 0.563834 0)
(3.47302 0.571491 0)
(3.30651 0.578971 0)
(3.13718 0.58625 0)
(2.96504 0.593299 0)
(2.79009 0.600093 0)
(2.61236 0.606603 0)
(2.43188 0.612801 0)
(2.24873 0.618659 0)
(2.06297 0.624148 0)
(1.87471 0.629242 0)
(1.68407 0.633911 0)
(1.49121 0.63813 0)
(1.29631 0.641872 0)
(1.09954 0.645113 0)
(0.901221 0.647821 0)
(0.70118 0.650016 0)
(0.501622 0.651514 0)
(0.294502 0.652927 0)
(0.103877 0.644201 0)
(9.99992 0.00463179 0)
(9.9992 0.0137444 0)
(9.99756 0.0224403 0)
(9.99467 0.0306625 0)
(9.99036 0.038562 0)
(9.98461 0.0462834 0)
(9.97744 0.0538823 0)
(9.96885 0.0613809 0)
(9.95883 0.0688126 0)
(9.94735 0.0762131 0)
(9.93442 0.0836006 0)
(9.92003 0.0909751 0)
(9.90418 0.0983342 0)
(9.88686 0.105692 0)
(9.86805 0.113063 0)
(9.84771 0.12039 0)
(9.82583 0.127459 0)
(9.80245 0.133975 0)
(9.77767 0.139957 0)
(9.75142 0.14632 0)
(9.7232 0.155172 0)
(9.69172 0.169309 0)
(9.65509 0.190874 0)
(9.61131 0.219855 0)
(9.55908 0.253407 0)
(9.49839 0.286643 0)
(9.43054 0.314576 0)
(9.35762 0.334138 0)
(9.2818 0.345127 0)
(9.20471 0.3497 0)
(9.12721 0.350931 0)
(9.0495 0.351409 0)
(8.97146 0.352556 0)
(8.89286 0.354728 0)
(8.81355 0.357709 0)
(8.73343 0.361172 0)
(8.65247 0.364909 0)
(8.57061 0.36885 0)
(8.48784 0.372999 0)
(8.40409 0.377377 0)
(8.31932 0.381994 0)
(8.23347 0.386851 0)
(8.14649 0.391944 0)
(8.05834 0.397269 0)
(7.96895 0.402826 0)
(7.87829 0.408614 0)
(7.78629 0.41463 0)
(7.6929 0.420876 0)
(7.59807 0.427349 0)
(7.50176 0.434049 0)
(7.40391 0.440974 0)
(7.30446 0.448123 0)
(7.20337 0.455494 0)
(7.1006 0.463084 0)
(6.99608 0.470891 0)
(6.88977 0.478912 0)
(6.78162 0.487142 0)
(6.67159 0.495578 0)
(6.55962 0.504214 0)
(6.44568 0.513046 0)
(6.32972 0.522066 0)
(6.2117 0.531268 0)
(6.09158 0.540644 0)
(5.96932 0.550185 0)
(5.84488 0.559883 0)
(5.71824 0.569727 0)
(5.58936 0.579706 0)
(5.45822 0.589809 0)
(5.32478 0.600022 0)
(5.18903 0.610332 0)
(5.05094 0.620725 0)
(4.91051 0.631186 0)
(4.76771 0.641697 0)
(4.62254 0.652242 0)
(4.47499 0.662802 0)
(4.32505 0.673358 0)
(4.17273 0.68389 0)
(4.01804 0.694375 0)
(3.86097 0.70479 0)
(3.70155 0.715112 0)
(3.53978 0.725314 0)
(3.37569 0.735368 0)
(3.20929 0.745245 0)
(3.04063 0.754913 0)
(2.86973 0.764339 0)
(2.69665 0.773486 0)
(2.52142 0.782318 0)
(2.34411 0.790793 0)
(2.16479 0.79887 0)
(1.98354 0.806505 0)
(1.80045 0.813654 0)
(1.61563 0.82027 0)
(1.4292 0.826309 0)
(1.24131 0.831726 0)
(1.05207 0.836482 0)
(0.861771 0.84053 0)
(0.6701 0.84388 0)
(0.479385 0.846372 0)
(0.281435 0.848454 0)
(0.099356 0.83557 0)
(9.99989 0.00504622 0)
(9.99898 0.0150751 0)
(9.99704 0.0249062 0)
(9.99387 0.0344804 0)
(9.98938 0.0438502 0)
(9.98352 0.0530951 0)
(9.97628 0.0622576 0)
(9.96765 0.0713543 0)
(9.95761 0.0804026 0)
(9.94614 0.0894233 0)
(9.93322 0.0984278 0)
(9.91886 0.107415 0)
(9.90306 0.116388 0)
(9.88579 0.125372 0)
(9.86705 0.134401 0)
(9.8468 0.143427 0)
(9.82501 0.152214 0)
(9.8017 0.16042 0)
(9.7769 0.168049 0)
(9.75055 0.176161 0)
(9.72222 0.187272 0)
(9.69085 0.204802 0)
(9.65479 0.231438 0)
(9.61212 0.267196 0)
(9.56139 0.308538 0)
(9.50226 0.349373 0)
(9.43574 0.383552 0)
(9.36376 0.407388 0)
(9.28853 0.420764 0)
(9.21179 0.426409 0)
(9.13452 0.428088 0)
(9.05706 0.428907 0)
(8.97929 0.430534 0)
(8.901 0.433365 0)
(8.82199 0.43713 0)
(8.74218 0.441443 0)
(8.66151 0.446067 0)
(8.57995 0.45093 0)
(8.49745 0.456044 0)
(8.41398 0.461435 0)
(8.32947 0.467117 0)
(8.24389 0.473092 0)
(8.15717 0.479355 0)
(8.06926 0.485903 0)
(7.98011 0.492736 0)
(7.88967 0.499851 0)
(7.79789 0.507249 0)
(7.7047 0.514929 0)
(7.61006 0.52289 0)
(7.51391 0.531132 0)
(7.4162 0.539652 0)
(7.31687 0.54845 0)
(7.21587 0.557522 0)
(7.11315 0.566867 0)
(7.00864 0.576481 0)
(6.90231 0.58636 0)
(6.79409 0.596499 0)
(6.68394 0.606895 0)
(6.57179 0.617539 0)
(6.45761 0.628426 0)
(6.34134 0.639548 0)
(6.22294 0.650895 0)
(6.10236 0.662457 0)
(5.97956 0.674225 0)
(5.8545 0.686185 0)
(5.72713 0.698324 0)
(5.59743 0.710629 0)
(5.46536 0.723083 0)
(5.33089 0.735671 0)
(5.19401 0.748373 0)
(5.05469 0.761172 0)
(4.91291 0.774047 0)
(4.76868 0.786976 0)
(4.62198 0.799937 0)
(4.47282 0.812906 0)
(4.32121 0.825859 0)
(4.16716 0.838769 0)
(4.0107 0.851609 0)
(3.85186 0.864349 0)
(3.69066 0.876961 0)
(3.52717 0.889411 0)
(3.36143 0.901668 0)
(3.19349 0.913694 0)
(3.02342 0.925454 0)
(2.8513 0.936907 0)
(2.67719 0.948011 0)
(2.5012 0.958723 0)
(2.32341 0.968995 0)
(2.14392 0.978777 0)
(1.96283 0.988018 0)
(1.78025 0.996666 0)
(1.59631 1.00466 0)
(1.41112 1.01196 0)
(1.22481 1.0185 0)
(1.0375 1.02424 0)
(0.849441 1.02912 0)
(0.660247 1.03314 0)
(0.472351 1.03615 0)
(0.277438 1.03853 0)
(0.098074 1.02181 0)
(9.99988 0.00555233 0)
(9.99888 0.0166345 0)
(9.99676 0.027617 0)
(9.99339 0.0384437 0)
(9.98873 0.0491191 0)
(9.98274 0.0596819 0)
(9.97541 0.0701658 0)
(9.96669 0.0805908 0)
(9.95658 0.090974 0)
(9.94506 0.101334 0)
(9.93212 0.111681 0)
(9.91774 0.122017 0)
(9.90192 0.132348 0)
(9.88463 0.142707 0)
(9.86586 0.153138 0)
(9.84556 0.163589 0)
(9.8237 0.173787 0)
(9.8003 0.183347 0)
(9.77543 0.192322 0)
(9.74908 0.202045 0)
(9.72087 0.215585 0)
(9.68983 0.237031 0)
(9.65432 0.269491 0)
(9.61245 0.312822 0)
(9.5627 0.362647 0)
(9.50464 0.41163 0)
(9.43911 0.452462 0)
(9.36795 0.480837 0)
(9.29332 0.496716 0)
(9.21701 0.503417 0)
(9.14009 0.50544 0)
(9.06296 0.50647 0)
(8.98554 0.508469 0)
(8.90762 0.511886 0)
(8.82901 0.516394 0)
(8.74959 0.521535 0)
(8.66931 0.527032 0)
(8.58814 0.532803 0)
(8.50603 0.538866 0)
(8.42295 0.545254 0)
(8.33885 0.551986 0)
(8.25366 0.559062 0)
(8.16736 0.566479 0)
(8.07986 0.574234 0)
(7.99114 0.582327 0)
(7.90113 0.590756 0)
(7.80978 0.599521 0)
(7.71704 0.608623 0)
(7.62285 0.61806 0)
(7.52716 0.627833 0)
(7.42992 0.637938 0)
(7.33106 0.648376 0)
(7.23054 0.659144 0)
(7.12829 0.670238 0)
(7.02427 0.681657 0)
(6.91842 0.693395 0)
(6.81068 0.705448 0)
(6.70101 0.717809 0)
(6.58934 0.730473 0)
(6.47562 0.74343 0)
(6.35981 0.756672 0)
(6.24185 0.770189 0)
(6.1217 0.783968 0)
(5.9993 0.797998 0)
(5.87461 0.812263 0)
(5.74758 0.826747 0)
(5.61819 0.841434 0)
(5.48638 0.856303 0)
(5.35213 0.871336 0)
(5.2154 0.886508 0)
(5.07617 0.901797 0)
(4.93443 0.917177 0)
(4.79015 0.93262 0)
(4.64332 0.948098 0)
(4.49395 0.96358 0)
(4.34203 0.979034 0)
(4.18759 0.994426 0)
(4.03063 1.00972 0)
(3.8712 1.02488 0)
(3.70932 1.03987 0)
(3.54505 1.05464 0)
(3.37844 1.06916 0)
(3.20955 1.08338 0)
(3.03847 1.09725 0)
(2.86527 1.11073 0)
(2.69005 1.12377 0)
(2.51291 1.13631 0)
(2.33396 1.14831 0)
(2.15331 1.1597 0)
(1.9711 1.17044 0)
(1.78743 1.18045 0)
(1.60245 1.1897 0)
(1.41629 1.1981 0)
(1.22909 1.20562 0)
(1.04095 1.21219 0)
(0.852162 1.21776 0)
(0.662272 1.22233 0)
(0.473849 1.22573 0)
(0.278427 1.22835 0)
(0.09839 1.20811 0)
(9.99987 0.00610451 0)
(9.99882 0.0183086 0)
(9.99659 0.0304614 0)
(9.99308 0.0425236 0)
(9.9883 0.0544896 0)
(9.98223 0.0663809 0)
(9.97483 0.0782234 0)
(9.96607 0.0900363 0)
(9.95593 0.101835 0)
(9.9444 0.113633 0)
(9.93146 0.125438 0)
(9.91709 0.137249 0)
(9.90128 0.149073 0)
(9.88401 0.160952 0)
(9.86526 0.172942 0)
(9.84497 0.184994 0)
(9.82313 0.196809 0)
(9.79975 0.207957 0)
(9.77491 0.218506 0)
(9.74859 0.229985 0)
(9.72042 0.2459 0)
(9.68947 0.270925 0)
(9.65415 0.308616 0)
(9.6126 0.358805 0)
(9.56335 0.416461 0)
(9.5059 0.47314 0)
(9.44104 0.520425 0)
(9.37052 0.553345 0)
(9.29647 0.571845 0)
(9.22065 0.579742 0)
(9.14418 0.582221 0)
(9.06745 0.583528 0)
(8.99042 0.585928 0)
(8.9129 0.589945 0)
(8.83468 0.595204 0)
(8.75566 0.601182 0)
(8.67577 0.607559 0)
(8.59499 0.614245 0)
(8.51327 0.621262 0)
(8.43058 0.628651 0)
(8.34687 0.636432 0)
(8.26208 0.644609 0)
(8.17616 0.65318 0)
(8.08907 0.662141 0)
(8.00075 0.67149 0)
(7.91114 0.68123 0)
(7.82021 0.691359 0)
(7.72788 0.701878 0)
(7.63411 0.712787 0)
(7.53884 0.724085 0)
(7.44202 0.735771 0)
(7.3436 0.747844 0)
(7.24351 0.760302 0)
(7.14171 0.773142 0)
(7.03814 0.786361 0)
(6.93274 0.799954 0)
(6.82546 0.813916 0)
(6.71624 0.828241 0)
(6.60503 0.842922 0)
(6.49178 0.857949 0)
(6.37643 0.873313 0)
(6.25894 0.889001 0)
(6.13924 0.905002 0)
(6.0173 0.9213 0)
(5.89306 0.93788 0)
(5.76649 0.954722 0)
(5.63753 0.971806 0)
(5.50614 0.989112 0)
(5.3723 1.00661 0)
(5.23597 1.02429 0)
(5.09711 1.0421 0)
(4.9557 1.06003 0)
(4.81172 1.07803 0)
(4.66516 1.09608 0)
(4.51601 1.11413 0)
(4.36427 1.13215 0)
(4.20994 1.1501 0)
(4.05303 1.16793 0)
(3.89357 1.18559 0)
(3.73159 1.20304 0)
(3.56713 1.22023 0)
(3.40023 1.23711 0)
(3.23097 1.25361 0)
(3.0594 1.26969 0)
(2.88561 1.2853 0)
(2.7097 1.30036 0)
(2.53175 1.31482 0)
(2.35189 1.32862 0)
(2.17023 1.34169 0)
(1.98689 1.35398 0)
(1.80201 1.36541 0)
(1.61573 1.37594 0)
(1.42819 1.38549 0)
(1.23954 1.39401 0)
(1.0499 1.40144 0)
(0.859567 1.40773 0)
(0.668048 1.41286 0)
(0.478072 1.41667 0)
(0.280992 1.41956 0)
(0.0991533 1.39598 0)
(9.99987 0.00668214 0)
(9.99878 0.0200521 0)
(9.99649 0.0334006 0)
(9.9929 0.0467025 0)
(9.98804 0.059951 0)
(9.9819 0.073157 0)
(9.97446 0.0863376 0)
(9.96567 0.0995084 0)
(9.95551 0.112683 0)
(9.94398 0.125872 0)
(9.93104 0.139082 0)
(9.91669 0.152311 0)
(9.9009 0.165567 0)
(9.88367 0.178902 0)
(9.86495 0.192383 0)
(9.8447 0.205958 0)
(9.82289 0.219292 0)
(9.79955 0.231903 0)
(9.77476 0.243875 0)
(9.74851 0.256948 0)
(9.72048 0.275111 0)
(9.68972 0.303664 0)
(9.65469 0.346628 0)
(9.61352 0.403789 0)
(9.56471 0.46942 0)
(9.50777 0.533935 0)
(9.44344 0.587788 0)
(9.37345 0.625344 0)
(9.2999 0.64653 0)
(9.22457 0.655663 0)
(9.14855 0.658616 0)
(9.07226 0.660203 0)
(8.99566 0.663002 0)
(8.91857 0.667615 0)
(8.84078 0.673623 0)
(8.76218 0.680437 0)
(8.68271 0.687696 0)
(8.60235 0.695297 0)
(8.52105 0.703268 0)
(8.43877 0.711656 0)
(8.35547 0.720486 0)
(8.2711 0.729764 0)
(8.1856 0.739485 0)
(8.09892 0.749649 0)
(8.01102 0.760254 0)
(7.92183 0.771301 0)
(7.83131 0.782791 0)
(7.7394 0.794725 0)
(7.64605 0.807103 0)
(7.55121 0.819924 0)
(7.45481 0.833189 0)
(7.35681 0.846895 0)
(7.25714 0.861042 0)
(7.15576 0.875626 0)
(7.0526 0.890643 0)
(6.94762 0.906091 0)
(6.84075 0.921963 0)
(6.73194 0.938252 0)
(6.62113 0.95495 0)
(6.50828 0.972049 0)
(6.39332 0.989537 0)
(6.27621 1.0074 0)
(6.1569 1.02563 0)
(6.03532 1.0442 0)
(5.91144 1.0631 0)
(5.78521 1.08231 0)
(5.65659 1.1018 0)
(5.52552 1.12156 0)
(5.39198 1.14154 0)
(5.25592 1.16173 0)
(5.11733 1.18209 0)
(4.97616 1.20259 0)
(4.83239 1.22318 0)
(4.68602 1.24383 0)
(4.53702 1.26449 0)
(4.38539 1.28513 0)
(4.23113 1.30568 0)
(4.07425 1.32609 0)
(3.91477 1.34632 0)
(3.7527 1.36631 0)
(3.5881 1.38599 0)
(3.42099 1.4053 0)
(3.25144 1.42419 0)
(3.0795 1.44257 0)
(2.90526 1.4604 0)
(2.72879 1.47758 0)
(2.55019 1.49407 0)
(2.36957 1.50978 0)
(2.18704 1.52465 0)
(2.00272 1.53859 0)
(1.81675 1.55156 0)
(1.62928 1.56346 0)
(1.44043 1.57425 0)
(1.25038 1.58385 0)
(1.05924 1.59222 0)
(0.867349 1.59928 0)
(0.67415 1.60504 0)
(0.482541 1.6093 0)
(0.283689 1.61249 0)
(0.0999261 1.5856 0)
(9.99986 0.00727485 0)
(9.99876 0.021838 0)
(9.99643 0.0363992 0)
(9.99279 0.0509431 0)
(9.98788 0.0654648 0)
(9.9817 0.0799708 0)
(9.97423 0.0944738 0)
(9.96543 0.108988 0)
(9.95527 0.123525 0)
(9.94375 0.138099 0)
(9.93084 0.152712 0)
(9.91653 0.167361 0)
(9.90079 0.182059 0)
(9.88361 0.196862 0)
(9.86495 0.211851 0)
(9.84477 0.226969 0)
(9.82304 0.241849 0)
(9.7998 0.255959 0)
(9.77512 0.269395 0)
(9.749 0.2841 0)
(9.72113 0.304517 0)
(9.6906 0.336552 0)
(9.65585 0.384685 0)
(9.61504 0.448673 0)
(9.56668 0.522128 0)
(9.51023 0.594358 0)
(9.44643 0.654702 0)
(9.37699 0.696857 0)
(9.30396 0.720723 0)
(9.22913 0.7311 0)
(9.1536 0.734538 0)
(9.07779 0.736416 0)
(9.00167 0.73962 0)
(8.92505 0.744833 0)
(8.84773 0.751594 0)
(8.7696 0.759247 0)
(8.6906 0.76739 0)
(8.6107 0.77591 0)
(8.52986 0.784837 0)
(8.44805 0.794225 0)
(8.36521 0.804105 0)
(8.2813 0.814482 0)
(8.19626 0.825355 0)
(8.11005 0.836721 0)
(8.02261 0.848581 0)
(7.93389 0.860936 0)
(7.84384 0.873787 0)
(7.7524 0.887135 0)
(7.65952 0.900983 0)
(7.56514 0.915328 0)
(7.4692 0.930172 0)
(7.37166 0.945514 0)
(7.27246 0.961351 0)
(7.17154 0.977682 0)
(7.06883 0.994503 0)
(6.9643 1.01181 0)
(6.85787 1.0296 0)
(6.74949 1.04786 0)
(6.63911 1.06658 0)
(6.52668 1.08576 0)
(6.41212 1.10538 0)
(6.2954 1.12543 0)
(6.17646 1.1459 0)
(6.05524 1.16676 0)
(5.9317 1.188 0)
(5.80579 1.20959 0)
(5.67746 1.23151 0)
(5.54666 1.25373 0)
(5.41336 1.27623 0)
(5.27752 1.29896 0)
(5.13911 1.32189 0)
(4.99808 1.34498 0)
(4.85443 1.3682 0)
(4.70813 1.39148 0)
(4.55916 1.41479 0)
(4.40752 1.43807 0)
(4.2532 1.46127 0)
(4.09621 1.48432 0)
(3.93657 1.50717 0)
(3.77429 1.52974 0)
(3.6094 1.55198 0)
(3.44195 1.5738 0)
(3.27199 1.59513 0)
(3.09957 1.6159 0)
(2.92476 1.63603 0)
(2.74765 1.65544 0)
(2.56832 1.67405 0)
(2.38688 1.69177 0)
(2.20344 1.70853 0)
(2.01813 1.72425 0)
(1.83106 1.73884 0)
(1.64239 1.75223 0)
(1.45227 1.76435 0)
(1.26085 1.77513 0)
(1.06825 1.78451 0)
(0.874846 1.79241 0)
(0.68002 1.79885 0)
(0.486832 1.80361 0)
(0.286271 1.80714 0)
(0.100654 1.77692 0)
(9.99986 0.00787624 0)
(9.99875 0.0236481 0)
(9.99639 0.0394319 0)
(9.99273 0.0552192 0)
(9.98779 0.0710084 0)
(9.9816 0.086805 0)
(9.97412 0.10262 0)
(9.96532 0.118466 0)
(9.95519 0.134356 0)
(9.94369 0.150302 0)
(9.93083 0.166306 0)
(9.91657 0.182365 0)
(9.90089 0.198491 0)
(9.88379 0.21475 0)
(9.86521 0.231232 0)
(9.84513 0.247877 0)
(9.82352 0.264283 0)
(9.8004 0.279861 0)
(9.77586 0.29472 0)
(9.74991 0.311001 0)
(9.72224 0.333603 0)
(9.69195 0.369045 0)
(9.65752 0.422273 0)
(9.6171 0.493027 0)
(9.5692 0.574265 0)
(9.51327 0.65419 0)
(9.45002 0.721029 0)
(9.38114 0.767803 0)
(9.30866 0.794375 0)
(9.23436 0.80602 0)
(9.15935 0.809959 0)
(9.08405 0.812135 0)
(9.00844 0.815747 0)
(8.93232 0.82156 0)
(8.85551 0.829074 0)
(8.7779 0.837566 0)
(8.69941 0.846596 0)
(8.62002 0.856034 0)
(8.5397 0.865917 0)
(8.4584 0.876305 0)
(8.37607 0.887233 0)
(8.29268 0.89871 0)
(8.20816 0.910733 0)
(8.12247 0.9233 0)
(8.03555 0.936414 0)
(7.94735 0.950075 0)
(7.85782 0.964286 0)
(7.76691 0.979049 0)
(7.67455 0.994366 0)
(7.5807 1.01024 0)
(7.48529 1.02666 0)
(7.38827 1.04364 0)
(7.28959 1.06117 0)
(7.18918 1.07925 0)
(7.087 1.09788 0)
(6.98297 1.11706 0)
(6.87704 1.13677 0)
(6.76916 1.15701 0)
(6.65926 1.17777 0)
(6.5473 1.19904 0)
(6.4332 1.22081 0)
(6.31692 1.24307 0)
(6.1984 1.26579 0)
(6.07759 1.28896 0)
(5.95443 1.31256 0)
(5.82887 1.33656 0)
(5.70086 1.36093 0)
(5.57036 1.38566 0)
(5.43733 1.41069 0)
(5.30171 1.43599 0)
(5.16348 1.46154 0)
(5.02259 1.48727 0)
(4.87903 1.51314 0)
(4.73278 1.53911 0)
(4.5838 1.56512 0)
(4.43209 1.5911 0)
(4.27765 1.617 0)
(4.12047 1.64274 0)
(3.96057 1.66827 0)
(3.79797 1.69349 0)
(3.6327 1.71834 0)
(3.46478 1.74274 0)
(3.29427 1.7666 0)
(3.12123 1.78983 0)
(2.94572 1.81234 0)
(2.76782 1.83405 0)
(2.58762 1.85486 0)
(2.40522 1.87468 0)
(2.22074 1.89343 0)
(2.03429 1.911 0)
(1.84601 1.92731 0)
(1.65604 1.94227 0)
(1.46453 1.95581 0)
(1.27165 1.96784 0)
(1.07752 1.97831 0)
(0.882536 1.98713 0)
(0.686026 1.9943 0)
(0.491207 1.99961 0)
(0.288898 2.00351 0)
(0.1014 1.96995 0)
(9.99986 0.00848203 0)
(9.99874 0.0254705 0)
(9.99638 0.0424815 0)
(9.9927 0.0595119 0)
(9.98776 0.0765633 0)
(9.98156 0.0936418 0)
(9.9741 0.110758 0)
(9.96532 0.127924 0)
(9.95522 0.145154 0)
(9.94377 0.162458 0)
(9.93097 0.179841 0)
(9.91678 0.197296 0)
(9.90119 0.214839 0)
(9.88418 0.232543 0)
(9.86572 0.250505 0)
(9.84576 0.268664 0)
(9.82429 0.286579 0)
(9.80133 0.303611 0)
(9.77696 0.319876 0)
(9.75122 0.337712 0)
(9.72378 0.362471 0)
(9.69377 0.401273 0)
(9.65966 0.459534 0)
(9.61965 0.53698 0)
(9.57223 0.625932 0)
(9.51684 0.7135 0)
(9.45417 0.786807 0)
(9.38586 0.838195 0)
(9.31396 0.867481 0)
(9.24022 0.880406 0)
(9.16576 0.884853 0)
(9.091 0.887329 0)
(9.01593 0.891346 0)
(8.94037 0.897757 0)
(8.86411 0.906022 0)
(8.78705 0.915353 0)
(8.70911 0.925266 0)
(8.63028 0.935623 0)
(8.55052 0.94646 0)
(8.46978 0.957847 0)
(8.38802 0.969822 0)
(8.30519 0.982395 0)
(8.22125 0.995565 0)
(8.13613 1.00933 0)
(8.04978 1.0237 0)
(7.96216 1.03866 0)
(7.87321 1.05423 0)
(7.78288 1.07041 0)
(7.6911 1.08719 0)
(7.59783 1.10459 0)
(7.50301 1.1226 0)
(7.40658 1.14121 0)
(7.30848 1.16044 0)
(7.20865 1.18028 0)
(7.10704 1.20072 0)
(7.00358 1.22177 0)
(6.89822 1.24341 0)
(6.79089 1.26564 0)
(6.68154 1.28845 0)
(6.57011 1.31182 0)
(6.45654 1.33576 0)
(6.34076 1.36024 0)
(6.22273 1.38524 0)
(6.10237 1.41074 0)
(5.97965 1.43672 0)
(5.8545 1.46316 0)
(5.72688 1.49002 0)
(5.59672 1.51728 0)
(5.46399 1.54489 0)
(5.32864 1.57281 0)
(5.19063 1.60101 0)
(5.04992 1.62943 0)
(4.90647 1.65802 0)
(4.76028 1.68673 0)
(4.6113 1.71548 0)
(4.45952 1.74423 0)
(4.30494 1.7729 0)
(4.14756 1.8014 0)
(3.98737 1.82968 0)
(3.82441 1.85763 0)
(3.65868 1.88518 0)
(3.49022 1.91223 0)
(3.31909 1.9387 0)
(3.14532 1.96447 0)
(2.969 1.98946 0)
(2.79019 2.01355 0)
(2.60899 2.03666 0)
(2.42549 2.05867 0)
(2.23981 2.07948 0)
(2.05208 2.09899 0)
(1.86242 2.1171 0)
(1.67099 2.13372 0)
(1.47794 2.14876 0)
(1.28344 2.16212 0)
(1.08761 2.17374 0)
(0.890896 2.18353 0)
(0.692549 2.19148 0)
(0.495944 2.19739 0)
(0.291742 2.20169 0)
(0.102224 2.16477 0)
(9.99986 0.00908928 0)
(9.99874 0.0272967 0)
(9.99638 0.0455352 0)
(9.99271 0.063806 0)
(9.98777 0.0821134 0)
(9.98159 0.100465 0)
(9.97415 0.118872 0)
(9.96541 0.137347 0)
(9.95536 0.155903 0)
(9.94397 0.174553 0)
(9.93124 0.193301 0)
(9.91715 0.21214 0)
(9.90166 0.231087 0)
(9.88477 0.250221 0)
(9.86644 0.269649 0)
(9.84664 0.289306 0)
(9.82533 0.308715 0)
(9.80255 0.327183 0)
(9.7784 0.344834 0)
(9.75288 0.364196 0)
(9.7257 0.391071 0)
(9.69599 0.433181 0)
(9.66225 0.496406 0)
(9.62267 0.580474 0)
(9.57575 0.677074 0)
(9.52092 0.772239 0)
(9.45884 0.851992 0)
(9.39114 0.907994 0)
(9.31985 0.940006 0)
(9.2467 0.954222 0)
(9.17281 0.959184 0)
(9.09863 0.96196 0)
(9.02415 0.966379 0)
(8.94917 0.973383 0)
(8.8735 0.982395 0)
(8.79704 0.992562 0)
(8.7197 1.00336 0)
(8.64148 1.01463 0)
(8.56232 1.02642 0)
(8.48219 1.0388 0)
(8.40104 1.05182 0)
(8.31883 1.06549 0)
(8.23551 1.0798 0)
(8.15101 1.09476 0)
(8.06529 1.11038 0)
(7.97831 1.12664 0)
(7.88999 1.14357 0)
(7.80029 1.16116 0)
(7.70916 1.17941 0)
(7.61653 1.19833 0)
(7.52235 1.21792 0)
(7.42656 1.23817 0)
(7.3291 1.2591 0)
(7.22991 1.28069 0)
(7.12894 1.30295 0)
(7.02611 1.32588 0)
(6.92137 1.34946 0)
(6.81466 1.37368 0)
(6.70592 1.39855 0)
(6.59508 1.42405 0)
(6.48209 1.45017 0)
(6.36688 1.47688 0)
(6.24939 1.50418 0)
(6.12956 1.53204 0)
(6.00733 1.56043 0)
(5.88265 1.58934 0)
(5.75546 1.61872 0)
(5.6257 1.64855 0)
(5.49332 1.67877 0)
(5.35829 1.70936 0)
(5.22054 1.74026 0)
(5.08004 1.77143 0)
(4.93675 1.80279 0)
(4.79064 1.8343 0)
(4.64169 1.86588 0)
(4.48986 1.89746 0)
(4.33516 1.92897 0)
(4.17756 1.96032 0)
(4.01708 1.99143 0)
(3.85372 2.0222 0)
(3.68751 2.05254 0)
(3.51847 2.08234 0)
(3.34665 2.11151 0)
(3.1721 2.13992 0)
(2.99488 2.16748 0)
(2.81507 2.19407 0)
(2.63275 2.21957 0)
(2.44803 2.24387 0)
(2.26102 2.26685 0)
(2.07185 2.2884 0)
(1.88066 2.3084 0)
(1.6876 2.32676 0)
(1.49282 2.34337 0)
(1.29653 2.35814 0)
(1.09881 2.37098 0)
(0.900165 2.38179 0)
(0.699782 2.39058 0)
(0.501189 2.39711 0)
(0.29489 2.40185 0)
(0.103158 2.36156 0)
(9.99986 0.00969578 0)
(9.99874 0.0291203 0)
(9.99639 0.0485832 0)
(9.99273 0.0680892 0)
(9.98781 0.0876451 0)
(9.98166 0.10726 0)
(9.97426 0.126946 0)
(9.96557 0.146717 0)
(9.95559 0.166588 0)
(9.94428 0.186571 0)
(9.93164 0.206669 0)
(9.91765 0.226878 0)
(9.90229 0.247213 0)
(9.88554 0.267762 0)
(9.86737 0.28864 0)
(9.84773 0.309777 0)
(9.82662 0.330662 0)
(9.80405 0.350545 0)
(9.78013 0.369558 0)
(9.75487 0.390421 0)
(9.72797 0.419375 0)
(9.69859 0.464742 0)
(9.66523 0.532869 0)
(9.62611 0.623486 0)
(9.57972 0.727669 0)
(9.52549 0.830384 0)
(9.46404 0.916559 0)
(9.39698 0.977174 0)
(9.32632 1.01192 0)
(9.25379 1.02744 0)
(9.18051 1.03292 0)
(9.10695 1.03599 0)
(9.03308 1.04081 0)
(8.95873 1.0484 0)
(8.88369 1.05815 0)
(8.80787 1.06915 0)
(8.73118 1.08083 0)
(8.6536 1.09301 0)
(8.57509 1.10575 0)
(8.49562 1.11912 0)
(8.41514 1.13318 0)
(8.33359 1.14793 0)
(8.25094 1.16339 0)
(8.16712 1.17954 0)
(8.08208 1.1964 0)
(7.99578 1.21397 0)
(7.90815 1.23224 0)
(7.81915 1.25124 0)
(7.72871 1.27096 0)
(7.63678 1.2914 0)
(7.5433 1.31257 0)
(7.44821 1.33446 0)
(7.35145 1.35709 0)
(7.25296 1.38044 0)
(7.15269 1.40452 0)
(7.05055 1.42933 0)
(6.9465 1.45485 0)
(6.84047 1.48109 0)
(6.7324 1.50803 0)
(6.62222 1.53566 0)
(6.50986 1.56397 0)
(6.39528 1.59294 0)
(6.27839 1.62256 0)
(6.15914 1.6528 0)
(6.03747 1.68364 0)
(5.91331 1.71504 0)
(5.78661 1.74698 0)
(5.6573 1.77941 0)
(5.52534 1.8123 0)
(5.39066 1.8456 0)
(5.25322 1.87926 0)
(5.11297 1.91322 0)
(4.96987 1.94742 0)
(4.82389 1.9818 0)
(4.67498 2.01627 0)
(4.52312 2.05077 0)
(4.3683 2.08521 0)
(4.2105 2.11949 0)
(4.04971 2.15352 0)
(3.88596 2.18721 0)
(3.71924 2.22044 0)
(3.54958 2.2531 0)
(3.37703 2.28508 0)
(3.20163 2.31626 0)
(3.02344 2.3465 0)
(2.84253 2.37569 0)
(2.659 2.4037 0)
(2.47295 2.4304 0)
(2.28448 2.45566 0)
(2.09374 2.47936 0)
(1.90086 2.50137 0)
(1.70599 2.52157 0)
(1.50931 2.53984 0)
(1.31102 2.5561 0)
(1.11123 2.57023 0)
(0.910438 2.58214 0)
(0.707803 2.59181 0)
(0.506998 2.599 0)
(0.298379 2.60421 0)
(0.104212 2.56055 0)
(9.99986 0.0102998 0)
(9.99875 0.0309362 0)
(9.99641 0.0516176 0)
(9.99277 0.0723515 0)
(9.98788 0.0931468 0)
(9.98177 0.114015 0)