# vtk DataFile Version 2.0
sampleSurface
ASCII
DATASET POLYDATA
POINTS 652 double
0 0 0
0.02 0 0
0.02 0 0.1
0 0 0.1
0.04 0 0
0.04 0 0.1
0.06 0 0
0.06 0 0.1
0.08 0 0
0.08 0 0.1
0.1 0 0
0.1 0 0.1
0.12 0 0
0.12 0 0.1
0.14 0 0
0.14 0 0.1
0.16 0 0
0.16 0 0.1
0.18 0 0
0.18 0 0.1
0.2 0 0
0.2 0 0.1
0.22 0 0
0.22 0 0.1
0.24 0 0
0.24 0 0.1
0.26 0 0
0.26 0 0.1
0.28 0 0
0.28 0 0.1
0.3 0 0
0.3 0 0.1
0.32 0 0
0.32 0 0.1
0.34 0 0
0.34 0 0.1
0.36 0 0
0.36 0 0.1
0.38 0 0
0.38 0 0.1
0.4 0 0
0.4 0 0.1
0.42 0 0
0.42 0 0.1
0.44 0 0
0.44 0 0.1
0.46 0 0
0.46 0 0.1
0.48 0 0
0.48 0 0.1
0.5 0 0
0.5 0 0.1
0.52 0 0
0.52 0 0.1
0.54 0 0
0.54 0 0.1
0.56 0 0
0.56 0 0.1
0.58 0 0
0.58 0 0.1
0.6 0 0
0.6 0 0.1
0.62 0 0
0.62 0 0.1
0.64 0 0
0.64 0 0.1
0.66 0 0
0.66 0 0.1
0.68 0 0
0.68 0 0.1
0.7 0 0
0.7 0 0.1
0.72 0 0
0.72 0 0.1
0.74 0 0
0.74 0 0.1
0.76 0 0
0.76 0 0.1
0.78 0 0
0.78 0 0.1
0.8 0 0
0.8 0 0.1
0.82 0 0
0.82 0 0.1
0.84 0 0
0.84 0 0.1
0.86 0 0
0.86 0 0.1
0.88 0 0
0.88 0 0.1
0.9 0 0
0.9 0 0.1
0.92 0 0
0.92 0 0.1
0.94 0 0
0.94 0 0.1
0.96 0 0
0.96 0 0.1
0.98 0 0
0.98 0 0.1
1 0 0
1 0 0.1
1.02 0 0
1.02 0 0.1
1.04 0 0
1.04 0 0.1
1.06 0 0
1.06 0 0.1
1.08 0 0
1.08 0 0.1
1.1 0 0
1.1 0 0.1
1.12 0 0
1.12 0 0.1
1.14 0 0
1.14 0 0.1
1.16 0 0
1.16 0 0.1
1.18 0 0
1.18 0 0.1
1.2 0 0
1.2 0 0.1
1.22 0 0
1.22 0 0.1
1.24 0 0
1.24 0 0.1
1.26 0 0
1.26 0 0.1
1.28 0 0
1.28 0 0.1
1.3 0 0
1.3 0 0.1
1.32 0 0
1.32 0 0.1
1.34 0 0
1.34 0 0.1
1.36 0 0
1.36 0 0.1
1.38 0 0
1.38 0 0.1
1.4 0 0
1.4 0 0.1
1.42 0 0
1.42 0 0.1
1.44 0 0
1.44 0 0.1
1.46 0 0
1.46 0 0.1
1.48 0 0
1.48 0 0.1
1.5 0 0
1.5 0 0.1
1.52 0 0
1.52 0 0.1
1.54 0 0
1.54 0 0.1
1.56 0 0
1.56 0 0.1
1.58 0 0
1.58 0 0.1
1.6 0 0
1.6 0 0.1
1.62 0 0
1.62 0 0.1
1.64 0 0
1.64 0 0.1
1.66 0 0
1.66 0 0.1
1.68 0 0
1.68 0 0.1
1.7 0 0
1.7 0 0.1
1.72 0 0
1.72 0 0.1
1.74 0 0
1.74 0 0.1
1.76 0 0
1.76 0 0.1
1.78 0 0
1.78 0 0.1
1.8 0 0
1.8 0 0.1
1.82 0 0
1.82 0 0.1
1.84 0 0
1.84 0 0.1
1.86 0 0
1.86 0 0.1
1.88 0 0
1.88 0 0.1
1.9 0 0
1.9 0 0.1
1.92 0 0
1.92 0 0.1
1.94 0 0
1.94 0 0.1
1.96 0 0
1.96 0 0.1
1.98 0 0
1.98 0 0.1
2 0 0
2 0 0.1
2 0.02 0
2 0.02 0.1
2 0.04 0
2 0.04 0.1
2 0.06 0
2 0.06 0.1
2 0.08 0
2 0.08 0.1
2 0.1 0
2 0.1 0.1
2 0.12 0
2 0.12 0.1
2 0.14 0
2 0.14 0.1
2 0.16 0
2 0.16 0.1
2 0.18 0
2 0.18 0.1
2 0.2 0
2 0.2 0.1
2 0.22 0
2 0.22 0.1
2 0.24 0
2 0.24 0.1
2 0.26 0
2 0.26 0.1
2 0.28 0
2 0.28 0.1
2 0.3 0
2 0.3 0.1
2 0.32 0
2 0.32 0.1
2 0.34 0
2 0.34 0.1
2 0.36 0
2 0.36 0.1
2 0.38 0
2 0.38 0.1
2 0.4 0
2 0.4 0.1
2 0.42 0
2 0.42 0.1
2 0.44 0
2 0.44 0.1
2 0.46 0
2 0.46 0.1
2 0.48 0
2 0.48 0.1
2 0.5 0
2 0.5 0.1
2 0.52 0
2 0.52 0.1
2 0.54 0
2 0.54 0.1
2 0.56 0
2 0.56 0.1
2 0.58 0
2 0.58 0.1
2 0.6 0
2 0.6 0.1
2 0.62 0
2 0.62 0.1
2 0.64 0
2 0.64 0.1
2 0.66 0
2 0.66 0.1
2 0.68 0
2 0.68 0.1
2 0.7 0
2 0.7 0.1
2 0.72 0
2 0.72 0.1
2 0.74 0
2 0.74 0.1
2 0.76 0
2 0.76 0.1
2 0.78 0
2 0.78 0.1
2 0.8 0
2 0.8 0.1
2 0.82 0
2 0.82 0.1
2 0.84 0
2 0.84 0.1
2 0.86 0
2 0.86 0.1
2 0.88 0
2 0.88 0.1
2 0.9 0
2 0.9 0.1
2 0.92 0
2 0.92 0.1
2 0.94 0
2 0.94 0.1
2 0.96 0
2 0.96 0.1
2 0.98 0
2 0.98 0.1
2 1 0
2 1 0.1
2.02 1 0
2.02 1 0.1
2.04 1 0
2.04 1 0.1
2.06 1 0
2.06 1 0.1
2.08 1 0
2.08 1 0.1
2.1 1 0
2.1 1 0.1
2.12 1 0
2.12 1 0.1
2.14 1 0
2.14 1 0.1
2.16 1 0
2.16 1 0.1
2.18 1 0
2.18 1 0.1
2.2 1 0
2.2 1 0.1
2.22 1 0
2.22 1 0.1
2.24 1 0
2.24 1 0.1
2.26 1 0
2.26 1 0.1
2.28 1 0
2.28 1 0.1
2.3 1 0
2.3 1 0.1
2.32 1 0
2.32 1 0.1
2.34 1 0
2.34 1 0.1
2.36 1 0
2.36 1 0.1
2.38 1 0
2.38 1 0.1
2.4 1 0
2.4 1 0.1
2.42 1 0
2.42 1 0.1
2.44 1 0
2.44 1 0.1
2.46 1 0
2.46 1 0.1
2.48 1 0
2.48 1 0.1
2.5 1 0
2.5 1 0.1
2.5 0 0
2.5 0 0.1
2.5 0.02 0.1
2.5 0.02 0
2.5 0.04 0.1
2.5 0.04 0
2.5 0.06 0.1
2.5 0.06 0
2.5 0.08 0.1
2.5 0.08 0
2.5 0.1 0.1
2.5 0.1 0
2.5 0.12 0.1
2.5 0.12 0
2.5 0.14 0.1
2.5 0.14 0
2.5 0.16 0.1
2.5 0.16 0
2.5 0.18 0.1
2.5 0.18 0
2.5 0.2 0.1
2.5 0.2 0
2.5 0.22 0.1
2.5 0.22 0
2.5 0.24 0.1
2.5 0.24 0
2.5 0.26 0.1
2.5 0.26 0
2.5 0.28 0.1
2.5 0.28 0
2.5 0.3 0.1
2.5 0.3 0
2.5 0.32 0.1
2.5 0.32 0
2.5 0.34 0.1
2.5 0.34 0
2.5 0.36 0.1
2.5 0.36 0
2.5 0.38 0.1
2.5 0.38 0
2.5 0.4 0.1
2.5 0.4 0
2.5 0.42 0.1
2.5 0.42 0
2.5 0.44 0.1
2.5 0.44 0
2.5 0.46 0.1
2.5 0.46 0
2.5 0.48 0.1
2.5 0.48 0
2.5 0.5 0.1
2.5 0.5 0
2.5 0.52 0.1
2.5 0.52 0
2.5 0.54 0.1
2.5 0.54 0
2.5 0.56 0.1
2.5 0.56 0
2.5 0.58 0.1
2.5 0.58 0
2.5 0.6 0.1
2.5 0.6 0
2.5 0.62 0.1
2.5 0.62 0
2.5 0.64 0.1
2.5 0.64 0
2.5 0.66 0.1
2.5 0.66 0
2.5 0.68 0.1
2.5 0.68 0
2.5 0.7 0.1
2.5 0.7 0
2.5 0.72 0.1
2.5 0.72 0
2.5 0.74 0.1
2.5 0.74 0
2.5 0.76 0.1
2.5 0.76 0
2.5 0.78 0.1
2.5 0.78 0
2.5 0.8 0.1
2.5 0.8 0
2.5 0.82 0.1
2.5 0.82 0
2.5 0.84 0.1
2.5 0.84 0
2.5 0.86 0.1
2.5 0.86 0
2.5 0.88 0.1
2.5 0.88 0
2.5 0.9 0.1
2.5 0.9 0
2.5 0.92 0.1
2.5 0.92 0
2.5 0.94 0.1
2.5 0.94 0
2.5 0.96 0.1
2.5 0.96 0
2.5 0.98 0.1
2.5 0.98 0
2.52 0 0
2.52 0 0.1
2.54 0 0
2.54 0 0.1
2.56 0 0
2.56 0 0.1
2.58 0 0
2.58 0 0.1
2.6 0 0
2.6 0 0.1
2.62 0 0
2.62 0 0.1
2.64 0 0
2.64 0 0.1
2.66 0 0
2.66 0 0.1
2.68 0 0
2.68 0 0.1
2.7 0 0
2.7 0 0.1
2.72 0 0
2.72 0 0.1
2.74 0 0
2.74 0 0.1
2.76 0 0
2.76 0 0.1
2.78 0 0
2.78 0 0.1
2.8 0 0
2.8 0 0.1
2.82 0 0
2.82 0 0.1
2.84 0 0
2.84 0 0.1
2.86 0 0
2.86 0 0.1
2.88 0 0
2.88 0 0.1
2.9 0 0
2.9 0 0.1
2.92 0 0
2.92 0 0.1
2.94 0 0
2.94 0 0.1
2.96 0 0
2.96 0 0.1
2.98 0 0
2.98 0 0.1
3 0 0
3 0 0.1
3.02 0 0
3.02 0 0.1
3.04 0 0
3.04 0 0.1
3.06 0 0
3.06 0 0.1
3.08 0 0
3.08 0 0.1
3.1 0 0
3.1 0 0.1
3.12 0 0
3.12 0 0.1
3.14 0 0
3.14 0 0.1
3.16 0 0
3.16 0 0.1
3.18 0 0
3.18 0 0.1
3.2 0 0
3.2 0 0.1
3.22 0 0
3.22 0 0.1
3.24 0 0
3.24 0 0.1
3.26 0 0
3.26 0 0.1
3.28 0 0
3.28 0 0.1
3.3 0 0
3.3 0 0.1
3.32 0 0
3.32 0 0.1
3.34 0 0
3.34 0 0.1
3.36 0 0
3.36 0 0.1
3.38 0 0
3.38 0 0.1
3.4 0 0
3.4 0 0.1
3.42 0 0
3.42 0 0.1
3.44 0 0
3.44 0 0.1
3.46 0 0
3.46 0 0.1
3.48 0 0
3.48 0 0.1
3.5 0 0
3.5 0 0.1
3.52 0 0
3.52 0 0.1
3.54 0 0
3.54 0 0.1
3.56 0 0
3.56 0 0.1
3.58 0 0
3.58 0 0.1
3.6 0 0
3.6 0 0.1
3.62 0 0
3.62 0 0.1
3.64 0 0
3.64 0 0.1
3.66 0 0
3.66 0 0.1
3.68 0 0
3.68 0 0.1
3.7 0 0
3.7 0 0.1
3.72 0 0
3.72 0 0.1
3.74 0 0
3.74 0 0.1
3.76 0 0
3.76 0 0.1
3.78 0 0
3.78 0 0.1
3.8 0 0
3.8 0 0.1
3.82 0 0
3.82 0 0.1
3.84 0 0
3.84 0 0.1
3.86 0 0
3.86 0 0.1
3.88 0 0
3.88 0 0.1
3.9 0 0
3.9 0 0.1
3.92 0 0
3.92 0 0.1
3.94 0 0
3.94 0 0.1
3.96 0 0
3.96 0 0.1
3.98 0 0
3.98 0 0.1
4 0 0
4 0 0.1
4.02 0 0
4.02 0 0.1
4.04 0 0
4.04 0 0.1
4.06 0 0
4.06 0 0.1
4.08 0 0
4.08 0 0.1
4.1 0 0
4.1 0 0.1
4.12 0 0
4.12 0 0.1
4.14 0 0
4.14 0 0.1
4.16 0 0
4.16 0 0.1
4.18 0 0
4.18 0 0.1
4.2 0 0
4.2 0 0.1
4.22 0 0
4.22 0 0.1
4.24 0 0
4.24 0 0.1
4.26 0 0
4.26 0 0.1
4.28 0 0
4.28 0 0.1
4.3 0 0
4.3 0 0.1
4.32 0 0
4.32 0 0.1
4.34 0 0
4.34 0 0.1
4.36 0 0
4.36 0 0.1
4.38 0 0
4.38 0 0.1
4.4 0 0
4.4 0 0.1
4.42 0 0
4.42 0 0.1
4.44 0 0
4.44 0 0.1
4.46 0 0
4.46 0 0.1
4.48 0 0
4.48 0 0.1
4.5 0 0
4.5 0 0.1

POLYGONS 325 1625
4 0 1 2 3
4 1 4 5 2
4 4 6 7 5
4 6 8 9 7
4 8 10 11 9
4 10 12 13 11
4 12 14 15 13
4 14 16 17 15
4 16 18 19 17
4 18 20 21 19
4 20 22 23 21
4 22 24 25 23
4 24 26 27 25
4 26 28 29 27
4 28 30 31 29
4 30 32 33 31
4 32 34 35 33
4 34 36 37 35
4 36 38 39 37
4 38 40 41 39
4 40 42 43 41
4 42 44 45 43
4 44 46 47 45
4 46 48 49 47
4 48 50 51 49
4 50 52 53 51
4 52 54 55 53
4 54 56 57 55
4 56 58 59 57
4 58 60 61 59
4 60 62 63 61
4 62 64 65 63
4 64 66 67 65
4 66 68 69 67
4 68 70 71 69
4 70 72 73 71
4 72 74 75 73
4 74 76 77 75
4 76 78 79 77
4 78 80 81 79
4 80 82 83 81
4 82 84 85 83
4 84 86 87 85
4 86 88 89 87
4 88 90 91 89
4 90 92 93 91
4 92 94 95 93
4 94 96 97 95
4 96 98 99 97
4 98 100 101 99
4 100 102 103 101
4 102 104 105 103
4 104 106 107 105
4 106 108 109 107
4 108 110 111 109
4 110 112 113 111
4 112 114 115 113
4 114 116 117 115
4 116 118 119 117
4 118 120 121 119
4 120 122 123 121
4 122 124 125 123
4 124 126 127 125
4 126 128 129 127
4 128 130 131 129
4 130 132 133 131
4 132 134 135 133
4 134 136 137 135
4 136 138 139 137
4 138 140 141 139
4 140 142 143 141
4 142 144 145 143
4 144 146 147 145
4 146 148 149 147
4 148 150 151 149
4 150 152 153 151
4 152 154 155 153
4 154 156 157 155
4 156 158 159 157
4 158 160 161 159
4 160 162 163 161
4 162 164 165 163
4 164 166 167 165
4 166 168 169 167
4 168 170 171 169
4 170 172 173 171
4 172 174 175 173
4 174 176 177 175
4 176 178 179 177
4 178 180 181 179
4 180 182 183 181
4 182 184 185 183
4 184 186 187 185
4 186 188 189 187
4 188 190 191 189
4 190 192 193 191
4 192 194 195 193
4 194 196 197 195
4 196 198 199 197
4 198 200 201 199
4 200 202 203 201
4 202 204 205 203
4 204 206 207 205
4 206 208 209 207
4 208 210 211 209
4 210 212 213 211
4 212 214 215 213
4 214 216 217 215
4 216 218 219 217
4 218 220 221 219
4 220 222 223 221
4 222 224 225 223
4 224 226 227 225
4 226 228 229 227
4 228 230 231 229
4 230 232 233 231
4 232 234 235 233
4 234 236 237 235
4 236 238 239 237
4 238 240 241 239
4 240 242 243 241
4 242 244 245 243
4 244 246 247 245
4 246 248 249 247
4 248 250 251 249
4 250 252 253 251
4 252 254 255 253
4 254 256 257 255
4 256 258 259 257
4 258 260 261 259
4 260 262 263 261
4 262 264 265 263
4 264 266 267 265
4 266 268 269 267
4 268 270 271 269
4 270 272 273 271
4 272 274 275 273
4 274 276 277 275
4 276 278 279 277
4 278 280 281 279
4 280 282 283 281
4 282 284 285 283
4 284 286 287 285
4 286 288 289 287
4 288 290 291 289
4 290 292 293 291
4 292 294 295 293
4 294 296 297 295
4 296 298 299 297
4 298 300 301 299
4 300 302 303 301
4 302 304 305 303
4 304 306 307 305
4 306 308 309 307
4 308 310 311 309
4 310 312 313 311
4 312 314 315 313
4 314 316 317 315
4 316 318 319 317
4 318 320 321 319
4 320 322 323 321
4 322 324 325 323
4 324 326 327 325
4 326 328 329 327
4 328 330 331 329
4 330 332 333 331
4 332 334 335 333
4 334 336 337 335
4 336 338 339 337
4 338 340 341 339
4 340 342 343 341
4 342 344 345 343
4 344 346 347 345
4 346 348 349 347
4 348 350 351 349
4 352 353 354 355
4 355 354 356 357
4 357 356 358 359
4 359 358 360 361
4 361 360 362 363
4 363 362 364 365
4 365 364 366 367
4 367 366 368 369
4 369 368 370 371
4 371 370 372 373
4 373 372 374 375
4 375 374 376 377
4 377 376 378 379
4 379 378 380 381
4 381 380 382 383
4 383 382 384 385
4 385 384 386 387
4 387 386 388 389
4 389 388 390 391
4 391 390 392 393
4 393 392 394 395
4 395 394 396 397
4 397 396 398 399
4 399 398 400 401
4 401 400 402 403
4 403 402 404 405
4 405 404 406 407
4 407 406 408 409
4 409 408 410 411
4 411 410 412 413
4 413 412 414 415
4 415 414 416 417
4 417 416 418 419
4 419 418 420 421
4 421 420 422 423
4 423 422 424 425
4 425 424 426 427
4 427 426 428 429
4 429 428 430 431
4 431 430 432 433
4 433 432 434 435
4 435 434 436 437
4 437 436 438 439
4 439 438 440 441
4 441 440 442 443
4 443 442 444 445
4 445 444 446 447
4 447 446 448 449
4 449 448 450 451
4 451 450 351 350
4 352 452 453 353
4 452 454 455 453
4 454 456 457 455
4 456 458 459 457
4 458 460 461 459
4 460 462 463 461
4 462 464 465 463
4 464 466 467 465
4 466 468 469 467
4 468 470 471 469
4 470 472 473 471
4 472 474 475 473
4 474 476 477 475
4 476 478 479 477
4 478 480 481 479
4 480 482 483 481
4 482 484 485 483
4 484 486 487 485
4 486 488 489 487
4 488 490 491 489
4 490 492 493 491
4 492 494 495 493
4 494 496 497 495
4 496 498 499 497
4 498 500 501 499
4 500 502 503 501
4 502 504 505 503
4 504 506 507 505
4 506 508 509 507
4 508 510 511 509
4 510 512 513 511
4 512 514 515 513
4 514 516 517 515
4 516 518 519 517
4 518 520 521 519
4 520 522 523 521
4 522 524 525 523
4 524 526 527 525
4 526 528 529 527
4 528 530 531 529
4 530 532 533 531
4 532 534 535 533
4 534 536 537 535
4 536 538 539 537
4 538 540 541 539
4 540 542 543 541
4 542 544 545 543
4 544 546 547 545
4 546 548 549 547
4 548 550 551 549
4 550 552 553 551
4 552 554 555 553
4 554 556 557 555
4 556 558 559 557
4 558 560 561 559
4 560 562 563 561
4 562 564 565 563
4 564 566 567 565
4 566 568 569 567
4 568 570 571 569
4 570 572 573 571
4 572 574 575 573
4 574 576 577 575
4 576 578 579 577
4 578 580 581 579
4 580 582 583 581
4 582 584 585 583
4 584 586 587 585
4 586 588 589 587
4 588 590 591 589
4 590 592 593 591
4 592 594 595 593
4 594 596 597 595
4 596 598 599 597
4 598 600 601 599
4 600 602 603 601
4 602 604 605 603
4 604 606 607 605
4 606 608 609 607
4 608 610 611 609
4 610 612 613 611
4 612 614 615 613
4 614 616 617 615
4 616 618 619 617
4 618 620 621 619
4 620 622 623 621
4 622 624 625 623
4 624 626 627 625
4 626 628 629 627
4 628 630 631 629
4 630 632 633 631
4 632 634 635 633
4 634 636 637 635
4 636 638 639 637
4 638 640 641 639
4 640 642 643 641
4 642 644 645 643
4 644 646 647 645
4 646 648 649 647
4 648 650 651 649
POINT_DATA 652
FIELD attributes 1
U 3 652 float
2.49458 0.00515993 -0.0100186
1.24779 0.00257981 -0.0050093
1.24779 0.00257981 -0.0050093
2.49458 0.00515993 -0.0100186
0.00099153 4.36969e-07 0
0.00099153 4.36969e-07 0
0.000988868 1.48736e-06 0
0.000988868 1.48736e-06 0
0.000986831 7.75964e-07 0
0.000986831 7.75964e-07 0
0.00098689 -1.21729e-06 0
0.00098689 -1.21729e-06 0
0.00098761 -1.99222e-06 0
0.00098761 -1.99222e-06 0
0.000987235 -6.68212e-07 0
0.000987235 -6.68212e-07 0
0.000985483 1.38886e-06 0
0.000985483 1.38886e-06 0
0.000983361 2.39974e-06 0
0.000983361 2.39974e-06 0
0.000981954 2.09471e-06 0
0.000981954 2.09471e-06 0
0.000981366 1.65156e-06 0
0.000981366 1.65156e-06 0
0.000980677 2.06205e-06 0
0.000980677 2.06205e-06 0
0.000978956 3.03803e-06 0
0.000978956 3.03803e-06 0
0.000976183 3.49819e-06 0
0.000976183 3.49819e-06 0
0.00097314 2.8487e-06 0
0.00097314 2.8487e-06 0
0.000970578 1.69605e-06 0
0.000970578 1.69605e-06 0
0.00096855 1.34353e-06 0
0.00096855 1.34353e-06 0
0.000966384 2.53796e-06 0
0.000966384 2.53796e-06 0
0.000963246 4.65046e-06 0
0.000963246 4.65046e-06 0
0.000958902 6.0809e-06 0
0.000958902 6.0809e-06 0
0.000954003 5.55122e-06 0
0.000954003 5.55122e-06 0
0.000949588 3.20864e-06 0
0.000949588 3.20864e-06 0
0.000946236 5.84916e-07 0
0.000946236 5.84916e-07 0
0.000943569 -5.5374e-07 0
0.000943569 -5.5374e-07 0
0.00094047 5.19632e-07 0
0.00094047 5.19632e-07 0
0.000935819 3.05347e-06 0
0.000935819 3.05347e-06 0
0.000929231 5.40289e-06 0
0.000929231 5.40289e-06 0
0.000921288 6.10735e-06 0
0.000921288 6.10735e-06 0
0.000913172 4.77127e-06 0
0.000913172 4.77127e-06 0
0.00090604 2.32816e-06 0
0.00090604 2.32816e-06 0
0.000900503 4.86307e-07 0
0.000900503 4.86307e-07 0
0.000896324 5.9847e-07 0
0.000896324 5.9847e-07 0
0.000892493 2.71321e-06 0
0.000892493 2.71321e-06 0
0.000887806 5.45925e-06 0
0.000887806 5.45925e-06 0
0.000881642 7.01633e-06 0
0.000881642 7.01633e-06 0
0.000874335 6.54799e-06 0
0.000874335 6.54799e-06 0
0.000866742 4.82251e-06 0
0.000866742 4.82251e-06 0
0.000859431 3.44723e-06 0
0.000859431 3.44723e-06 0
0.00085225 3.47001e-06 0
0.00085225 3.47001e-06 0
0.000844624 4.66842e-06 0
0.000844624 4.66842e-06 0
0.000836145 6.06575e-06 0
0.000836145 6.06575e-06 0
0.00082682 6.93298e-06 0
0.00082682 6.93298e-06 0
0.000816861 7.18811e-06 0
0.000816861 7.18811e-06 0
0.000806448 6.99978e-06 0
0.000806448 6.99978e-06 0
0.000795796 6.35335e-06 0
0.000795796 6.35335e-06 0
0.000785252 5.19857e-06 0
0.000785252 5.19857e-06 0
0.000775113 3.87875e-06 0
0.000775113 3.87875e-06 0
0.000765282 3.10354e-06 0
0.000765282 3.10354e-06 0
0.000755246 3.35069e-06 0
0.000755246 3.35069e-06 0
0.000744542 4.41198e-06 0
0.000744542 4.41198e-06 0
0.000733194 5.68722e-06 0
0.000733194 5.68722e-06 0
0.000721548 6.88392e-06 0
0.000721548 6.88392e-06 0
0.00070964 8.22128e-06 0
0.00070964 8.22128e-06 0
0.000696873 9.86004e-06 0
0.000696873 9.86004e-06 0
0.000682532 1.13434e-05 0
0.000682532 1.13434e-05 0
0.000666616 1.1928e-05 0
0.000666616 1.1928e-05 0
0.000649965 1.15802e-05 0
0.000649965 1.15802e-05 0
0.000633365 1.14179e-05 0
0.000633365 1.14179e-05 0
0.000616472 1.28204e-05 0
0.000616472 1.28204e-05 0
0.000597772 1.59548e-05 0
0.000597772 1.59548e-05 0
0.000575783 1.9295e-05 0
0.000575783 1.9295e-05 0
0.000550432 2.08005e-05 0
0.000550432 2.08005e-05 0
0.000523269 1.96117e-05 0
0.000523269 1.96117e-05 0
0.000496432 1.65402e-05 0
0.000496432 1.65402e-05 0
0.000471454 1.3148e-05 0
0.000471454 1.3148e-05 0
0.000448834 1.06193e-05 0
0.000448834 1.06193e-05 0
0.000428268 9.30253e-06 0
0.000428268 9.30253e-06 0
0.000409083 8.92317e-06 0
0.000409083 8.92317e-06 0
0.000390577 9.0355e-06 0
0.000390577 9.0355e-06 0
0.00037222 9.30306e-06 0
0.00037222 9.30306e-06 0
0.0003537 9.54761e-06 0
0.0003537 9.54761e-06 0
0.000334877 9.71266e-06 0
0.000334877 9.71266e-06 0
0.000315722 9.80104e-06 0
0.000315722 9.80104e-06 0
0.000296262 9.82783e-06 0
0.000296262 9.82783e-06 0
0.000276553 9.80075e-06 0
0.000276553 9.80075e-06 0
0.000256663 9.71763e-06 0
0.000256663 9.71763e-06 0
0.000236672 9.57016e-06 0
0.000236672 9.57016e-06 0
0.000216671 9.34794e-06 0
0.000216671 9.34794e-06 0
0.000196763 9.04067e-06 0
0.000196763 9.04067e-06 0
0.000177068 8.63908e-06 0
0.000177068 8.63908e-06 0
0.000157717 8.13574e-06 0
0.000157717 8.13574e-06 0
0.000138855 7.5257e-06 0
0.000138855 7.5257e-06 0
0.000120637 6.80766e-06 0
0.000120637 6.80766e-06 0
0.00010322 5.98458e-06 0
0.00010322 5.98458e-06 0
8.67661e-05 5.06372e-06 0
8.67661e-05 5.06372e-06 0
7.14261e-05 4.05695e-06 0
7.14261e-05 4.05695e-06 0
5.73398e-05 2.98196e-06 0
5.73398e-05 2.98196e-06 0
4.46255e-05 1.86522e-06 0
4.46255e-05 1.86522e-06 0
3.33749e-05 7.37089e-07 0
3.33749e-05 7.37089e-07 0
2.36509e-05 -3.7532e-07 0
2.36509e-05 -3.7532e-07 0
1.54846e-05 -1.44731e-06 0
1.54846e-05 -1.44731e-06 0
8.87247e-06 -2.45585e-06 0
8.87247e-06 -2.45585e-06 0
3.77452e-06 -3.38038e-06 0
3.77452e-06 -3.38038e-06 0
1.17194e-07 -4.20216e-06 0
1.17194e-07 -4.20216e-06 0
-2.20715e-06 -4.90804e-06 0
-2.20715e-06 -4.90804e-06 0
-3.34158e-06 -5.48981e-06 0
-3.34158e-06 -5.48981e-06 0
-3.47196e-06 -5.94323e-06 0
-3.47196e-06 -5.94323e-06 0
-2.79195e-06 -6.27489e-06 0
-2.79195e-06 -6.27489e-06 0
-1.53955e-06 -6.46598e-06 0
-1.53955e-06 -6.46598e-06 0
-8.07988e-07 -6.52005e-06 0
-8.07988e-07 -6.52005e-06 0
3.94756e-06 -1.51342e-06 0
3.94756e-06 -1.51342e-06 0
1.09979e-05 1.60697e-05 0
1.09979e-05 1.60697e-05 0
1.38926e-05 4.27305e-05 0
1.38926e-05 4.27305e-05 0
1.42943e-05 7.14806e-05 0
1.42943e-05 7.14806e-05 0
1.36042e-05 9.97245e-05 0
1.36042e-05 9.97245e-05 0
1.2603e-05 0.000125892 0
1.2603e-05 0.000125892 0
1.16831e-05 0.000150136 0
1.16831e-05 0.000150136 0
1.09908e-05 0.000172772 0
1.09908e-05 0.000172772 0
1.05485e-05 0.000194312 0
1.05485e-05 0.000194312 0
1.03226e-05 0.000215213 0
1.03226e-05 0.000215213 0
1.02608e-05 0.00023584 0
1.02608e-05 0.00023584 0
1.03121e-05 0.000256476 0
1.03121e-05 0.000256476 0
1.04359e-05 0.000277303 0
1.04359e-05 0.000277303 0
1.0603e-05 0.000298429 0
1.0603e-05 0.000298429 0
1.07947e-05 0.000319916 0
1.07947e-05 0.000319916 0
1.09997e-05 0.0003418 0
1.09997e-05 0.0003418 0
1.12128e-05 0.000364099 0
1.12128e-05 0.000364099 0
1.14323e-05 0.000386828 0
1.14323e-05 0.000386828 0
1.16586e-05 0.000409999 0
1.16586e-05 0.000409999 0
1.18938e-05 0.000433629 0
1.18938e-05 0.000433629 0
1.21405e-05 0.000457736 0
1.21405e-05 0.000457736 0
1.24019e-05 0.000482348 0
1.24019e-05 0.000482348 0
1.26804e-05 0.000507496 0
1.26804e-05 0.000507496 0
1.29804e-05 0.00053322 0
1.29804e-05 0.00053322 0
1.33036e-05 0.000559563 0
1.33036e-05 0.000559563 0
1.36561e-05 0.00058658 0
1.36561e-05 0.00058658 0
1.40385e-05 0.000614327 0
1.40385e-05 0.000614327 0
1.44606e-05 0.000642877 0
1.44606e-05 0.000642877 0
1.49201e-05 0.000672301 0
1.49201e-05 0.000672301 0
1.54346e-05 0.000702701 0
1.54346e-05 0.000702701 0
1.59931e-05 0.000734158 0
1.59931e-05 0.000734158 0
1.66342e-05 0.000766823 0
1.66342e-05 0.000766823 0
1.73196e-05 0.000800785 0
1.73196e-05 0.000800785 0
1.8142e-05 0.000836281 0
1.8142e-05 0.000836281 0
1.89934e-05 0.000873385 0
1.89934e-05 0.000873385 0
2.00888e-05 0.000912502 0
2.00888e-05 0.000912502 0
2.11513e-05 0.000953632 0
2.11513e-05 0.000953632 0
2.27081e-05 0.000997531 0
2.27081e-05 0.000997531 0
2.40023e-05 0.00104398 0
2.40023e-05 0.00104398 0
2.64328e-05 0.00109444 0
2.64328e-05 0.00109444 0
2.79218e-05 0.00114824 0
2.79218e-05 0.00114824 0
3.20925e-05 0.00120818 0
3.20925e-05 0.00120818 0
3.36852e-05 0.00127276 0
3.36852e-05 0.00127276 0
4.17273e-05 0.00134766 0
4.17273e-05 0.00134766 0
4.32478e-05 0.00143002 0
4.32478e-05 0.00143002 0
6.18619e-05 0.00153181 0
6.18619e-05 0.00153181 0
6.47561e-05 0.00165104 0
6.47561e-05 0.00165104 0
0.000119351 0.00181062 0
0.000119351 0.00181062 0
0.000140778 0.00202367 0
0.000140778 0.00202367 0
0.000188913 0.0012986 0
0.000188913 0.0012986 0
-0.000193532 0.000253663 0
-0.000193532 0.000253663 0
-0.000519546 9.97591e-05 0
-0.000519546 9.97591e-05 0
-0.000811207 0.000210982 0
-0.000811207 0.000210982 0
-0.00137712 0.000225943 0
-0.00137712 0.000225943 0
-0.00171417 0.000156867 0
-0.00171417 0.000156867 0
-0.00195366 8.03225e-05 0
-0.00195366 8.03225e-05 0
-0.00195865 -1.94255e-05 0
-0.00195865 -1.94255e-05 0
-0.00180709 -0.000124487 0
-0.00180709 -0.000124487 0
-0.00145287 -0.000248775 0
-0.00145287 -0.000248775 0
-0.000879147 -0.000386185 0
-0.000879147 -0.000386185 0
-7.95977e-05 -0.000474018 0
-7.95977e-05 -0.000474018 0
0.000822392 -0.000498126 0
0.000822392 -0.000498126 0
0.00173964 -0.000489787 0
0.00173964 -0.000489787 0
0.00258264 -0.000424235 0
0.00258264 -0.000424235 0
0.00325867 -0.00030035 0
0.00325867 -0.00030035 0
0.00368996 -0.000171583 0
0.00368996 -0.000171583 0
0.00385183 -6.31204e-06 0
0.00385183 -6.31204e-06 0
0.00373765 0.000154037 0
0.00373765 0.000154037 0
0.00335285 0.000315244 0
0.00335285 0.000315244 0
0.00254751 0.000542846 0
0.00254751 0.000542846 0
0.00161446 0.000577627 0
0.00161446 0.000577627 0
0.000603239 0.00028822 0
0.000603239 0.00028822 0
0.000243117 -8.2311e-05 0
0.000243117 -8.2311e-05 0
0.000213098 -5.47151e-05 0
0.000213098 -5.47151e-05 0
-7.65071e-05 0.000713964 0
-7.65071e-05 0.000713964 0
-8.36608e-06 6.85169e-06 0
-8.36608e-06 6.85169e-06 0
-9.3168e-06 1.6199e-05 0
-9.3168e-06 1.6199e-05 0
-1.01113e-05 3.57586e-05 0
-1.01113e-05 3.57586e-05 0
-9.78674e-06 5.51132e-05 0
-9.78674e-06 5.51132e-05 0
-9.5332e-06 7.34516e-05 0
-9.5332e-06 7.34516e-05 0
-9.39647e-06 9.16961e-05 0
-9.39647e-06 9.16961e-05 0
-9.29594e-06 0.000109702 0
-9.29594e-06 0.000109702 0
-9.18909e-06 0.000127528 0
-9.18909e-06 0.000127528 0
-9.06058e-06 0.000145147 0
-9.06058e-06 0.000145147 0
-8.90516e-06 0.000162509 0
-8.90516e-06 0.000162509 0
-8.72e-06 0.000179556 0
-8.72e-06 0.000179556 0
-8.50261e-06 0.000196228 0
-8.50261e-06 0.000196228 0
-8.25008e-06 0.000212459 0
-8.25008e-06 0.000212459 0
-7.95947e-06 0.000228178 0
-7.95947e-06 0.000228178 0
-7.62845e-06 0.000243306 0
-7.62845e-06 0.000243306 0
-7.2545e-06 0.00025776 0
-7.2545e-06 0.00025776 0
-6.83559e-06 0.000271454 0
-6.83559e-06 0.000271454 0
-6.37206e-06 0.000284299 0
-6.37206e-06 0.000284299 0
-5.86548e-06 0.000296204 0
-5.86548e-06 0.000296204 0
-5.31704e-06 0.00030708 0
-5.31704e-06 0.00030708 0
-4.73003e-06 0.000316839 0
-4.73003e-06 0.000316839 0
-4.10904e-06 0.000325405 0
-4.10904e-06 0.000325405 0
-3.4603e-06 0.000332707 0
-3.4603e-06 0.000332707 0
-2.78897e-06 0.000338696 0
-2.78897e-06 0.000338696 0
-2.10136e-06 0.00034332 0
-2.10136e-06 0.00034332 0
-1.40952e-06 0.000346582 0
-1.40952e-06 0.000346582 0
-7.02181e-07 0.000348447 0
-7.02181e-07 0.000348447 0
2.95855e-08 0.000349008 0
2.95855e-08 0.000349008 0
7.77415e-07 0.000348084 0
7.77415e-07 0.000348084 0
1.50457e-06 0.000346068 0
1.50457e-06 0.000346068 0
2.20233e-06 0.000342543 0
2.20233e-06 0.000342543 0
2.78459e-06 0.000338644 0
2.78459e-06 0.000338644 0
3.25534e-06 0.00033307 0
3.25534e-06 0.00033307 0
3.49259e-06 0.000328521 0
3.49259e-06 0.000328521 0
3.54167e-06 0.000322216 0
3.54167e-06 0.000322216 0
3.21559e-06 0.000318729 0
3.21559e-06 0.000318729 0
2.62726e-06 0.000313647 0
2.62726e-06 0.000313647 0
1.27072e-06 0.000313417 0
1.27072e-06 0.000313417 0
-2.38109e-07 0.000312567 0
-2.38109e-07 0.000312567 0
-2.23768e-06 0.000319306 0
-2.23768e-06 0.000319306 0
-7.77578e-06 0.000324712 0
-7.77578e-06 0.000324712 0
-5.49143e-06 0.000349763 0
-5.49143e-06 0.000349763 0
-1.80419e-05 0.000358794 0
-1.80419e-05 0.000358794 0
-3.0663e-05 0.000408616 0
-3.0663e-05 0.000408616 0
-2.83347e-05 0.000468999 0
-2.83347e-05 0.000468999 0
-2.93494e-05 0.000518866 0
-2.93494e-05 0.000518866 0
-7.64838e-05 0.000630893 0
-7.64838e-05 0.000630893 0
-7.77462e-05 0.000734714 0
-7.77462e-05 0.000734714 0
-0.00016005 0.000934954 0
-0.00016005 0.000934954 0
-0.000179342 0.00118304 0
-0.000179342 0.00118304 0
-1.61266e-05 6.83388e-06 0
-1.61266e-05 6.83388e-06 0
-3.20577e-05 6.94728e-06 0
-3.20577e-05 6.94728e-06 0
-4.84745e-05 7.20777e-06 0
-4.84745e-05 7.20777e-06 0
-6.51063e-05 7.49729e-06 0
-6.51063e-05 7.49729e-06 0
-8.21203e-05 7.84233e-06 0
-8.21203e-05 7.84233e-06 0
-9.95528e-05 8.22164e-06 0
-9.95528e-05 8.22164e-06 0
-0.000117414 8.61189e-06 0
-0.000117414 8.61189e-06 0
-0.000135714 8.99421e-06 0
-0.000135714 8.99421e-06 0
-0.000154415 9.34981e-06 0
-0.000154415 9.34981e-06 0
-0.000173483 9.6636e-06 0
-0.000173483 9.6636e-06 0
-0.00019285 9.92427e-06 0
-0.00019285 9.92427e-06 0
-0.000212454 1.01245e-05 0
-0.000212454 1.01245e-05 0
-0.000232211 1.02597e-05 0
-0.000232211 1.02597e-05 0
-0.000252041 1.03289e-05 0
-0.000252041 1.03289e-05 0
-0.000271844 1.03351e-05 0
-0.000271844 1.03351e-05 0
-0.000291514 1.02773e-05 0
-0.000291514 1.02773e-05 0
-0.000310923 1.01476e-05 0
-0.000310923 1.01476e-05 0
-0.000329936 9.93625e-06 0
-0.000329936 9.93625e-06 0
-0.000348399 9.63337e-06 0
-0.000348399 9.63337e-06 0
-0.000366141 9.22942e-06 0
-0.000366141 9.22942e-06 0
-0.000382978 8.71624e-06 0
-0.000382978 8.71624e-06 0
-0.000398708 8.08732e-06 0
-0.000398708 8.08732e-06 0
-0.000413122 7.33787e-06 0
-0.000413122 7.33787e-06 0
-0.000426001 6.46565e-06 0
-0.000426001 6.46565e-06 0
-0.000437127 5.47233e-06 0
-0.000437127 5.47233e-06 0
-0.000446285 4.36472e-06 0
-0.000446285 4.36472e-06 0
-0.000453278 3.15583e-06 0
-0.000453278 3.15583e-06 0
-0.000457933 1.86719e-06 0
-0.000457933 1.86719e-06 0
-0.000460088 5.35844e-07 0
-0.000460088 5.35844e-07 0
-0.000459656 -8.02664e-07 0
-0.000459656 -8.02664e-07 0
-0.000456616 -2.13216e-06 0
-0.000456616 -2.13216e-06 0
-0.00045094 -3.45194e-06 0
-0.00045094 -3.45194e-06 0
-0.000442619 -4.76009e-06 0
-0.000442619 -4.76009e-06 0
-0.000431691 -6.04249e-06 0
-0.000431691 -6.04249e-06 0
-0.000418225 -7.28159e-06 0
-0.000418225 -7.28159e-06 0
-0.000402328 -8.46027e-06 0
-0.000402328 -8.46027e-06 0
-0.000384138 -9.56308e-06 0
-0.000384138 -9.56308e-06 0
-0.000363823 -1.05771e-05 0
-0.000363823 -1.05771e-05 0
-0.000341573 -1.14923e-05 0
-0.000341573 -1.14923e-05 0
-0.000317596 -1.23018e-05 0
-0.000317596 -1.23018e-05 0
-0.000292109 -1.30015e-05 0
-0.000292109 -1.30015e-05 0
-0.000265336 -1.359e-05 0
-0.000265336 -1.359e-05 0
-0.000237499 -1.40685e-05 0
-0.000237499 -1.40685e-05 0
-0.000208816 -1.44406e-05 0
-0.000208816 -1.44406e-05 0
-0.000179497 -1.47115e-05 0
-0.000179497 -1.47115e-05 0
-0.000149737 -1.48878e-05 0
-0.000149737 -1.48878e-05 0
-0.000119719 -1.49767e-05 0
-0.000119719 -1.49767e-05 0
-8.96054e-05 -1.49855e-05 0
-8.96054e-05 -1.49855e-05 0
-5.95435e-05 -1.49253e-05 0
-5.95435e-05 -1.49253e-05 0
-2.9662e-05 -1.48013e-05 0
-2.9662e-05 -1.48013e-05 0
-9.03883e-08 -1.46263e-05 0
-9.03883e-08 -1.46263e-05 0
2.9059e-05 -1.44076e-05 0
2.9059e-05 -1.44076e-05 0
5.77246e-05 -1.41472e-05 0
5.77246e-05 -1.41472e-05 0
8.58465e-05 -1.3857e-05 0
8.58465e-05 -1.3857e-05 0
0.000113361 -1.35428e-05 0
0.000113361 -1.35428e-05 0
0.000140227 -1.32103e-05 0
0.000140227 -1.32103e-05 0
0.000166411 -1.28647e-05 0
0.000166411 -1.28647e-05 0
0.000191894 -1.25105e-05 0
0.000191894 -1.25105e-05 0
0.000216662 -1.21514e-05 0
0.000216662 -1.21514e-05 0
0.000240708 -1.17909e-05 0
0.000240708 -1.17909e-05 0
0.000264033 -1.14316e-05 0
0.000264033 -1.14316e-05 0
0.000286641 -1.10758e-05 0
0.000286641 -1.10758e-05 0
0.000308542 -1.07255e-05 0
0.000308542 -1.07255e-05 0
0.000329748 -1.0382e-05 0
0.000329748 -1.0382e-05 0
0.000350275 -1.00466e-05 0
0.000350275 -1.00466e-05 0
0.000370138 -9.72018e-06 0
0.000370138 -9.72018e-06 0
0.000389358 -9.40331e-06 0
0.000389358 -9.40331e-06 0
0.000407953 -9.09649e-06 0
0.000407953 -9.09649e-06 0
0.000425944 -8.80006e-06 0
0.000425944 -8.80006e-06 0
0.000443352 -8.51422e-06 0
0.000443352 -8.51422e-06 0
0.000460198 -8.23902e-06 0
0.000460198 -8.23902e-06 0
0.000476504 -7.97438e-06 0
0.000476504 -7.97438e-06 0
0.00049229 -7.72019e-06 0
0.00049229 -7.72019e-06 0
0.000507577 -7.47636e-06 0
0.000507577 -7.47636e-06 0
0.000522387 -7.24279e-06 0
0.000522387 -7.24279e-06 0
0.000536738 -7.01934e-06 0
0.000536738 -7.01934e-06 0
0.000550653 -6.80574e-06 0
0.000550653 -6.80574e-06 0
0.000564148 -6.60171e-06 0
0.000564148 -6.60171e-06 0
0.000577244 -6.40696e-06 0
0.000577244 -6.40696e-06 0
0.000589959 -6.22123e-06 0
0.000589959 -6.22123e-06 0
0.000602311 -6.04426e-06 0
0.000602311 -6.04426e-06 0
0.000614316 -5.87581e-06 0
0.000614316 -5.87581e-06 0
0.000625993 -5.71561e-06 0
0.000625993 -5.71561e-06 0
0.000637354 -5.56346e-06 0
0.000637354 -5.56346e-06 0
0.000648423 -5.41906e-06 0
0.000648423 -5.41906e-06 0
0.000659201 -5.28228e-06 0
0.000659201 -5.28228e-06 0
0.000669726 -5.15276e-06 0
0.000669726 -5.15276e-06 0
0.000679977 -5.03047e-06 0
0.000679977 -5.03047e-06 0
0.000690021 -4.91489e-06 0
0.000690021 -4.91489e-06 0
0.000699792 -4.80626e-06 0
0.000699792 -4.80626e-06 0
0.000709423 -4.70368e-06 0
0.000709423 -4.70368e-06 0
0.000718745 -4.60807e-06 0
0.000718745 -4.60807e-06 0
0.000728046 -4.51771e-06 0
0.000728046 -4.51771e-06 0
0.000736922 -4.43488e-06 0
0.000736922 -4.43488e-06 0
0.000746016 -4.35583e-06 0
0.000746016 -4.35583e-06 0
0.000754381 -4.28587e-06 0
0.000754381 -4.28587e-06 0
0.000763475 -4.21674e-06 0
0.000763475 -4.21674e-06 0
0.000771124 -4.16063e-06 0
0.000771124 -4.16063e-06 0
0.985848 -0.00507 0
0.985848 -0.00507 0
1.97092 -0.0101359 0
1.97092 -0.0101359 0
