/*--------------------------------*- C++ -*----------------------------------*\
| =========                 |                                                 |
| \\      /  F ield         | OpenFOAM: The Open Source CFD Toolbox           |
|  \\    /   O peration     | Version:  4.1                                   |
|   \\  /    A nd           | Web:      www.OpenFOAM.org                      |
|    \\/     M anipulation  |                                                 |
\*---------------------------------------------------------------------------*/
FoamFile
{
    version     2.0;
    format      ascii;
    class       volScalarField;
    location    "0.3";
    object      nut;
}
// * * * * * * * * * * * * * * * * * * * * * * * * * * * * * * * * * * * * * //

dimensions      [0 2 -1 0 0 0 0];

internalField   nonuniform List<scalar> 
43750
(
0.00139176
0.00140767
0.00142291
0.00143746
0.00145134
0.00146453
0.00147705
0.00148889
0.00150006
0.00151054
0.00152034
0.00152946
0.00153787
0.00154559
0.00155261
0.00155891
0.0015645
0.00156936
0.00157349
0.00157687
0.00157951
0.00158138
0.00158247
0.00158278
0.00158228
0.00158097
0.00157882
0.00157581
0.00157192
0.00156713
0.00156142
0.00155476
0.00154712
0.00153847
0.00152878
0.00151802
0.00150616
0.00149316
0.001479
0.00146366
0.00144712
0.00142938
0.00141045
0.00139039
0.00136927
0.00134725
0.00132453
0.00130146
0.00127848
0.00125623
0.00123555
0.0012175
0.00120336
0.00119459
0.00119263
0.00119877
0.00121372
0.00123737
0.00126849
0.00130475
0.00134295
0.00137955
0.00141141
0.00144048
0.00146356
0.00147829
0.00148436
0.0014825
0.00147382
0.00145948
0.00144045
0.00141736
0.00139024
0.0013598
0.00132646
0.00129034
0.00125158
0.00121046
0.00116753
0.00112382
0.00108072
0.00103957
0.00100091
0.000964207
0.000928528
0.000893524
0.000860094
0.000830054
0.000805184
0.00077988
0.000754783
0.000730309
0.000706551
0.000683413
0.00066066
0.000637803
0.000613703
0.000584756
0.000537816
0.000418393
0.000846034
0.000841723
0.000838943
0.00083757
0.000837495
0.000838599
0.000840755
0.000843841
0.000847737
0.000852322
0.000857479
0.000863098
0.000869075
0.00087532
0.000881759
0.000888336
0.000895016
0.000901785
0.000908654
0.000915657
0.000922849
0.00093031
0.000938137
0.000946448
0.000955379
0.00096508
0.00097572
0.000987482
0.00100056
0.00101519
0.00103159
0.00105003
0.0010708
0.00109422
0.00112065
0.00115048
0.00118416
0.00122221
0.00126519
0.00131374
0.00136856
0.00143043
0.00150022
0.00157883
0.00166723
0.00176643
0.00187743
0.0020012
0.00213864
0.00229053
0.00245751
0.00263998
0.0028381
0.00305166
0.00327999
0.00352183
0.00377517
0.00403706
0.00430353
0.00456954
0.00482922
0.0050763
0.00530481
0.0055099
0.00568833
0.00583852
0.00596087
0.00605717
0.00612973
0.00618075
0.00621198
0.00622423
0.00621778
0.00618784
0.00612869
0.00603803
0.00591468
0.00575858
0.00557115
0.00535814
0.00513411
0.00492166
0.00474066
0.00459346
0.00445907
0.00429751
0.0040755
0.00378934
0.0034632
0.00317192
0.00291336
0.00268697
0.00248906
0.00231392
0.0021538
0.00199791
0.0018287
0.00161033
0.00125572
0.000525484
0.000843657
0.000835914
0.000828824
0.000822317
0.000816338
0.000810845
0.000805807
0.000801199
0.000797001
0.000793201
0.00078979
0.000786761
0.000784112
0.000781841
0.000779946
0.000778427
0.000777283
0.000776513
0.000776114
0.000776082
0.000776412
0.000777093
0.000778118
0.000779472
0.000781143
0.000783114
0.00078537
0.000787897
0.000790683
0.000793722
0.000797015
0.000800577
0.000804438
0.00080865
0.000813292
0.000818475
0.000824356
0.000831136
0.000839076
0.000848504
0.000859822
0.000873518
0.000890173
0.000910473
0.000935214
0.000965311
0.00100181
0.00104588
0.00109884
0.00116215
0.00123744
0.00132648
0.00143124
0.00155384
0.00169656
0.00186181
0.00205206
0.00226969
0.00251677
0.00279477
0.00310417
0.00344396
0.00381124
0.00420084
0.00460527
0.00501489
0.00541868
0.00580549
0.0061654
0.00649098
0.00677805
0.00702562
0.00723469
0.00740732
0.00754507
0.00764748
0.00771197
0.00773439
0.00770775
0.0076245
0.00749059
0.00732204
0.00713828
0.0069466
0.0067308
0.00645709
0.00609924
0.00565906
0.0051612
0.00466037
0.00418792
0.00375058
0.00335452
0.00300306
0.00269609
0.0024275
0.0021791
0.00190383
0.0014757
0.000606789
0.000843648
0.000835876
0.000828726
0.000822117
0.000815983
0.000810269
0.000804928
0.000799922
0.000795217
0.000790786
0.000786607
0.00078266
0.00077893
0.000775403
0.000772069
0.000768921
0.000765954
0.000763163
0.000760547
0.000758106
0.000755843
0.00075376
0.000751862
0.000750156
0.000748648
0.000747346
0.000746261
0.0007454
0.000744774
0.000744391
0.000744259
0.000744388
0.000744781
0.000745442
0.000746374
0.000747575
0.000749041
0.000750769
0.000752754
0.000754997
0.000757507
0.000760309
0.000763457
0.000767041
0.000771214
0.000776209
0.000782365
0.000790157
0.000800226
0.000813402
0.000830724
0.000853455
0.000883083
0.000921318
0.000970094
0.00103157
0.00110816
0.00120252
0.00131761
0.00145667
0.0016232
0.00182082
0.00205311
0.0023233
0.00263381
0.00298567
0.00337794
0.0038071
0.00426668
0.00474731
0.00523728
0.00572358
0.00619338
0.00663531
0.00704033
0.00740156
0.00771335
0.00796995
0.00816452
0.00828988
0.00834069
0.00831852
0.00823378
0.00809668
0.0079113
0.00766354
0.00733408
0.00691718
0.00642056
0.00584896
0.0052528
0.00466047
0.00409553
0.00357794
0.00312467
0.0027472
0.0024445
0.0021751
0.00174974
0.000673705
0.000843648
0.000835876
0.000828725
0.000822114
0.000815976
0.000810256
0.000804907
0.000799887
0.000795163
0.000790705
0.000786488
0.000782491
0.000778695
0.000775082
0.000771639
0.000768353
0.000765214
0.000762213
0.000759341
0.000756593
0.000753964
0.000751448
0.000749045
0.000746751
0.000744566
0.000742492
0.000740529
0.00073868
0.00073695
0.000735344
0.000733868
0.000732531
0.000731339
0.000730304
0.000729435
0.000728742
0.000728235
0.000727923
0.000727813
0.00072791
0.000728213
0.000728716
0.000729405
0.000730257
0.00073124
0.000732315
0.00073344
0.00073458
0.000735732
0.00073695
0.000738399
0.000740405
0.00074352
0.000748576
0.000756716
0.000769394
0.00078835
0.000815563
0.000853223
0.000903723
0.000969672
0.00105395
0.00115974
0.00129057
0.0014503
0.00164307
0.00187306
0.00214425
0.00245998
0.0028223
0.00323138
0.00368473
0.00417672
0.00469819
0.00523661
0.0057765
0.00630021
0.0067889
0.00722369
0.00758714
0.00786514
0.00804976
0.00814179
0.00814878
0.00807898
0.00793274
0.00770181
0.00737948
0.00696792
0.006473
0.00588899
0.00525257
0.00461083
0.00400088
0.00345502
0.00300047
0.00265743
0.00241309
0.00206203
0.000732397
0.000843648
0.000835876
0.000828725
0.000822114
0.000815976
0.000810256
0.000804906
0.000799885
0.000795161
0.000790702
0.000786485
0.000782486
0.000778687
0.00077507
0.000771621
0.000768326
0.000765176
0.000762158
0.000759264
0.000756488
0.00075382
0.000751256
0.000748791
0.000746419
0.000744138
0.000741944
0.000739836
0.000737811
0.000735869
0.000734011
0.000732237
0.000730549
0.00072895
0.000727443
0.000726035
0.000724729
0.000723534
0.000722457
0.000721505
0.000720688
0.000720013
0.000719488
0.000719118
0.000718904
0.00071884
0.000718914
0.000719098
0.000719349
0.000719603
0.000719772
0.000719746
0.000719405
0.000718642
0.000717418
0.000715828
0.000714203
0.000713197
0.000713859
0.000717643
0.000726359
0.000742091
0.000767106
0.000803808
0.000854741
0.000922634
0.00101048
0.00112158
0.00125963
0.00142867
0.00163304
0.00187715
0.00216518
0.00250049
0.00288495
0.00331786
0.00379486
0.00430677
0.00483869
0.00537009
0.0058761
0.00633057
0.00671032
0.00699945
0.00719114
0.00728528
0.00728291
0.00718246
0.0069817
0.00668229
0.00629189
0.0058258
0.00529479
0.00471646
0.00413894
0.00360507
0.00315195
0.00281257
0.00259643
0.00232177
0.000788087
0.000843649
0.000835877
0.000828725
0.000822114
0.000815977
0.000810256
0.000804906
0.000799885
0.000795161
0.000790702
0.000786484
0.000782485
0.000778685
0.000775068
0.000771618
0.000768323
0.00076517
0.000762151
0.000759255
0.000756475
0.000753804
0.000751234
0.000748761
0.000746379
0.000744085
0.000741873
0.000739742
0.000737688
0.000735709
0.000733803
0.000731969
0.000730206
0.000728515
0.000726896
0.000725349
0.000723878
0.000722484
0.000721171
0.000719944
0.000718808
0.000717768
0.000716833
0.000716008
0.000715301
0.000714719
0.000714266
0.000713943
0.000713746
0.000713661
0.000713659
0.000713692
0.000713685
0.000713531
0.000713084
0.000712168
0.000710592
0.000708201
0.000704953
0.00070103
0.000696963
0.000693733
0.000692807
0.000696087
0.000705791
0.000724319
0.000754159
0.000797861
0.000858075
0.000937626
0.00103959
0.00116738
0.00132469
0.0015155
0.00174383
0.00201332
0.00232654
0.00268393
0.00308242
0.003514
0.00396474
0.004415
0.00484136
0.00522016
0.00553128
0.00576023
0.00589765
0.00593752
0.00587664
0.00571581
0.00546127
0.00512616
0.00474385
0.00432977
0.00389253
0.00347447
0.00311437
0.00285099
0.00270637
0.00250327
0.000839683
0.000843649
0.000835877
0.000828726
0.000822115
0.000815978
0.000810257
0.000804907
0.000799887
0.000795162
0.000790704
0.000786486
0.000782487
0.000778688
0.00077507
0.000771621
0.000768326
0.000765175
0.000762155
0.00075926
0.00075648
0.000753809
0.000751239
0.000748766
0.000746383
0.000744087
0.000741873
0.000739739
0.00073768
0.000735694
0.000733779
0.000731934
0.000730155
0.000728443
0.000726796
0.000725215
0.000723699
0.000722248
0.000720864
0.000719549
0.000718305
0.000717134
0.00071604
0.000715028
0.000714104
0.000713273
0.000712541
0.000711917
0.000711407
0.000711014
0.00071074
0.000710581
0.000710522
0.000710531
0.000710556
0.000710513
0.000710279
0.000709685
0.000708521
0.000706552
0.00070357
0.000699469
0.000694374
0.000688775
0.000683652
0.000680521
0.000681385
0.000688594
0.000704679
0.00073222
0.00077379
0.000831968
0.000909396
0.00100883
0.00113314
0.00128525
0.00146793
0.00168337
0.00193254
0.00221419
0.00252387
0.00285299
0.00318869
0.00351472
0.00381326
0.00406716
0.00426158
0.00438488
0.00442931
0.0043918
0.00427501
0.00408795
0.00384717
0.00358708
0.00333632
0.0030927
0.00288574
0.00275341
0.00272525
0.00262767
0.000879321
0.000843649
0.000835878
0.000828727
0.000822116
0.000815979
0.000810259
0.000804909
0.000799889
0.000795164
0.000790706
0.000786489
0.00078249
0.000778691
0.000775074
0.000771625
0.000768331
0.000765179
0.00076216
0.000759265
0.000756486
0.000753814
0.000751245
0.000748771
0.000746389
0.000744092
0.000741879
0.000739743
0.000737684
0.000735697
0.00073378
0.000731931
0.00073015
0.000728433
0.00072678
0.000725189
0.000723662
0.000722196
0.000720792
0.000719451
0.000718172
0.000716958
0.000715809
0.000714728
0.000713717
0.00071278
0.00071192
0.000711144
0.000710457
0.000709866
0.000709378
0.000708998
0.000708732
0.000708581
0.000708539
0.000708588
0.000708693
0.000708792
0.000708788
0.000708541
0.000707861
0.000706512
0.000704239
0.000700816
0.000696143
0.000690371
0.00068405
0.00067825
0.0006746
0.000675227
0.000682596
0.000699312
0.000727965
0.00077104
0.000830883
0.000909694
0.00100947
0.00113187
0.00127799
0.0014479
0.00164018
0.00185129
0.00207523
0.00230342
0.00252527
0.00272905
0.00290315
0.00303714
0.00312297
0.00315598
0.00313595
0.00306771
0.00296145
0.0028326
0.00270112
0.00259872
0.00254043
0.00255168
0.00265826
0.0026858
0.000906523
0.000843649
0.000835878
0.000828728
0.000822117
0.00081598
0.000810261
0.000804911
0.000799891
0.000795167
0.00079071
0.000786493
0.000782495
0.000778696
0.000775079
0.000771631
0.000768337
0.000765186
0.000762168
0.000759273
0.000756494
0.000753823
0.000751254
0.000748781
0.000746398
0.000744102
0.000741888
0.000739753
0.000737693
0.000735706
0.000733789
0.000731939
0.000730156
0.000728438
0.000726782
0.00072519
0.000723658
0.000722188
0.000720778
0.000719429
0.00071814
0.000716912
0.000715745
0.000714641
0.0007136
0.000712624
0.000711715
0.000710876
0.00071011
0.000709422
0.000708817
0.000708301
0.000707881
0.000707564
0.000707357
0.000707263
0.000707282
0.000707404
0.000707606
0.000707844
0.000708041
0.000708083
0.000707807
0.000706999
0.000705406
0.00070277
0.000698891
0.000693736
0.000687568
0.000681096
0.00067557
0.000672794
0.000675018
0.000684749
0.000704521
0.00073671
0.00078339
0.000846225
0.000926342
0.00102415
0.00113912
0.00126948
0.00141204
0.0015621
0.00171359
0.00185953
0.00199263
0.00210601
0.00219402
0.00225303
0.00228216
0.00228384
0.00226406
0.00223236
0.00220174
0.00218924
0.00221683
0.00232048
0.00253505
0.0026806
0.00092217
0.00084365
0.000835879
0.000828729
0.000822119
0.000815982
0.000810263
0.000804914
0.000799894
0.000795171
0.000790714
0.000786497
0.0007825
0.000778701
0.000775086
0.000771638
0.000768344
0.000765194
0.000762176
0.000759282
0.000756503
0.000753833
0.000751264
0.000748791
0.000746409
0.000744114
0.0007419
0.000739765
0.000737705
0.000735717
0.000733799
0.00073195
0.000730166
0.000728446
0.00072679
0.000725195
0.000723662
0.000722189
0.000720777
0.000719424
0.000718131
0.000716898
0.000715725
0.000714613
0.000713562
0.000712573
0.000711647
0.000710786
0.000709991
0.000709265
0.000708612
0.000708034
0.000707537
0.000707126
0.000706807
0.000706589
0.000706478
0.000706479
0.000706595
0.000706821
0.000707142
0.000707523
0.000707903
0.000708188
0.000708238
0.000707862
0.000706826
0.000704875
0.000701776
0.000697411
0.000691885
0.000685668
0.000679713
0.000675509
0.000675023
0.000680531
0.000694379
0.000718715
0.000755264
0.000805139
0.000868674
0.000945279
0.00103332
0.00113012
0.00123202
0.00133469
0.00143349
0.00152399
0.00160249
0.00166651
0.00171532
0.00175029
0.00177522
0.00179665
0.0018244
0.00187269
0.0019627
0.00212967
0.00241189
0.00263461
0.000931351
0.00084365
0.00083588
0.00082873
0.00082212
0.000815984
0.000810265
0.000804917
0.000799898
0.000795175
0.000790718
0.000786502
0.000782505
0.000778708
0.000775093
0.000771645
0.000768353
0.000765203
0.000762186
0.000759292
0.000756514
0.000753844
0.000751276
0.000748804
0.000746422
0.000744127
0.000741913
0.000739778
0.000737718
0.000735731
0.000733813
0.000731962
0.000730178
0.000728458
0.0007268
0.000725204
0.00072367
0.000722195
0.00072078
0.000719425
0.00071813
0.000716894
0.000715718
0.000714601
0.000713546
0.000712552
0.00071162
0.000710751
0.000709946
0.000709208
0.000708537
0.000707937
0.00070741
0.000706959
0.00070659
0.000706308
0.000706119
0.000706029
0.000706047
0.000706177
0.000706425
0.000706786
0.000707252
0.000707792
0.000708359
0.000708868
0.000709197
0.000709178
0.000708596
0.000707211
0.000704794
0.000701197
0.000696455
0.000690903
0.000685297
0.00068087
0.000679301
0.000682567
0.000692698
0.000711491
0.000740251
0.000779573
0.000829218
0.000888057
0.000954133
0.00102483
0.00109715
0.00116808
0.00123496
0.00129592
0.00135022
0.0013986
0.00144368
0.00149053
0.00154757
0.00162822
0.00175376
0.00196019
0.00228825
0.00256414
0.000933614
0.00084365
0.00083588
0.000828731
0.000822122
0.000815986
0.000810268
0.00080492
0.000799902
0.000795179
0.000790723
0.000786508
0.000782512
0.000778715
0.000775101
0.000771654
0.000768362
0.000765213
0.000762197
0.000759304
0.000756527
0.000753857
0.00075129
0.000748818
0.000746437
0.000744142
0.000741929
0.000739794
0.000737734
0.000735746
0.000733828
0.000731978
0.000730193
0.000728472
0.000726813
0.000725216
0.00072368
0.000722204
0.000720788
0.000719431
0.000718133
0.000716894
0.000715715
0.000714596
0.000713538
0.000712541
0.000711605
0.000710732
0.000709924
0.000709181
0.000708504
0.000707897
0.00070736
0.000706897
0.00070651
0.000706204
0.000705982
0.00070585
0.000705815
0.000705882
0.000706058
0.000706351
0.000706764
0.000707296
0.000707939
0.000708668
0.000709439
0.00071018
0.000710778
0.000711083
0.000710901
0.000710014
0.000708214
0.000705361
0.000701474
0.000696833
0.000692077
0.00068825
0.000686771
0.000689289
0.000697458
0.000712668
0.000735806
0.000767097
0.000806046
0.000851494
0.000901787
0.00095501
0.0010093
0.00106315
0.00111576
0.00116738
0.00121981
0.00127717
0.00134716
0.00144292
0.00158613
0.00181372
0.00216841
0.00247791
0.000930822
0.000843651
0.000835881
0.000828732
0.000822124
0.000815989
0.000810271
0.000804923
0.000799906
0.000795184
0.000790729
0.000786514
0.000782519
0.000778723
0.000775109
0.000771663
0.000768372
0.000765224
0.000762208
0.000759317
0.00075654
0.000753871
0.000751305
0.000748833
0.000746453
0.000744158
0.000741946
0.000739811
0.000737751
0.000735764
0.000733846
0.000731995
0.000730209
0.000728488
0.000726829
0.000725231
0.000723694
0.000722216
0.000720798
0.000719439
0.00071814
0.000716899
0.000715718
0.000714596
0.000713535
0.000712535
0.000711597
0.000710721
0.00070991
0.000709164
0.000708486
0.000707875
0.000707336
0.000706869
0.000706478
0.000706165
0.000705934
0.000705789
0.000705734
0.000705776
0.000705919
0.000706171
0.000706539
0.000707029
0.000707645
0.000708388
0.000709248
0.000710205
0.00071122
0.000712224
0.000713117
0.000713763
0.000713991
0.000713613
0.000712454
0.000710412
0.00070753
0.000704085
0.000700654
0.000698148
0.000697756
0.000700811
0.000708598
0.000722129
0.000741984
0.000768218
0.000800384
0.000837645
0.000878963
0.000923341
0.000970103
0.00101925
0.00107202
0.00113184
0.00120576
0.00130661
0.00145619
0.00169192
0.00205792
0.00238417
0.000924763
0.000843651
0.000835882
0.000828734
0.000822126
0.000815991
0.000810274
0.000804927
0.00079991
0.000795189
0.000790735
0.000786521
0.000782526
0.000778731
0.000775118
0.000771673
0.000768383
0.000765236
0.000762221
0.00075933
0.000756554
0.000753887
0.000751321
0.00074885
0.00074647
0.000744176
0.000741964
0.00073983
0.000737771
0.000735783
0.000733865
0.000732014
0.000730228
0.000728506
0.000726847
0.000725248
0.00072371
0.000722231
0.000720812
0.000719451
0.00071815
0.000716907
0.000715724
0.0007146
0.000713536
0.000712534
0.000711593
0.000710716
0.000709902
0.000709155
0.000708474
0.000707862
0.000707322
0.000706854
0.000706462
0.000706149
0.000705917
0.000705771
0.000705714
0.000705751
0.000705886
0.000706127
0.000706479
0.000706949
0.000707544
0.000708272
0.000709137
0.000710138
0.000711271
0.000712514
0.000713833
0.000715166
0.000716426
0.000717493
0.000718225
0.000718473
0.000718115
0.000717106
0.000715543
0.000713731
0.000712225
0.000711829
0.00071354
0.000718415
0.000727431
0.000741327
0.000760522
0.000785092
0.000814835
0.000849398
0.000888476
0.000932119
0.000981301
0.00103896
0.0011116
0.00121153
0.00136022
0.00159503
0.00196074
0.00229004
0.000917038
0.000843652
0.000835883
0.000828735
0.000822128
0.000815994
0.000810277
0.000804931
0.000799915
0.000795195
0.000790741
0.000786528
0.000782534
0.00077874
0.000775128
0.000771684
0.000768395
0.000765248
0.000762235
0.000759345
0.00075657
0.000753903
0.000751338
0.000748868
0.000746489
0.000744196
0.000741984
0.00073985
0.000737791
0.000735804
0.000733886
0.000732035
0.000730249
0.000728527
0.000726867
0.000725268
0.000723729
0.000722249
0.000720828
0.000719466
0.000718163
0.000716919
0.000715733
0.000714607
0.000713542
0.000712537
0.000711595
0.000710715
0.0007099
0.00070915
0.000708468
0.000707855
0.000707314
0.000706846
0.000706455
0.000706143
0.000705914
0.00070577
0.000705716
0.000705757
0.000705896
0.00070614
0.000706495
0.000706967
0.000707563
0.000708293
0.000709162
0.00071018
0.000711352
0.00071268
0.000714159
0.000715776
0.000717498
0.000719277
0.000721041
0.000722698
0.000724143
0.00072528
0.000726058
0.000726507
0.000726799
0.000727283
0.000728506
0.000731192
0.000736176
0.000744305
0.000756342
0.000772883
0.000794331
0.000820919
0.000852797
0.000890253
0.000934233
0.000987389
0.00105576
0.00115102
0.00129407
0.0015217
0.00187869
0.00220051
0.000908844
0.000843652
0.000835884
0.000828737
0.00082213
0.000815997
0.000810281
0.000804935
0.00079992
0.0007952
0.000790747
0.000786536
0.000782543
0.000778749
0.000775138
0.000771695
0.000768407
0.000765262
0.000762249
0.00075936
0.000756586
0.00075392
0.000751356
0.000748887
0.000746509
0.000744216
0.000742005
0.000739872
0.000737814
0.000735827
0.000733909
0.000732058
0.000730272
0.00072855
0.000726889
0.00072529
0.00072375
0.000722269
0.000720847
0.000719484
0.00071818
0.000716934
0.000715746
0.000714619
0.000713551
0.000712545
0.0007116
0.000710718
0.000709901
0.00070915
0.000708467
0.000707853
0.000707311
0.000706844
0.000706454
0.000706144
0.000705917
0.000705777
0.000705729
0.000705776
0.000705924
0.000706177
0.000706543
0.000707028
0.00070764
0.000708385
0.000709275
0.000710317
0.000711523
0.000712903
0.000714464
0.000716214
0.000718154
0.000720275
0.000722561
0.000724979
0.000727483
0.000730021
0.000732542
0.000735023
0.000737494
0.000740082
0.000743037
0.000746763
0.000751806
0.000758827
0.000768548
0.000781684
0.000798892
0.000820739
0.000847699
0.000880277
0.000919433
0.000967596
0.00103035
0.00111879
0.00125311
0.00146938
0.00181176
0.00211835
0.000900971
0.000843653
0.000835885
0.000828738
0.000822132
0.000815999
0.000810284
0.000804939
0.000799925
0.000795206
0.000790754
0.000786543
0.000782551
0.000778759
0.000775149
0.000771707
0.00076842
0.000765276
0.000762264
0.000759376
0.000756603
0.000753938
0.000751375
0.000748907
0.000746529
0.000744238
0.000742028
0.000739895
0.000737837
0.000735851
0.000733933
0.000732083
0.000730297
0.000728575
0.000726914
0.000725314
0.000723773
0.000722292
0.000720869
0.000719505
0.000718199
0.000716952
0.000715763
0.000714634
0.000713564
0.000712556
0.000711609
0.000710726
0.000709907
0.000709154
0.00070847
0.000707855
0.000707313
0.000706846
0.000706457
0.000706149
0.000705925
0.00070579
0.000705747
0.000705802
0.000705959
0.000706225
0.000706606
0.000707108
0.00070774
0.000708511
0.000709429
0.000710506
0.000711754
0.000713186
0.000714816
0.000716659
0.000718731
0.000721045
0.000723614
0.000726446
0.000729543
0.000732904
0.000736525
0.000740407
0.000744577
0.000749098
0.000754107
0.000759832
0.000766614
0.000774913
0.000785288
0.00079837
0.000814822
0.000835286
0.000860339
0.000890518
0.000926648
0.000970793
0.00102799
0.00110871
0.00123257
0.00143486
0.00175876
0.0020447
0.000893887
0.000843653
0.000835886
0.00082874
0.000822134
0.000816002
0.000810288
0.000804944
0.00079993
0.000795213
0.000790761
0.000786552
0.000782561
0.000778769
0.00077516
0.00077172
0.000768433
0.00076529
0.00076228
0.000759393
0.000756621
0.000753957
0.000751395
0.000748928
0.000746551
0.000744261
0.000742051
0.000739919
0.000737862
0.000735876
0.000733959
0.000732109
0.000730324
0.000728601
0.00072694
0.00072534
0.000723799
0.000722317
0.000720894
0.000719528
0.000718221
0.000716973
0.000715782
0.000714652
0.000713581
0.00071257
0.000711622
0.000710737
0.000709917
0.000709163
0.000708477
0.000707862
0.000707319
0.000706853
0.000706464
0.000706158
0.000705938
0.000705807
0.00070577
0.000705833
0.000706001
0.000706279
0.000706675
0.000707196
0.000707851
0.000708649
0.000709601
0.000710718
0.000712013
0.000713502
0.000715202
0.000717131
0.000719311
0.000721768
0.000724526
0.000727616
0.00073107
0.000734921
0.000739208
0.000743975
0.000749281
0.00075521
0.000761883
0.000769483
0.000778268
0.00078859
0.000800896
0.000815718
0.000833648
0.000855283
0.00088114
0.000911604
0.000947128
0.000989133
0.00104186
0.00111505
0.00122784
0.0014148
0.0017179
0.00197961
0.000887826
0.000843654
0.000835887
0.000828742
0.000822137
0.000816005
0.000810292
0.000804948
0.000799936
0.000795219
0.000790769
0.00078656
0.00078257
0.00077878
0.000775172
0.000771732
0.000768447
0.000765305
0.000762296
0.00075941
0.000756639
0.000753977
0.000751416
0.00074895
0.000746574
0.000744284
0.000742076
0.000739945
0.000737888
0.000735903
0.000733987
0.000732137
0.000730352
0.000728629
0.000726968
0.000725368
0.000723827
0.000722344
0.00072092
0.000719554
0.000718246
0.000716996
0.000715805
0.000714673
0.0007136
0.000712588
0.000711638
0.000710752
0.00070993
0.000709174
0.000708488
0.000707872
0.000707329
0.000706862
0.000706475
0.000706171
0.000705954
0.000705827
0.000705797
0.000705867
0.000706045
0.000706336
0.000706748
0.000707289
0.000707967
0.000708794
0.00070978
0.000710938
0.000712282
0.000713829
0.000715599
0.000717613
0.000719896
0.000722477
0.000725391
0.000728678
0.000732383
0.000736561
0.000741277
0.000746607
0.000752646
0.000759512
0.000767358
0.000776382
0.000786846
0.000799087
0.000813531
0.000830686
0.000851117
0.000875388
0.000903927
0.000936868
0.000974116
0.00101616
0.00106612
0.00113276
0.00123476
0.00140606
0.00168726
0.0019226
0.000882878
0.000843654
0.000835888
0.000828744
0.000822139
0.000816009
0.000810296
0.000804953
0.000799941
0.000795226
0.000790777
0.000786569
0.00078258
0.000778791
0.000775184
0.000771746
0.000768462
0.000765321
0.000762313
0.000759428
0.000756659
0.000753997
0.000751437
0.000748972
0.000746598
0.000744309
0.000742102
0.000739972
0.000737916
0.000735931
0.000734016
0.000732166
0.000730381
0.000728659
0.000726998
0.000725398
0.000723857
0.000722374
0.000720949
0.000719582
0.000718273
0.000717023
0.00071583
0.000714696
0.000713623
0.000712609
0.000711658
0.00071077
0.000709946
0.00070919
0.000708502
0.000707885
0.000707342
0.000706875
0.000706489
0.000706187
0.000705972
0.00070585
0.000705825
0.000705903
0.000706091
0.000706395
0.000706823
0.000707383
0.000708085
0.00070894
0.00070996
0.000711158
0.000712551
0.000714157
0.000715996
0.000718091
0.000720472
0.000723171
0.000726226
0.000729682
0.000733593
0.000738025
0.000743054
0.000748776
0.000755309
0.000762801
0.000771436
0.00078145
0.000793145
0.0008069
0.000823187
0.00084257
0.000865677
0.00089312
0.000925304
0.000962145
0.00100293
0.00104704
0.00109611
0.0011577
0.00124984
0.00140591
0.00166501
0.00187292
0.000879047
0.000843655
0.00083589
0.000828745
0.000822142
0.000816012
0.0008103
0.000804958
0.000799947
0.000795232
0.000790784
0.000786578
0.00078259
0.000778802
0.000775197
0.000771759
0.000768477
0.000765337
0.00076233
0.000759447
0.000756679
0.000754018
0.000751459
0.000748996
0.000746623
0.000744335
0.000742128
0.000739999
0.000737944
0.000735961
0.000734046
0.000732197
0.000730413
0.000728691
0.00072703
0.00072543
0.000723888
0.000722405
0.00072098
0.000719613
0.000718303
0.000717051
0.000715858
0.000714723
0.000713648
0.000712633
0.00071168
0.000710791
0.000709966
0.000709208
0.000708519
0.000707901
0.000707357
0.000706891
0.000706506
0.000706205
0.000705993
0.000705874
0.000705855
0.000705941
0.000706138
0.000706454
0.000706897
0.000707476
0.000708201
0.000709084
0.000710137
0.000711376
0.000712816
0.000714478
0.000716384
0.000718558
0.000721032
0.000723841
0.000727026
0.000730637
0.000734731
0.000739379
0.000744666
0.000750696
0.000757598
0.000765536
0.000774719
0.000785414
0.000797964
0.000812809
0.000830502
0.000851711
0.000877202
0.000907727
0.000943784
0.000985184
0.00103068
0.00107844
0.00112845
0.00118666
0.00127031
0.00141209
0.00164956
0.00182979
0.000876292
0.000843655
0.000835891
0.000828747
0.000822144
0.000816015
0.000810304
0.000804963
0.000799953
0.000795239
0.000790792
0.000786587
0.0007826
0.000778813
0.000775209
0.000771773
0.000768492
0.000765354
0.000762348
0.000759466
0.000756699
0.00075404
0.000751483
0.00074902
0.000746648
0.000744362
0.000742156
0.000740028
0.000737974
0.000735991
0.000734077
0.000732229
0.000730445
0.000728724
0.000727063
0.000725463
0.000723922
0.000722439
0.000721013
0.000719645
0.000718335
0.000717083
0.000715888
0.000714752
0.000713676
0.00071266
0.000711705
0.000710814
0.000709988
0.000709229
0.000708538
0.00070792
0.000707376
0.000706909
0.000706524
0.000706225
0.000706015
0.0007059
0.000705886
0.000705979
0.000706185
0.000706512
0.00070697
0.000707567
0.000708314
0.000709224
0.000710309
0.000711587
0.000713073
0.000714789
0.000716759
0.000719008
0.00072157
0.000724483
0.000727789
0.000731541
0.000735802
0.000740644
0.000746158
0.000752451
0.000759658
0.00076795
0.000777546
0.000788732
0.000801883
0.000817489
0.000836185
0.000858765
0.000886164
0.000919347
0.000959016
0.00100503
0.00105577
0.0011083
0.0011608
0.00121734
0.00129405
0.00142284
0.00163961
0.00179248
0.000874552
0.000843656
0.000835892
0.000828749
0.000822147
0.000816018
0.000810308
0.000804968
0.000799959
0.000795246
0.000790801
0.000786596
0.000782611
0.000778825
0.000775222
0.000771788
0.000768508
0.000765371
0.000762366
0.000759486
0.00075672
0.000754063
0.000751506
0.000749045
0.000746674
0.000744389
0.000742185
0.000740058
0.000738005
0.000736023
0.00073411
0.000732262
0.000730479
0.000728758
0.000727098
0.000725498
0.000723957
0.000722474
0.000721048
0.00071968
0.000718369
0.000717116
0.000715921
0.000714784
0.000713706
0.000712689
0.000711733
0.000710841
0.000710013
0.000709252
0.000708561
0.000707941
0.000707396
0.00070693
0.000706545
0.000706247
0.000706039
0.000705927
0.000705917
0.000706016
0.000706231
0.000706569
0.00070704
0.000707654
0.000708422
0.000709358
0.000710474
0.000711789
0.000713319
0.000715087
0.000717117
0.000719438
0.000722084
0.000725093
0.000728511
0.000732395
0.000736807
0.000741826
0.000747544
0.000754072
0.000761548
0.000770144
0.000780083
0.000791657
0.000805257
0.000821408
0.000840808
0.000864364
0.000893186
0.000928483
0.000971237
0.00102151
0.00107753
0.00113545
0.00119166
0.00124814
0.00131954
0.00143679
0.00163412
0.00176034
0.000873762
0.000843657
0.000835893
0.000828751
0.000822149
0.000816022
0.000810312
0.000804973
0.000799965
0.000795254
0.000790809
0.000786606
0.000782621
0.000778837
0.000775236
0.000771802
0.000768524
0.000765388
0.000762385
0.000759506
0.000756742
0.000754085
0.000751531
0.000749071
0.000746701
0.000744417
0.000742214
0.000740088
0.000738037
0.000736056
0.000734143
0.000732297
0.000730514
0.000728794
0.000727135
0.000725535
0.000723994
0.000722511
0.000721085
0.000719717
0.000718405
0.000717151
0.000715955
0.000714818
0.000713739
0.00071272
0.000711764
0.00071087
0.000710041
0.000709279
0.000708586
0.000707965
0.000707419
0.000706952
0.000706568
0.00070627
0.000706064
0.000705955
0.000705949
0.000706053
0.000706275
0.000706623
0.000707107
0.000707737
0.000708525
0.000709484
0.00071063
0.000711979
0.000713551
0.000715368
0.000717456
0.000719845
0.000722569
0.000725669
0.000729193
0.000733197
0.00073775
0.00074293
0.000748833
0.000755574
0.000763293
0.000772162
0.000782405
0.000794314
0.000808283
0.000824851
0.00084476
0.000869
0.000898833
0.000935708
0.000980929
0.00103488
0.00109584
0.00115936
0.00122019
0.00127804
0.00134572
0.00145297
0.00163227