/*--------------------------------*- C++ -*----------------------------------*\
| =========                 |                                                 |
| \\      /  F ield         | OpenFOAM: The Open Source CFD Toolbox           |
|  \\    /   O peration     | Version:  4.1                                   |
|   \\  /    A nd           | Web:      www.OpenFOAM.org                      |
|    \\/     M anipulation  |                                                 |
\*---------------------------------------------------------------------------*/
FoamFile
{
    version     2.0;
    format      ascii;
    class       surfaceScalarField;
    location    "0.3";
    object      phi;
}
// * * * * * * * * * * * * * * * * * * * * * * * * * * * * * * * * * * * * * //

dimensions      [0 3 -1 0 0 0 0];

internalField   nonuniform List<scalar> 
87025
(
0.0199638
3.62302e-05
0.0199061
5.76403e-05
0.0198368
6.93118e-05
0.0197576
7.92553e-05
0.019669
8.85532e-05
0.0195719
9.70932e-05
0.0194669
0.000104979
0.0193545
0.000112475
0.0192347
0.000119772
0.0191077
0.000126954
0.0189737
0.000134062
0.0188325
0.000141136
0.0186843
0.000148219
0.018529
0.00015535
0.0183664
0.000162562
0.0181965
0.000169883
0.0180192
0.000177344
0.0178342
0.000184973
0.0176414
0.000192797
0.0174406
0.000200845
0.0172314
0.000209144
0.0170137
0.000217721
0.0167871
0.000226602
0.0165513
0.000235816
0.0163059
0.00024539
0.0160505
0.000255349
0.0157848
0.000265722
0.0155083
0.000276533
0.0152205
0.000287807
0.0149209
0.000299568
0.0146091
0.000311836
0.0142844
0.000324628
0.0139465
0.000337958
0.0135947
0.00035183
0.0132284
0.000366242
0.0128472
0.000381179
0.0124506
0.000396607
0.0120382
0.000412471
0.0116095
0.000428687
0.0111643
0.000445135
0.0107027
0.000461651
0.0102247
0.000478026
0.00973067
0.000493995
0.00922143
0.000509238
0.00869805
0.000523382
0.00816204
0.000536006
0.00761539
0.000546651
0.00706055
0.00055484
0.00650045
0.0005601
0.00593845
0.000561996
0.00537829
0.000560163
0.00482395
0.000554344
0.00427952
0.00054443
0.00374903
0.00053049
0.00323623
0.0005128
0.00274437
0.000491857
0.00227601
0.000468365
0.0018328
0.000443208
0.00141542
0.00041738
0.00102353
0.000391887
0.00065591
0.000367622
0.000310687
0.000345222
-1.42546e-05
0.000324942
-0.000321405
0.000307151
-0.000613135
0.000291729
-0.000891355
0.00027822
-0.00115734
0.000265983
-0.00141196
0.000254623
-0.00165576
0.000243802
-0.00188917
0.000233406
-0.00211263
0.000223456
-0.00232667
0.000214049
-0.00253227
0.000205596
-0.00273105
0.000198783
-0.00292568
0.000194621
-0.00312043
0.000194753
-0.00332156
0.000201128
-0.00353737
0.000215817
-0.00377841
0.000241037
-0.00405621
0.000277796
-0.00437827
0.000322062
-0.00473938
0.000361116
-0.00511615
0.000376762
-0.00547231
0.000356168
-0.00576562
0.00029331
-0.00596766
0.000202036
-0.0060697
0.000102038
-0.00607141
1.70976e-06
-0.00600156
-6.98496e-05
-0.00586038
-0.000141178
-0.00564468
-0.000215702
-0.00535034
-0.000294333
-0.00497271
-0.000377636
-0.00450716
-0.000465553
-0.00394846
-0.000558695
-0.00328932
-0.000659141
-0.00251569
-0.000773628
-0.00161097
-0.000904726
-0.000637257
-0.000973709
-0.000637257
0.0200264
9.82216e-06
0.0200561
2.7956e-05
0.020085
4.03585e-05
0.0201134
5.09248e-05
0.0201406
6.13677e-05
0.020166
7.16522e-05
0.0201893
8.16496e-05
0.0202103
9.14943e-05
0.0202287
0.000101356
0.0202444
0.00011132
0.020257
0.000121424
0.0202664
0.0001317
0.0202725
0.000142185
0.0202749
0.000152917
0.0202735
0.00016393
0.0202682
0.000175257
0.0202586
0.000186934
0.0202445
0.000198997
0.0202259
0.000211488
0.0202022
0.000224451
0.0201735
0.000237931
0.0201392
0.00025198
0.0200992
0.000266651
0.020053
0.000282005
0.0200003
0.000298104
0.0199406
0.000315017
0.0198735
0.000332818
0.0197984
0.000351584
0.0197148
0.000371399
0.0196221
0.00039235
0.0195194
0.00041453
0.019406
0.000438034
0.019281
0.000462962
0.0191434
0.00048941
0.0189921
0.000517477
0.0188261
0.000547252
0.0186439
0.000578816
0.0184441
0.000612228
0.0182253
0.000647521
0.0179857
0.000684687
0.0177237
0.000723667
0.0174374
0.000764331
0.0171249
0.000806472
0.0167844
0.000849779
0.0164139
0.000893836
0.0160118
0.000938103
0.0155766
0.00098192
0.0151069
0.00102451
0.014602
0.00106499
0.0140616
0.00110241
0.013486
0.00113577
0.0128762
0.00116411
0.0122341
0.00118651
0.0115624
0.00120219
0.0108647
0.00121054
0.0101454
0.00121118
0.00940976
0.00120397
0.00866389
0.00118908
0.00791435
0.00116692
0.00716803
0.0011382
0.00643181
0.00110385
0.00571206
0.00106497
0.00501416
0.00102284
0.00434243
0.000978874
0.00369983
0.00093433
0.00308777
0.000890288
0.00250611
0.000847636
0.00195373
0.000807009
0.00142877
0.000768754
0.000929138
0.000733042
0.000452632
0.000699963
-3.01061e-06
0.000669691
-0.00044016
0.000642745
-0.000861585
0.000620209
-0.00127094
0.000603976
-0.00167271
0.000596526
-0.00207164
0.000600058
-0.00247158
0.000615749
-0.00287364
0.0006431
-0.00327395
0.000678112
-0.00366164
0.000709751
-0.00401807
0.000717547
-0.00432011
0.000678802
-0.00454864
0.000584695
-0.0047049
0.000449568
-0.00480868
0.000305816
-0.00488301
0.000176364
-0.00494064
5.93411e-05
-0.00495044
-6.00439e-05
-0.00489727
-0.000194349
-0.00477023
-0.000342745
-0.00456183
-0.00050273
-0.00426857
-0.000670902
-0.00389055
-0.000843572
-0.00343179
-0.00101745
-0.00289811
-0.00119283
-0.00229051
-0.00138123
-0.00159217
-0.00160306
-0.000767301
-0.00179858
-0.00140456
0.0200005
9.36805e-06
0.02
2.84123e-05
0.0199959
4.44994e-05
0.0199881
5.86747e-05
0.0199772
7.22995e-05
0.0199631
8.56802e-05
0.0199461
9.87451e-05
0.019926
0.000111553
0.0199031
0.000124249
0.0198775
0.000136934
0.0198493
0.000149658
0.0198185
0.000162456
0.0197853
0.000175365
0.0197498
0.000188424
0.0197121
0.00020167
0.0196722
0.000215137
0.0196303
0.000228863
0.0195864
0.000242884
0.0195406
0.000257243
0.0194931
0.000271982
0.0194439
0.00028715
0.0193931
0.000302797
0.0193407
0.00031898
0.019287
0.000335761
0.0192319
0.000353207
0.0191755
0.000371391
0.0191179
0.000390396
0.0190592
0.000410309
0.0189994
0.000431228
0.0189384
0.000453262
0.0188765
0.000476526
0.0188133
0.000501148
0.018749
0.000527268
0.0186834
0.000555035
0.0186163
0.000584609
0.0185474
0.000616159
0.0184763
0.000649863
0.0184026
0.0006859
0.0183257
0.000724448
0.0182447
0.000765675
0.0181587
0.000809734
0.0180663
0.000856745
0.0179659
0.000906784
0.0178559
0.000959867
0.0177338
0.00101593
0.017597
0.00107482
0.0174427
0.00113625
0.0172674
0.00119981
0.0170674
0.00126497
0.0168388
0.00133101
0.0165775
0.00139711
0.0162793
0.00146231
0.0159403
0.00152554
0.0155568
0.00158567
0.0151258
0.00164154
0.014645
0.00169198
0.0141131
0.00173586
0.0135301
0.00177211
0.0128973
0.00179973
0.0122176
0.00181787
0.0114956
0.00182582
0.0107375
0.00182306
0.009951
0.00180937
0.00914504
0.00178484
0.00832941
0.00174996
0.00751408
0.00170562
0.00670858
0.00165314
0.00592134
0.00159425
0.00515915
0.00153095
0.0044268
0.00146539
0.00372703
0.00139973
0.00306075
0.00133597
0.00242748
0.00127602
0.00182588
0.00122181
0.00125433
0.00117553
0.000711297
0.00113956
0.000195568
0.00111579
-0.000293398
0.00110471
-0.000754468
0.00110417
-0.00118399
0.00110764
-0.00157708
0.00110283
-0.00193082
0.00107129
-0.00224686
0.000994841
-0.0025306
0.000868435
-0.00278851
0.000707482
-0.00302076
0.000538066
-0.00322016
0.000375764
-0.00337552
0.000214694
-0.00347298
3.74181e-05
-0.00350998
-0.000157348
-0.00348015
-0.000372576
-0.00337676
-0.000606119
-0.00319518
-0.00085248
-0.00293385
-0.00110491
-0.00259634
-0.00135495
-0.00219408
-0.00159509
-0.00174712
-0.00182819
-0.00127116
-0.00207902
-0.000717973
-0.00235177
-0.00212253
0.0199992
1.01908e-05
0.019997
3.063e-05
0.0199917
4.97971e-05
0.0199827
6.76742e-05
0.01997
8.49191e-05
0.0199538
0.000101889
0.019934
0.000118617
0.0199104
0.000135123
0.0198831
0.000151501
0.0198522
0.000167842
0.0198177
0.000184204
0.0197795
0.000200624
0.0197377
0.000217139
0.0196924
0.000233787
0.0196434
0.000250603
0.019591
0.00026762
0.019535
0.000284873
0.0194754
0.000302396
0.0194125
0.000320224
0.019346
0.000338397
0.0192762
0.000356952
0.0192031
0.000375935
0.0191267
0.000395389
0.0190471
0.000415364
0.0189644
0.000435914
0.0188787
0.000457094
0.0187901
0.000478967
0.0186988
0.0005016
0.018605
0.000525067
0.0185088
0.000549445
0.0184105
0.000574822
0.0183104
0.00060129
0.0182087
0.000628952
0.0181058
0.000657918
0.0180021
0.000688306
0.017898
0.000720245
0.017794
0.000753871
0.0176906
0.000789329
0.0175882
0.000826772
0.0174876
0.000866357
0.0173891
0.000908244
0.0172932
0.000952594
0.0172004
0.000999564
0.017111
0.0010493
0.017025
0.00110194
0.0169422
0.00115759
0.0168621
0.00121633
0.0167837
0.0012782
0.0167055
0.00134318
0.0166254
0.00141118
0.0165404
0.00148206
0.0164472
0.00155556
0.0163414
0.00163133
0.0162181
0.00170891
0.016072
0.0017877
0.015897
0.00186697
0.015687
0.00194584
0.0154359
0.00202326
0.0151376
0.002098
0.0147868
0.00216866
0.014379
0.00223365
0.0139108
0.00229123
0.0133806
0.00233956
0.0127886
0.00237682
0.0121373
0.00240128
0.0114314
0.00241149
0.0106782
0.00240637
0.00988697
0.00238548
0.00906884
0.00234907
0.00823602
0.00229822
0.00740095
0.0022348
0.00657547
0.00216145
0.00577005
0.00208144
0.00499335
0.0019985
0.00425227
0.00191662
0.00355216
0.00183966
0.00289718
0.00177077
0.00229041
0.00171148
0.00173405
0.00166054
0.00122898
0.0016127
0.000773684
0.00155813
0.000361774
0.0014832
-1.83277e-05
0.00137494
-0.000377796
0.0012279
-0.000719418
0.0010491
-0.00103543
0.000854075
-0.00131196
0.000652296
-0.00153912
0.000441853
-0.00171634
0.000214644
-0.00183631
-3.73866e-05
-0.00190333
-0.000305552
-0.00191123
-0.000598216
-0.00185752
-0.000906195
-0.00174101
-0.00122141
-0.00156274
-0.00153322
-0.00132895
-0.00182889
-0.00105686
-0.00210028
-0.000778945
-0.00235693
-0.000503515
-0.0026272
-0.00262605
0.0199989
1.13127e-05
0.0199956
3.3945e-05
0.0199894
5.59994e-05
0.0199798
7.72719e-05
0.0199667
9.79842e-05
0.0199502
0.000118396
0.0199302
0.000138599
0.0199067
0.000158625
0.0198797
0.000178535
0.0198491
0.000198406
0.019815
0.000218301
0.0197774
0.000238263
0.0197362
0.000258332
0.0196914
0.000278548
0.0196431
0.000298948
0.0195911
0.00031957
0.0195355
0.000340451
0.0194763
0.000361627
0.0194134
0.000383137
0.0193468
0.000405021
0.0192764
0.000427319
0.0192023
0.000450074
0.0191243
0.000473334
0.0190426
0.000497144
0.0189569
0.000521555
0.0188674
0.000546621
0.018774
0.000572397
0.0186766
0.000598941
0.0185754
0.000626316
0.0184702
0.000654586
0.0183612
0.000683818
0.0182484
0.000714083
0.0181319
0.000745454
0.0180118
0.000778006
0.0178883
0.000811815
0.0177616
0.00084696
0.017632
0.00088352
0.0174997
0.000921572
0.0173653
0.000961191
0.0172292
0.00100245
0.017092
0.00104542
0.0169545
0.00109017
0.0168173
0.00113675
0.0166814
0.00118522
0.0165477
0.00123563
0.0164172
0.00128804
0.016291
0.0013425
0.0161702
0.00139907
0.0160555
0.00145784
0.0159478
0.00151888
0.0158475
0.00158233
0.0157548
0.00164832
0.0156691
0.001717
0.0155895
0.00178855
0.015514
0.00186311
0.0154402
0.00194081
0.0153644
0.00202168
0.015282
0.00210565
0.0151875
0.00219244
0.0150747
0.00228155
0.0149361
0.00237216
0.0147643
0.0024631
0.014551
0.00255281
0.0142885
0.00263935
0.0139694
0.00272039
0.0135875
0.00279334
0.0131385
0.00285544
0.01262
0.00290392
0.0120328
0.00293624
0.0113808
0.0029503
0.0106709
0.00294468
0.00991347
0.00291887
0.00912148
0.00287343
0.00830991
0.00281008
0.0074949
0.00273163
0.0066928
0.00264175
0.00591915
0.00254443
0.00518748
0.00244315
0.00450817
0.00233984
0.00388719
0.00223369
0.00332494
0.00212037
0.00281559
0.00199256
0.0023483
0.00184223
0.00191159
0.00166461
0.00149979
0.00146091
0.00111686
0.00123701
0.000771424
0.000997731
0.000470186
0.000743092
0.000215205
0.000469625
3.65455e-06
0.000174163
-0.000160243
-0.000141654
-0.000280644
-0.000477816
-0.000357755
-0.000829083
-0.000393969
-0.0011852
-0.00039325
-0.00153394
-0.000359637
-0.0018625
-0.000299866
-0.00216005
-0.000236383
-0.00242041
-0.000191342
-0.00267224
-0.00281739
0.0199987
1.2622e-05
0.0199948
3.78659e-05
0.019988
6.27959e-05
0.019978
8.72514e-05
0.0199647
0.000111284
0.019948
0.000135046
0.019928
0.000158631
0.0199046
0.000182084
0.0198776
0.000205449
0.0198473
0.000228786
0.0198134
0.000252153
0.0197761
0.000275595
0.0197353
0.000299152
0.0196909
0.000322864
0.0196431
0.000346771
0.0195918
0.000370912
0.0195369
0.000395325
0.0194785
0.00042005
0.0194165
0.000445129
0.0193509
0.000470603
0.0192817
0.000496517
0.0192089
0.000522916
0.0191323
0.000549849
0.0190521
0.000577364
0.0189682
0.000605516
0.0188804
0.000634359
0.0187889
0.000663949
0.0186935
0.000694348
0.0185942
0.000725615
0.0184909
0.000757815
0.0183837
0.000791013
0.0182725
0.000825276
0.0181573
0.000860671
0.0180381
0.000897263
0.0179148
0.000935117
0.0177874
0.000974298
0.0176561
0.00101486
0.0175208
0.00105686
0.0173817
0.00110034
0.0172388
0.00114533
0.0170923
0.00119185
0.0169426
0.00123992
0.0167898
0.00128951
0.0166344
0.00134061
0.0164769
0.00139317
0.0163178
0.00144714
0.0161579
0.00150245
0.0159979
0.00155903
0.0158389
0.00161684
0.015682
0.00167582
0.0155283
0.00173598
0.0153793
0.00179736
0.0152362
0.00186006
0.0151005
0.00192426
0.0149734
0.00199021
0.014856
0.00205825
0.0147489
0.0021288
0.0146522
0.00220229
0.0145655
0.00227917
0.0144872
0.00235987
0.0144147
0.00244466
0.0143441
0.00253366
0.0142702
0.00262668
0.0141864
0.00272316
0.0140847
0.0028221
0.0139561
0.00292198
0.0137908
0.00302069
0.0135791
0.00311562
0.0133117
0.00320364
0.0129807
0.00328131
0.0125804
0.00334497
0.0121082
0.00339109
0.0115651
0.00341649
0.0109566
0.00341865
0.0102922
0.00339602
0.00958576
0.00334817
0.00885443
0.00327576
0.00811722
0.00318037
0.00739309
0.00306397
0.00669852
0.00292825
0.00604505
0.00277384
0.00543762
0.00259998
0.0048748
0.00240506
0.00435146
0.00218795
0.00386309
0.00194927
0.0034089
0.00169119
0.00299103
0.00141561
0.00261147
0.00112265
0.00227002
0.000811074
0.00196426
0.000479926
0.0016922
0.00013041
0.00144723
-0.000232852
0.0012257
-0.000607552
0.00102232
-0.000981814
0.000832728
-0.00134435
0.000652646
-0.00168242
0.0004784
-0.00198581
0.000307966
-0.00224998
0.00012367
-0.00248794
-0.00269372
0.0199986
1.40337e-05
0.0199944
4.20857e-05
0.0199872
6.99453e-05
0.019977
9.75125e-05
0.0199635
0.000124788
0.0199467
0.000151847
0.0199265
0.000178763
0.019903
0.000205582
0.0198761
0.000232341
0.0198458
0.000259089
0.0198121
0.000285875
0.019775
0.000312745
0.0197344
0.000339739
0.0196903
0.000366897
0.0196428
0.00039426
0.0195919
0.000421866
0.0195375
0.000449758
0.0194795
0.000477975
0.0194181
0.000506561
0.0193531
0.000535559
0.0192847
0.000565014
0.0192126
0.000594974
0.019137
0.000625487
0.0190577
0.000656604
0.0189749
0.00068838
0.0188883
0.000720868
0.0187982
0.000754127
0.0187043
0.000788216
0.0186067
0.000823196
0.0185054
0.00085913
0.0184003
0.000896082
0.0182915
0.000934117
0.0181789
0.000973299
0.0180624
0.00101369
0.0179422
0.00105536
0.0178181
0.00109836
0.0176902
0.00114275
0.0175585
0.00118857
0.017423
0.00123587
0.0172836
0.00128467
0.0171405
0.00133499
0.0169936
0.00138682
0.016843
0.00144014
0.0166887
0.00149492
0.0165308
0.00155108
0.0163693
0.00160855
0.0162046
0.00166722
0.0160366
0.00172697
0.0158658
0.00178765
0.0156925
0.00184912
0.0155172
0.00191126
0.0153407
0.00197394
0.0151637
0.00203707
0.0149873
0.00210061
0.0148129
0.0021646
0.0146421
0.00222912
0.0144765
0.00229439
0.0143181
0.00236068
0.0141689
0.00242839
0.0140307
0.002498
0.0139053
0.00257008
0.0137937
0.00264522
0.0136964
0.00272402
0.0136126
0.002807
0.0135402
0.0028945
0.0134755
0.00298661
0.0134132
0.00308302
0.0133459
0.0031829
0.0132648
0.00328479
0.0131596
0.0033865
0.0130195
0.00348507
0.0128337
0.00357682
0.0125928
0.00365743
0.0122893
0.00372218
0.011919
0.00376625
0.0114822
0.00378502
0.0109835
0.00377447
0.0104323
0.0037315
0.00984217
0.00365414
0.00922875
0.00354168
0.00860807
0.00339452
0.00799402
0.00321404
0.00739673
0.00300234
0.00682243
0.00276226
0.00627457
0.00249713
0.00575535
0.00221041
0.00526615
0.00190481
0.0048069
0.00158189
0.0043755
0.00124248
0.00396771
0.000887713
0.00357796
0.000520156
0.00320033
0.000144786
0.00282225
-0.000229474
0.00244135
-0.000600911
0.00205291
-0.000955915
0.0016536
-0.00128311
0.00124398
-0.00157618
0.000827484
-0.00183349
0.000404184
-0.00206464
-0.00228953
0.0199985
1.5498e-05
0.0199942
4.64687e-05
0.0199868
7.73125e-05
0.0199763
0.000107971
0.0199627
0.000138433
0.0199458
0.000168735
0.0199256
0.000198929
0.0199022
0.000229054
0.0198753
0.000259148
0.0198452
0.00028925
0.0198117
0.000319406
0.0197747
0.000349656
0.0197344
0.000380043
0.0196907
0.000410604
0.0196436
0.000441381
0.0195931
0.000472414
0.0195391
0.000503744
0.0194816
0.000535414
0.0194207
0.000567466
0.0193564
0.000599945
0.0192885
0.000632898
0.0192171
0.000666372
0.0191421
0.000700417
0.0190637
0.000735084
0.0189816
0.000770426
0.018896
0.000806498
0.0188068
0.000843357
0.0187139
0.00088106
0.0186174
0.000919667
0.0185173
0.000959239
0.0184136
0.000999836
0.0183062
0.00104152
0.0181951
0.00108435
0.0180804
0.00112839
0.0179621
0.00117369
0.0178402
0.00122031
0.0177146
0.0012683
0.0175855
0.0013177
0.0174528
0.00136854
0.0173166
0.00142087
0.0171769
0.00147468
0.0170338
0.00152998
0.0168872
0.00158675
0.0167371
0.00164497
0.0165836
0.00170457
0.0164267
0.0017655
0.0162663
0.00182765
0.0161023
0.00189091
0.0159348
0.00195516
0.0157637
0.00202024
0.015589
0.00208599
0.0154106
0.00215225
0.0152289
0.00221885
0.0150438
0.00228563
0.014856
0.00235245
0.0146659
0.0024192
0.0144745
0.00248581
0.0142829
0.00255226
0.0140927
0.00261859
0.0139058
0.00268494
0.0137243
0.00275154
0.0135508
0.00281871
0.0133879
0.00288691
0.0132382
0.00295667
0.0131041
0.00302864
0.0129872
0.00310347
0.0128885
0.00318181
0.0128072
0.00326415
0.0127413
0.00335074
0.0126864
0.00344133
0.0126364
0.00353507
0.012583
0.00363026
0.0125162
0.00372424
0.0124251
0.00381326
0.0122988
0.00389256
0.0121273
0.00395648
0.011903
0.0039988
0.0116213
0.00401319
0.0112817
0.00399376
0.0108877
0.00393568
0.0104465
0.00383575
0.00996768
0.00369281
0.00946216
0.00350786
0.00894047
0.00328395
0.00841203
0.00302558
0.00788449
0.00273795
0.00736315
0.00242615
0.00685045
0.00209459
0.0063457
0.00174723
0.00584527
0.00138814
0.00534322
0.00102221
0.0048324
0.000655605
0.00430843
0.000294489
0.00375049
-4.29714e-05
0.00317116
-0.000376586
0.00256492
-0.000676869
0.00193637
-0.000947625
0.00129519
-0.00119231
0.000646703
-0.00141616
-0.00164283
0.0199985
1.69912e-05
0.019994
5.0942e-05
0.0199865
8.48036e-05
0.019976
0.000118544
0.0199622
0.000152154
0.0199453
0.000185653
0.0199252
0.000219078
0.0199018
0.000252463
0.0198751
0.000285841
0.0198451
0.00031925
0.0198118
0.000352727
0.0197751
0.000386313
0.0197351
0.000420047
0.0196917
0.000453967
0.019645
0.000488115
0.0195949
0.000522529
0.0195414
0.000557254
0.0194845
0.00059233
0.0194241
0.000627803
0.0193603
0.000663718
0.0192931
0.000700122
0.0192224
0.000737063
0.0191483
0.000774591
0.0190706
0.000812758
0.0189894
0.000851616
0.0189047
0.000891221
0.0188164
0.000931627
0.0187246
0.000972892
0.0186292
0.00101507
0.0185302
0.00105823
0.0184276
0.00110241
0.0183214
0.00114768
0.0182117
0.0011941
0.0180983
0.00124172
0.0179814
0.00129059
0.017861
0.00134076
0.017737
0.00139227
0.0176096
0.00144515
0.0174787
0.00149945
0.0173444
0.00155518
0.0172067
0.00161235
0.0170657
0.00167096
0.0169215
0.00173099
0.016774
0.00179243
0.0166234
0.00185521
0.0164696
0.0019193
0.0163126
0.0019846
0.0161525
0.00205104
0.0159891
0.0021185
0.0158225
0.00218687
0.0156525
0.00225601
0.015479
0.00232578
0.0153018
0.00239602
0.0151208
0.00246658
0.014936
0.00253728
0.0147473
0.00260795
0.0145547
0.00267842
0.0143584
0.00274851
0.0141589
0.00281806
0.013957
0.00288692
0.0137535
0.00295497
0.0135501
0.00302215
0.0133485
0.00308846
0.0131512
0.003154
0.0129609
0.00321898
0.0127806
0.00328374
0.0126136
0.00334876
0.0124632
0.00341463
0.0123319
0.00348202
0.0122217
0.00355153
0.0121331
0.00362362
0.012065
0.00369836
0.0120141
0.0037752
0.0119746
0.00385271
0.0119388
0.00392837
0.0118969
0.00399838
0.0118381
0.00405767
0.0117512
0.00410008
0.0116261
0.00411878
0.0114549
0.00410692
0.0112323
0.00405839
0.0109564
0.00396869
0.0106287
0.0038355
0.0102536
0.00365908
0.00983711
0.00344208
0.009386
0.00318906
0.0089064
0.00290576
0.00840256
0.00259843
0.00787617
0.00227362
0.00732615
0.00193816
0.00674904
0.00159932
0.00613984
0.00126481
0.00549183
0.000942494
0.0048087
0.000640166
0.00407647
0.000355635
0.00330509
9.45159e-05
0.00249781
-0.000140342
0.00167382
-0.000368319
0.000837954
-0.000580294
-0.000804877
0.0199985
1.84988e-05
0.019994
5.54602e-05
0.0199864
9.2355e-05
0.0199758
0.000129169
0.0199621
0.000165898
0.0199451
0.000202558
0.0199251
0.000239173
0.0199017
0.000275774
0.0198752
0.000312392
0.0198454
0.000349059
0.0198123
0.000385811
0.0197759
0.000422685
0.0197363
0.00045972
0.0196933
0.000496954
0.019647
0.000534426
0.0195973
0.000572178
0.0195443
0.000610251
0.0194879
0.00064869
0.0194282
0.000687538
0.0193651
0.000726842
0.0192986
0.000766649
0.0192286
0.000807009
0.0191552
0.000847971
0.0190784
0.000889587
0.0189981
0.000931911
0.0189143
0.000974995
0.0188271
0.0010189
0.0187363
0.00106367
0.018642
0.00110937
0.0185442
0.00115605
0.0184428
0.00120377
0.0183379
0.00125258
0.0182295
0.00130254
0.0181175
0.00135369
0.018002
0.00140609
0.017883
0.00145976
0.0177605
0.00151476
0.0176345
0.00157111
0.0175052
0.00162884
0.0173724
0.00168796
0.0172363
0.00174847
0.0170968
0.00181038
0.0169542
0.00187366
0.0168083
0.00193829
0.0166593
0.00200422
0.0165072
0.0020714
0.0163521
0.00213976
0.0161939
0.00220922
0.0160327
0.00227969
0.0158685
0.00235106
0.0157013
0.00242324
0.0155309
0.00249609
0.0153575
0.00256951
0.0151807
0.00264335
0.0150005
0.00271747
0.0148167
0.00279172
0.0146292
0.00286594
0.0144378
0.00293993
0.0142423
0.0030135
0.0140428
0.00308642
0.0138394
0.00315843
0.0136323
0.00322927
0.0134221
0.00329866
0.0132097
0.00336634
0.0129966
0.00343208
0.0127847
0.00349571
0.0125763
0.00355717
0.0123744
0.0036165
0.0121825
0.00367392
0.0120043
0.00372974
0.0118435
0.00378443
0.0117033
0.00383846
0.0115864
0.00389218
0.0114934
0.00394563
0.0114235
0.00399827
0.0113732
0.00404871
0.0113364
0.00409447
0.0113047
0.00413183
0.0112676
0.00415589
0.0112136
0.00416086
0.0111314
0.00414063
0.0110106
0.00408951
0.010843
0.00400305
0.0106233
0.00387875
0.010349
0.00371643
0.0100198
0.00351828
0.00963694
0.00328859
0.00920211
0.00303326
0.00871629
0.00275943
0.00817936
0.00247509
0.00758992
0.00218876
0.00694574
0.00190899
0.00624458
0.00164365
0.00548646
0.00139829
0.00466855
0.00117355
0.00379578
0.000967282
0.00288287
0.000772564
0.00193666
0.000577891
0.000971915
0.000384455
0.000167038
0.0199985
2.00113e-05
0.019994
5.99939e-05
0.0199864
9.99242e-05
0.0199758
0.0001398
0.019962
0.000179625
0.0199452
0.00021941
0.0199252
0.000259178
0.019902
0.000298953
0.0198756
0.000338766
0.019846
0.000378647
0.0198132
0.000418628
0.0197772
0.000458745
0.0197378
0.000499036
0.0196953
0.000539538
0.0196494
0.000580289
0.0196002
0.000621332
0.0195478
0.000662709
0.019492
0.000704463
0.0194329
0.000746639
0.0193705
0.000789285
0.0193047
0.000832448
0.0192355
0.000876177
0.0191629
0.000920523
0.019087
0.000965538
0.0190076
0.00101128
0.0189248
0.00105779
0.0188386
0.00110513
0.0187489
0.00115336
0.0186558
0.00120252
0.0185591
0.00125268
0.018459
0.00130388
0.0183554
0.00135618
0.0182483
0.00140963
0.0181377
0.00146427
0.0180237
0.00152015
0.0179061
0.0015773
0.0177852
0.00163575
0.0176607
0.00169554
0.0175329
0.00175668
0.0174017
0.00181919
0.0172671
0.00188306
0.0171292
0.00194828
0.016988
0.00201484
0.0168436
0.00208271
0.0166959
0.00215184
0.0165452
0.00222217
0.0163913
0.00229364
0.0162343
0.00236617
0.0160744
0.00243967
0.0159114
0.00251406
0.0157454
0.00258921
0.0155764
0.00266504
0.0154045
0.00274143
0.0152296
0.00281826
0.0150517
0.0028954
0.0148706
0.00297274
0.0146864
0.00305014
0.0144989
0.00312743
0.014308
0.00320445
0.0141134
0.00328099
0.0139151
0.0033568
0.0137127
0.00343161
0.0135063
0.00350507
0.0132958
0.00357681
0.0130815
0.00364641
0.0128638
0.00371341
0.0126436
0.00377736
0.0124223
0.00383781
0.0122018
0.0038944
0.0119847
0.00394684
0.0117742
0.00399496
0.0115739
0.00403875
0.0113878
0.00407831
0.0112196
0.00411378
0.0110726
0.00414526
0.0109488
0.00417259
0.0108481
0.00419515
0.0107683
0.00421162
0.0107044
0.00421978
0.0106487
0.00421651
0.0105914
0.00419793
0.0105212
0.00415975
0.0104264
0.00409789
0.010296
0.00400914
0.0101206
0.00389178
0.00989293
0.00374597
0.0096075
0.00357402
0.00926056
0.00338021
0.00884938
0.00317061
0.00837179
0.00295268
0.00782585
0.0027347
0.00720982
0.00252502
0.00652242
0.00233105
0.00576317
0.00215754
0.00493231
0.0020044
0.00403409
0.0018655
0.00307812
0.00172854
0.00207718
0.00157883
0.00104642
0.00141521
0.00121346
0.0199985
2.15221e-05
0.019994
6.4523e-05
0.0199864
0.000107481
0.0199758
0.000150403
0.0199621
0.000193297
0.0199454
0.000236176
0.0199255
0.000279059
0.0199025
0.00032197
0.0198763
0.000364936
0.019847
0.000407986
0.0198144
0.000451151
0.0197787
0.000494467
0.0197398
0.000537968
0.0196976
0.000581691
0.0196522
0.000625677
0.0196036
0.000669965
0.0195517
0.000714598
0.0194966
0.000759621
0.0194381
0.000805078
0.0193764
0.000851018
0.0193113
0.000897487
0.019243
0.000944537
0.0191713
0.000992218
0.0190962
0.00104058
0.0190178
0.00108968
0.0189361
0.00113957
0.0188509
0.0011903
0.0187623
0.00124193
0.0186703
0.00129451
0.0185749
0.00134809
0.0184761
0.00140273
0.0183738
0.00145847
0.018268
0.00151536
0.0181589
0.00157344
0.0180463
0.00163276
0.0179302
0.00169334
0.0178107
0.00175522
0.0176879
0.00181843
0.0175616
0.00188296
0.0174319
0.00194885
0.0172989
0.00201607
0.0171626
0.00208463
0.0170229
0.0021545
0.01688
0.00222564
0.0167338
0.00229801
0.0165844
0.00237157
0.0164318
0.00244623
0.0162761
0.00252192
0.0161172
0.00259856
0.0159552
0.00267606
0.0157901
0.0027543
0.0156219
0.00283319
0.0154508
0.00291261
0.0152766
0.00299244
0.0150994
0.00307258
0.0149192
0.00315289
0.0147361
0.00323326
0.01455
0.00331353
0.0143609
0.00339356
0.0141687
0.00347317
0.0139734
0.00355216
0.0137747
0.0036303
0.0135725
0.00370729
0.0133665
0.00378277
0.0131566
0.00385633
0.0129425
0.00392749
0.0127242
0.00399565
0.0125018
0.0040602
0.0122758
0.00412044
0.012047
0.00417567
0.0118167
0.00422518
0.0115871
0.00426835
0.0113608
0.00430463
0.011141
0.00433362
0.0109312
0.00435507
0.010735
0.0043688
0.0105554
0.00437471
0.0103945
0.00437256
0.0102524
0.00436188
0.0101271
0.00434177
0.0100141
0.00431089
0.00990646
0.00426743
0.00979499
0.00420936
0.00966935
0.00413478
0.00951872
0.00404241
0.00933265
0.00393204
0.00910171
0.00380496
0.00881778
0.00366414
0.0084741
0.00351429
0.00806518
0.0033616
0.00758656
0.00321333
0.0070346
0.00307698
0.00640633
0.00295931
0.00569933
0.00286455
0.00491203
0.0027917
0.00404562
0.00273191
0.0031062
0.00266795
0.0021068
0.00257824
0.0010651
0.0024569
0.00227856
0.0199985
2.30264e-05
0.019994
6.90331e-05
0.0199865
0.000115003
0.0199759
0.000160951
0.0199623
0.000206887
0.0199457
0.000252827
0.0199259
0.000298789
0.0199031
0.000344796
0.0198772
0.000390873
0.0198481
0.00043705
0.0198159
0.000483355
0.0197806
0.000529824
0.019742
0.000576489
0.0197003
0.000623389
0.0196555
0.000670562
0.0196074
0.000718048
0.0195561
0.000765891
0.0195016
0.000814135
0.0194438
0.000862826
0.0193828
0.000912011
0.0193186
0.000961739
0.019251
0.00101206
0.0191802
0.00106303
0.0191061
0.00111469
0.0190287
0.0011671
0.018948
0.00122032
0.0188639
0.00127439
0.0187764
0.00132937
0.0186856
0.00138532
0.0185915
0.00144227
0.0184939
0.00150029
0.0183929
0.00155942
0.0182886
0.00161971
0.0181808
0.00168119
0.0180697
0.00174391
0.0179551
0.0018079
0.0178372
0.00187317
0.0177158
0.00193977
0.0175911
0.00200768
0.017463
0.00207693
0.0173316
0.00214751
0.0171968
0.00221941
0.0170587
0.00229259
0.0169173
0.00236704
0.0167726
0.0024427
0.0166247
0.00251953
0.0164734
0.00259744
0.016319
0.00267638
0.0161613
0.00275625
0.0160004
0.00283696
0.0158363
0.0029184
0.015669
0.00300048
0.0154985
0.00308307
0.0153249
0.00316606
0.0151482
0.00324932
0.0149684
0.00333273
0.0147855
0.00341615
0.0145995
0.00349944
0.0144106
0.00358246
0.0142188
0.00366504
0.014024
0.00374699
0.0138262
0.0038281
0.0136253
0.00390813
0.0134213
0.00398678
0.0132139
0.0040637
0.013003
0.00413846
0.0127881
0.00421055
0.0125689
0.00427934
0.0123452
0.00434413
0.0121168
0.00440407
0.0118837
0.00445827
0.0116464
0.00450574
0.0114055
0.00454551
0.0111625
0.00457663
0.0109193
0.00459825
0.0106784
0.00460969
0.0104426
0.00461048
0.0102148
0.00460038
0.00999737
0.00457932
0.00979175
0.00454739
0.0095979
0.00450474
0.00941384
0.00445149
0.00923548
0.00438772
0.0090567
0.00431357
0.00886971
0.0042294
0.00866567
0.00413608
0.00843529
0.00403534
0.00816943
0.00393
0.00785953
0.00382419
0.00749786
0.00372328
0.00707758
0.0036336
0.0065926
0.00356196
0.00603713
0.00351478
0.00540532
0.00349636
0.00469145
0.00350557
0.00389186
0.0035315
0.00300822
0.00355159
0.00205119
0.00353527
0.00104016
0.00346793
0.00331873
0.0199985
2.45207e-05
0.019994
7.35135e-05
0.0199866
0.000122474
0.0199761
0.000171422
0.0199626
0.000220371
0.0199461
0.000269338
0.0199265
0.000318342
0.0199039
0.000367405
0.0198782
0.000416553
0.0198495
0.000465813
0.0198176
0.000515215
0.0197827
0.000564791
0.0197446
0.000614575
0.0197034
0.000664605
0.019659
0.000714918
0.0196115
0.000765556
0.0195608
0.000816562
0.019507
0.00086798
0.0194499
0.000919856
0.0193897
0.000972238
0.0193263
0.00102518
0.0192596
0.00107872
0.0191897
0.00113292
0.0191166
0.00118784
0.0190402
0.00124351
0.0189605
0.0013
0.0188775
0.00135737
0.0187912
0.00141565
0.0187016
0.00147491
0.0186087
0.00153519
0.0185125
0.00159655
0.0184129
0.00165903
0.0183099
0.00172267
0.0182036
0.00178752
0.0180939
0.0018536
0.0179808
0.00192095
0.0178644
0.0019896
0.0177446
0.00205956
0.0176215
0.00213084
0.0174949
0.00220345
0.0173651
0.00227738
0.0172319
0.00235262
0.0170953
0.00242914
0.0169555
0.00250691
0.0168123
0.0025859
0.0166658
0.00266603
0.0165159
0.00274725
0.0163628
0.00282949
0.0162064
0.00291266
0.0160467
0.00299667
0.0158837
0.00308141