# vtk DataFile Version 2.0
sampleSurface
ASCII
DATASET POLYDATA
POINTS 652 double
0 0 0
0.02 0 0
0.02 0 0.1
0 0 0.1
0.04 0 0
0.04 0 0.1
0.06 0 0
0.06 0 0.1
0.08 0 0
0.08 0 0.1
0.1 0 0
0.1 0 0.1
0.12 0 0
0.12 0 0.1
0.14 0 0
0.14 0 0.1
0.16 0 0
0.16 0 0.1
0.18 0 0
0.18 0 0.1
0.2 0 0
0.2 0 0.1
0.22 0 0
0.22 0 0.1
0.24 0 0
0.24 0 0.1
0.26 0 0
0.26 0 0.1
0.28 0 0
0.28 0 0.1
0.3 0 0
0.3 0 0.1
0.32 0 0
0.32 0 0.1
0.34 0 0
0.34 0 0.1
0.36 0 0
0.36 0 0.1
0.38 0 0
0.38 0 0.1
0.4 0 0
0.4 0 0.1
0.42 0 0
0.42 0 0.1
0.44 0 0
0.44 0 0.1
0.46 0 0
0.46 0 0.1
0.48 0 0
0.48 0 0.1
0.5 0 0
0.5 0 0.1
0.52 0 0
0.52 0 0.1
0.54 0 0
0.54 0 0.1
0.56 0 0
0.56 0 0.1
0.58 0 0
0.58 0 0.1
0.6 0 0
0.6 0 0.1
0.62 0 0
0.62 0 0.1
0.64 0 0
0.64 0 0.1
0.66 0 0
0.66 0 0.1
0.68 0 0
0.68 0 0.1
0.7 0 0
0.7 0 0.1
0.72 0 0
0.72 0 0.1
0.74 0 0
0.74 0 0.1
0.76 0 0
0.76 0 0.1
0.78 0 0
0.78 0 0.1
0.8 0 0
0.8 0 0.1
0.82 0 0
0.82 0 0.1
0.84 0 0
0.84 0 0.1
0.86 0 0
0.86 0 0.1
0.88 0 0
0.88 0 0.1
0.9 0 0
0.9 0 0.1
0.92 0 0
0.92 0 0.1
0.94 0 0
0.94 0 0.1
0.96 0 0
0.96 0 0.1
0.98 0 0
0.98 0 0.1
1 0 0
1 0 0.1
1.02 0 0
1.02 0 0.1
1.04 0 0
1.04 0 0.1
1.06 0 0
1.06 0 0.1
1.08 0 0
1.08 0 0.1
1.1 0 0
1.1 0 0.1
1.12 0 0
1.12 0 0.1
1.14 0 0
1.14 0 0.1
1.16 0 0
1.16 0 0.1
1.18 0 0
1.18 0 0.1
1.2 0 0
1.2 0 0.1
1.22 0 0
1.22 0 0.1
1.24 0 0
1.24 0 0.1
1.26 0 0
1.26 0 0.1
1.28 0 0
1.28 0 0.1
1.3 0 0
1.3 0 0.1
1.32 0 0
1.32 0 0.1
1.34 0 0
1.34 0 0.1
1.36 0 0
1.36 0 0.1
1.38 0 0
1.38 0 0.1
1.4 0 0
1.4 0 0.1
1.42 0 0
1.42 0 0.1
1.44 0 0
1.44 0 0.1
1.46 0 0
1.46 0 0.1
1.48 0 0
1.48 0 0.1
1.5 0 0
1.5 0 0.1
1.52 0 0
1.52 0 0.1
1.54 0 0
1.54 0 0.1
1.56 0 0
1.56 0 0.1
1.58 0 0
1.58 0 0.1
1.6 0 0
1.6 0 0.1
1.62 0 0
1.62 0 0.1
1.64 0 0
1.64 0 0.1
1.66 0 0
1.66 0 0.1
1.68 0 0
1.68 0 0.1
1.7 0 0
1.7 0 0.1
1.72 0 0
1.72 0 0.1
1.74 0 0
1.74 0 0.1
1.76 0 0
1.76 0 0.1
1.78 0 0
1.78 0 0.1
1.8 0 0
1.8 0 0.1
1.82 0 0
1.82 0 0.1
1.84 0 0
1.84 0 0.1
1.86 0 0
1.86 0 0.1
1.88 0 0
1.88 0 0.1
1.9 0 0
1.9 0 0.1
1.92 0 0
1.92 0 0.1
1.94 0 0
1.94 0 0.1
1.96 0 0
1.96 0 0.1
1.98 0 0
1.98 0 0.1
2 0 0
2 0 0.1
2 0.02 0
2 0.02 0.1
2 0.04 0
2 0.04 0.1
2 0.06 0
2 0.06 0.1
2 0.08 0
2 0.08 0.1
2 0.1 0
2 0.1 0.1
2 0.12 0
2 0.12 0.1
2 0.14 0
2 0.14 0.1
2 0.16 0
2 0.16 0.1
2 0.18 0
2 0.18 0.1
2 0.2 0
2 0.2 0.1
2 0.22 0
2 0.22 0.1
2 0.24 0
2 0.24 0.1
2 0.26 0
2 0.26 0.1
2 0.28 0
2 0.28 0.1
2 0.3 0
2 0.3 0.1
2 0.32 0
2 0.32 0.1
2 0.34 0
2 0.34 0.1
2 0.36 0
2 0.36 0.1
2 0.38 0
2 0.38 0.1
2 0.4 0
2 0.4 0.1
2 0.42 0
2 0.42 0.1
2 0.44 0
2 0.44 0.1
2 0.46 0
2 0.46 0.1
2 0.48 0
2 0.48 0.1
2 0.5 0
2 0.5 0.1
2 0.52 0
2 0.52 0.1
2 0.54 0
2 0.54 0.1
2 0.56 0
2 0.56 0.1
2 0.58 0
2 0.58 0.1
2 0.6 0
2 0.6 0.1
2 0.62 0
2 0.62 0.1
2 0.64 0
2 0.64 0.1
2 0.66 0
2 0.66 0.1
2 0.68 0
2 0.68 0.1
2 0.7 0
2 0.7 0.1
2 0.72 0
2 0.72 0.1
2 0.74 0
2 0.74 0.1
2 0.76 0
2 0.76 0.1
2 0.78 0
2 0.78 0.1
2 0.8 0
2 0.8 0.1
2 0.82 0
2 0.82 0.1
2 0.84 0
2 0.84 0.1
2 0.86 0
2 0.86 0.1
2 0.88 0
2 0.88 0.1
2 0.9 0
2 0.9 0.1
2 0.92 0
2 0.92 0.1
2 0.94 0
2 0.94 0.1
2 0.96 0
2 0.96 0.1
2 0.98 0
2 0.98 0.1
2 1 0
2 1 0.1
2.02 1 0
2.02 1 0.1
2.04 1 0
2.04 1 0.1
2.06 1 0
2.06 1 0.1
2.08 1 0
2.08 1 0.1
2.1 1 0
2.1 1 0.1
2.12 1 0
2.12 1 0.1
2.14 1 0
2.14 1 0.1
2.16 1 0
2.16 1 0.1
2.18 1 0
2.18 1 0.1
2.2 1 0
2.2 1 0.1
2.22 1 0
2.22 1 0.1
2.24 1 0
2.24 1 0.1
2.26 1 0
2.26 1 0.1
2.28 1 0
2.28 1 0.1
2.3 1 0
2.3 1 0.1
2.32 1 0
2.32 1 0.1
2.34 1 0
2.34 1 0.1
2.36 1 0
2.36 1 0.1
2.38 1 0
2.38 1 0.1
2.4 1 0
2.4 1 0.1
2.42 1 0
2.42 1 0.1
2.44 1 0
2.44 1 0.1
2.46 1 0
2.46 1 0.1
2.48 1 0
2.48 1 0.1
2.5 1 0
2.5 1 0.1
2.5 0 0
2.5 0 0.1
2.5 0.02 0.1
2.5 0.02 0
2.5 0.04 0.1
2.5 0.04 0
2.5 0.06 0.1
2.5 0.06 0
2.5 0.08 0.1
2.5 0.08 0
2.5 0.1 0.1
2.5 0.1 0
2.5 0.12 0.1
2.5 0.12 0
2.5 0.14 0.1
2.5 0.14 0
2.5 0.16 0.1
2.5 0.16 0
2.5 0.18 0.1
2.5 0.18 0
2.5 0.2 0.1
2.5 0.2 0
2.5 0.22 0.1
2.5 0.22 0
2.5 0.24 0.1
2.5 0.24 0
2.5 0.26 0.1
2.5 0.26 0
2.5 0.28 0.1
2.5 0.28 0
2.5 0.3 0.1
2.5 0.3 0
2.5 0.32 0.1
2.5 0.32 0
2.5 0.34 0.1
2.5 0.34 0
2.5 0.36 0.1
2.5 0.36 0
2.5 0.38 0.1
2.5 0.38 0
2.5 0.4 0.1
2.5 0.4 0
2.5 0.42 0.1
2.5 0.42 0
2.5 0.44 0.1
2.5 0.44 0
2.5 0.46 0.1
2.5 0.46 0
2.5 0.48 0.1
2.5 0.48 0
2.5 0.5 0.1
2.5 0.5 0
2.5 0.52 0.1
2.5 0.52 0
2.5 0.54 0.1
2.5 0.54 0
2.5 0.56 0.1
2.5 0.56 0
2.5 0.58 0.1
2.5 0.58 0
2.5 0.6 0.1
2.5 0.6 0
2.5 0.62 0.1
2.5 0.62 0
2.5 0.64 0.1
2.5 0.64 0
2.5 0.66 0.1
2.5 0.66 0
2.5 0.68 0.1
2.5 0.68 0
2.5 0.7 0.1
2.5 0.7 0
2.5 0.72 0.1
2.5 0.72 0
2.5 0.74 0.1
2.5 0.74 0
2.5 0.76 0.1
2.5 0.76 0
2.5 0.78 0.1
2.5 0.78 0
2.5 0.8 0.1
2.5 0.8 0
2.5 0.82 0.1
2.5 0.82 0
2.5 0.84 0.1
2.5 0.84 0
2.5 0.86 0.1
2.5 0.86 0
2.5 0.88 0.1
2.5 0.88 0
2.5 0.9 0.1
2.5 0.9 0
2.5 0.92 0.1
2.5 0.92 0
2.5 0.94 0.1
2.5 0.94 0
2.5 0.96 0.1
2.5 0.96 0
2.5 0.98 0.1
2.5 0.98 0
2.52 0 0
2.52 0 0.1
2.54 0 0
2.54 0 0.1
2.56 0 0
2.56 0 0.1
2.58 0 0
2.58 0 0.1
2.6 0 0
2.6 0 0.1
2.62 0 0
2.62 0 0.1
2.64 0 0
2.64 0 0.1
2.66 0 0
2.66 0 0.1
2.68 0 0
2.68 0 0.1
2.7 0 0
2.7 0 0.1
2.72 0 0
2.72 0 0.1
2.74 0 0
2.74 0 0.1
2.76 0 0
2.76 0 0.1
2.78 0 0
2.78 0 0.1
2.8 0 0
2.8 0 0.1
2.82 0 0
2.82 0 0.1
2.84 0 0
2.84 0 0.1
2.86 0 0
2.86 0 0.1
2.88 0 0
2.88 0 0.1
2.9 0 0
2.9 0 0.1
2.92 0 0
2.92 0 0.1
2.94 0 0
2.94 0 0.1
2.96 0 0
2.96 0 0.1
2.98 0 0
2.98 0 0.1
3 0 0
3 0 0.1
3.02 0 0
3.02 0 0.1
3.04 0 0
3.04 0 0.1
3.06 0 0
3.06 0 0.1
3.08 0 0
3.08 0 0.1
3.1 0 0
3.1 0 0.1
3.12 0 0
3.12 0 0.1
3.14 0 0
3.14 0 0.1
3.16 0 0
3.16 0 0.1
3.18 0 0
3.18 0 0.1
3.2 0 0
3.2 0 0.1
3.22 0 0
3.22 0 0.1
3.24 0 0
3.24 0 0.1
3.26 0 0
3.26 0 0.1
3.28 0 0
3.28 0 0.1
3.3 0 0
3.3 0 0.1
3.32 0 0
3.32 0 0.1
3.34 0 0
3.34 0 0.1
3.36 0 0
3.36 0 0.1
3.38 0 0
3.38 0 0.1
3.4 0 0
3.4 0 0.1
3.42 0 0
3.42 0 0.1
3.44 0 0
3.44 0 0.1
3.46 0 0
3.46 0 0.1
3.48 0 0
3.48 0 0.1
3.5 0 0
3.5 0 0.1
3.52 0 0
3.52 0 0.1
3.54 0 0
3.54 0 0.1
3.56 0 0
3.56 0 0.1
3.58 0 0
3.58 0 0.1
3.6 0 0
3.6 0 0.1
3.62 0 0
3.62 0 0.1
3.64 0 0
3.64 0 0.1
3.66 0 0
3.66 0 0.1
3.68 0 0
3.68 0 0.1
3.7 0 0
3.7 0 0.1
3.72 0 0
3.72 0 0.1
3.74 0 0
3.74 0 0.1
3.76 0 0
3.76 0 0.1
3.78 0 0
3.78 0 0.1
3.8 0 0
3.8 0 0.1
3.82 0 0
3.82 0 0.1
3.84 0 0
3.84 0 0.1
3.86 0 0
3.86 0 0.1
3.88 0 0
3.88 0 0.1
3.9 0 0
3.9 0 0.1
3.92 0 0
3.92 0 0.1
3.94 0 0
3.94 0 0.1
3.96 0 0
3.96 0 0.1
3.98 0 0
3.98 0 0.1
4 0 0
4 0 0.1
4.02 0 0
4.02 0 0.1
4.04 0 0
4.04 0 0.1
4.06 0 0
4.06 0 0.1
4.08 0 0
4.08 0 0.1
4.1 0 0
4.1 0 0.1
4.12 0 0
4.12 0 0.1
4.14 0 0
4.14 0 0.1
4.16 0 0
4.16 0 0.1
4.18 0 0
4.18 0 0.1
4.2 0 0
4.2 0 0.1
4.22 0 0
4.22 0 0.1
4.24 0 0
4.24 0 0.1
4.26 0 0
4.26 0 0.1
4.28 0 0
4.28 0 0.1
4.3 0 0
4.3 0 0.1
4.32 0 0
4.32 0 0.1
4.34 0 0
4.34 0 0.1
4.36 0 0
4.36 0 0.1
4.38 0 0
4.38 0 0.1
4.4 0 0
4.4 0 0.1
4.42 0 0
4.42 0 0.1
4.44 0 0
4.44 0 0.1
4.46 0 0
4.46 0 0.1
4.48 0 0
4.48 0 0.1
4.5 0 0
4.5 0 0.1

POLYGONS 325 1625
4 0 1 2 3
4 1 4 5 2
4 4 6 7 5
4 6 8 9 7
4 8 10 11 9
4 10 12 13 11
4 12 14 15 13
4 14 16 17 15
4 16 18 19 17
4 18 20 21 19
4 20 22 23 21
4 22 24 25 23
4 24 26 27 25
4 26 28 29 27
4 28 30 31 29
4 30 32 33 31
4 32 34 35 33
4 34 36 37 35
4 36 38 39 37
4 38 40 41 39
4 40 42 43 41
4 42 44 45 43
4 44 46 47 45
4 46 48 49 47
4 48 50 51 49
4 50 52 53 51
4 52 54 55 53
4 54 56 57 55
4 56 58 59 57
4 58 60 61 59
4 60 62 63 61
4 62 64 65 63
4 64 66 67 65
4 66 68 69 67
4 68 70 71 69
4 70 72 73 71
4 72 74 75 73
4 74 76 77 75
4 76 78 79 77
4 78 80 81 79
4 80 82 83 81
4 82 84 85 83
4 84 86 87 85
4 86 88 89 87
4 88 90 91 89
4 90 92 93 91
4 92 94 95 93
4 94 96 97 95
4 96 98 99 97
4 98 100 101 99
4 100 102 103 101
4 102 104 105 103
4 104 106 107 105
4 106 108 109 107
4 108 110 111 109
4 110 112 113 111
4 112 114 115 113
4 114 116 117 115
4 116 118 119 117
4 118 120 121 119
4 120 122 123 121
4 122 124 125 123
4 124 126 127 125
4 126 128 129 127
4 128 130 131 129
4 130 132 133 131
4 132 134 135 133
4 134 136 137 135
4 136 138 139 137
4 138 140 141 139
4 140 142 143 141
4 142 144 145 143
4 144 146 147 145
4 146 148 149 147
4 148 150 151 149
4 150 152 153 151
4 152 154 155 153
4 154 156 157 155
4 156 158 159 157
4 158 160 161 159
4 160 162 163 161
4 162 164 165 163
4 164 166 167 165
4 166 168 169 167
4 168 170 171 169
4 170 172 173 171
4 172 174 175 173
4 174 176 177 175
4 176 178 179 177
4 178 180 181 179
4 180 182 183 181
4 182 184 185 183
4 184 186 187 185
4 186 188 189 187
4 188 190 191 189
4 190 192 193 191
4 192 194 195 193
4 194 196 197 195
4 196 198 199 197
4 198 200 201 199
4 200 202 203 201
4 202 204 205 203
4 204 206 207 205
4 206 208 209 207
4 208 210 211 209
4 210 212 213 211
4 212 214 215 213
4 214 216 217 215
4 216 218 219 217
4 218 220 221 219
4 220 222 223 221
4 222 224 225 223
4 224 226 227 225
4 226 228 229 227
4 228 230 231 229
4 230 232 233 231
4 232 234 235 233
4 234 236 237 235
4 236 238 239 237
4 238 240 241 239
4 240 242 243 241
4 242 244 245 243
4 244 246 247 245
4 246 248 249 247
4 248 250 251 249
4 250 252 253 251
4 252 254 255 253
4 254 256 257 255
4 256 258 259 257
4 258 260 261 259
4 260 262 263 261
4 262 264 265 263
4 264 266 267 265
4 266 268 269 267
4 268 270 271 269
4 270 272 273 271
4 272 274 275 273
4 274 276 277 275
4 276 278 279 277
4 278 280 281 279
4 280 282 283 281
4 282 284 285 283
4 284 286 287 285
4 286 288 289 287
4 288 290 291 289
4 290 292 293 291
4 292 294 295 293
4 294 296 297 295
4 296 298 299 297
4 298 300 301 299
4 300 302 303 301
4 302 304 305 303
4 304 306 307 305
4 306 308 309 307
4 308 310 311 309
4 310 312 313 311
4 312 314 315 313
4 314 316 317 315
4 316 318 319 317
4 318 320 321 319
4 320 322 323 321
4 322 324 325 323
4 324 326 327 325
4 326 328 329 327
4 328 330 331 329
4 330 332 333 331
4 332 334 335 333
4 334 336 337 335
4 336 338 339 337
4 338 340 341 339
4 340 342 343 341
4 342 344 345 343
4 344 346 347 345
4 346 348 349 347
4 348 350 351 349
4 352 353 354 355
4 355 354 356 357
4 357 356 358 359
4 359 358 360 361
4 361 360 362 363
4 363 362 364 365
4 365 364 366 367
4 367 366 368 369
4 369 368 370 371
4 371 370 372 373
4 373 372 374 375
4 375 374 376 377
4 377 376 378 379
4 379 378 380 381
4 381 380 382 383
4 383 382 384 385
4 385 384 386 387
4 387 386 388 389
4 389 388 390 391
4 391 390 392 393
4 393 392 394 395
4 395 394 396 397
4 397 396 398 399
4 399 398 400 401
4 401 400 402 403
4 403 402 404 405
4 405 404 406 407
4 407 406 408 409
4 409 408 410 411
4 411 410 412 413
4 413 412 414 415
4 415 414 416 417
4 417 416 418 419
4 419 418 420 421
4 421 420 422 423
4 423 422 424 425
4 425 424 426 427
4 427 426 428 429
4 429 428 430 431
4 431 430 432 433
4 433 432 434 435
4 435 434 436 437
4 437 436 438 439
4 439 438 440 441
4 441 440 442 443
4 443 442 444 445
4 445 444 446 447
4 447 446 448 449
4 449 448 450 451
4 451 450 351 350
4 352 452 453 353
4 452 454 455 453
4 454 456 457 455
4 456 458 459 457
4 458 460 461 459
4 460 462 463 461
4 462 464 465 463
4 464 466 467 465
4 466 468 469 467
4 468 470 471 469
4 470 472 473 471
4 472 474 475 473
4 474 476 477 475
4 476 478 479 477
4 478 480 481 479
4 480 482 483 481
4 482 484 485 483
4 484 486 487 485
4 486 488 489 487
4 488 490 491 489
4 490 492 493 491
4 492 494 495 493
4 494 496 497 495
4 496 498 499 497
4 498 500 501 499
4 500 502 503 501
4 502 504 505 503
4 504 506 507 505
4 506 508 509 507
4 508 510 511 509
4 510 512 513 511
4 512 514 515 513
4 514 516 517 515
4 516 518 519 517
4 518 520 521 519
4 520 522 523 521
4 522 524 525 523
4 524 526 527 525
4 526 528 529 527
4 528 530 531 529
4 530 532 533 531
4 532 534 535 533
4 534 536 537 535
4 536 538 539 537
4 538 540 541 539
4 540 542 543 541
4 542 544 545 543
4 544 546 547 545
4 546 548 549 547
4 548 550 551 549
4 550 552 553 551
4 552 554 555 553
4 554 556 557 555
4 556 558 559 557
4 558 560 561 559
4 560 562 563 561
4 562 564 565 563
4 564 566 567 565
4 566 568 569 567
4 568 570 571 569
4 570 572 573 571
4 572 574 575 573
4 574 576 577 575
4 576 578 579 577
4 578 580 581 579
4 580 582 583 581
4 582 584 585 583
4 584 586 587 585
4 586 588 589 587
4 588 590 591 589
4 590 592 593 591
4 592 594 595 593
4 594 596 597 595
4 596 598 599 597
4 598 600 601 599
4 600 602 603 601
4 602 604 605 603
4 604 606 607 605
4 606 608 609 607
4 608 610 611 609
4 610 612 613 611
4 612 614 615 613
4 614 616 617 615
4 616 618 619 617
4 618 620 621 619
4 620 622 623 621
4 622 624 625 623
4 624 626 627 625
4 626 628 629 627
4 628 630 631 629
4 630 632 633 631
4 632 634 635 633
4 634 636 637 635
4 636 638 639 637
4 638 640 641 639
4 640 642 643 641
4 642 644 645 643
4 644 646 647 645
4 646 648 649 647
4 648 650 651 649
POINT_DATA 652
FIELD attributes 1
U 3 652 float
2.57904 0.00139767 0.05431
1.29003 0.000704578 0.027155
1.29003 0.000704578 0.027155
2.57904 0.00139767 0.05431
0.00101449 8.65194e-06 0
0.00101449 8.65194e-06 0
0.00101008 3.59742e-06 0
0.00101008 3.59742e-06 0
0.00100696 1.22097e-07 0
0.00100696 1.22097e-07 0
0.001004 -1.2128e-06 0
0.001004 -1.2128e-06 0
0.00100051 -7.60922e-07 0
0.00100051 -7.60922e-07 0
0.000996992 3.4677e-07 0
0.000996992 3.4677e-07 0
0.000994313 1.24055e-06 0
0.000994313 1.24055e-06 0
0.000992934 1.54688e-06 0
0.000992934 1.54688e-06 0
0.000992342 1.34555e-06 0
0.000992342 1.34555e-06 0
0.000991234 1.05939e-06 0
0.000991234 1.05939e-06 0
0.00098861 9.87393e-07 0
0.00098861 9.87393e-07 0
0.000984672 9.48781e-07 0
0.000984672 9.48781e-07 0
0.000980566 5.71801e-07 0
0.000980566 5.71801e-07 0
0.00097727 -8.75015e-08 0
0.00097727 -8.75015e-08 0
0.000974768 -4.90038e-07 0
0.000974768 -4.90038e-07 0
0.000972263 -2.34662e-07 0
0.000972263 -2.34662e-07 0
0.0009691 4.79099e-07 0
0.0009691 4.79099e-07 0
0.000965404 1.10244e-06 0
0.000965404 1.10244e-06 0
0.000961817 1.39353e-06 0
0.000961817 1.39353e-06 0
0.000958736 1.70903e-06 0
0.000958736 1.70903e-06 0
0.000955871 2.55016e-06 0
0.000955871 2.55016e-06 0
0.000952537 3.85234e-06 0
0.000952537 3.85234e-06 0
0.000948341 4.85766e-06 0
0.000948341 4.85766e-06 0
0.000943569 4.79499e-06 0
0.000943569 4.79499e-06 0
0.000938881 3.73411e-06 0
0.000938881 3.73411e-06 0
0.000934616 2.72101e-06 0
0.000934616 2.72101e-06 0
0.000930408 2.92177e-06 0
0.000930408 2.92177e-06 0
0.000925473 4.53255e-06 0
0.000925473 4.53255e-06 0
0.000919361 6.51091e-06 0
0.000919361 6.51091e-06 0
0.000912444 7.37912e-06 0
0.000912444 7.37912e-06 0
0.00090566 6.41417e-06 0
0.00090566 6.41417e-06 0
0.000899751 4.2646e-06 0
0.000899751 4.2646e-06 0
0.00089465 2.50991e-06 0
0.00089465 2.50991e-06 0
0.000889438 2.51999e-06 0
0.000889438 2.51999e-06 0
0.000882874 4.42873e-06 0
0.000882874 4.42873e-06 0
0.000874216 6.90441e-06 0
0.000874216 6.90441e-06 0
0.00086382 8.00137e-06 0
0.00086382 8.00137e-06 0
0.000853018 6.64806e-06 0
0.000853018 6.64806e-06 0
0.00084328 3.65866e-06 0
0.00084328 3.65866e-06 0
0.000835282 1.24656e-06 0
0.000835282 1.24656e-06 0
0.000828507 1.24519e-06 0
0.000828507 1.24519e-06 0
0.000821688 3.61638e-06 0
0.000821688 3.61638e-06 0
0.000813766 6.59056e-06 0
0.000813766 6.59056e-06 0
0.000804554 8.27631e-06 0
0.000804554 8.27631e-06 0
0.000794572 8.16948e-06 0
0.000794572 8.16948e-06 0
0.000784361 7.17959e-06 0
0.000784361 7.17959e-06 0
0.000774033 6.50858e-06 0
0.000774033 6.50858e-06 0
0.00076332 6.73239e-06 0
0.00076332 6.73239e-06 0
0.00075183 7.7411e-06 0
0.00075183 7.7411e-06 0
0.000739234 9.06798e-06 0
0.000739234 9.06798e-06 0
0.000725448 1.00806e-05 0
0.000725448 1.00806e-05 0
0.000710818 1.01879e-05 0
0.000710818 1.01879e-05 0
0.000696035 9.2682e-06 0
0.000696035 9.2682e-06 0
0.000681651 7.87379e-06 0
0.000681651 7.87379e-06 0
0.000667633 6.75502e-06 0
0.000667633 6.75502e-06 0
0.000653502 6.19953e-06 0
0.000653502 6.19953e-06 0
0.000638891 6.12502e-06 0
0.000638891 6.12502e-06 0
0.000623724 6.79131e-06 0
0.000623724 6.79131e-06 0
0.000607715 8.8263e-06 0
0.000607715 8.8263e-06 0
0.000590049 1.20752e-05 0
0.000590049 1.20752e-05 0
0.000570047 1.4935e-05 0
0.000570047 1.4935e-05 0
0.000548049 1.58811e-05 0
0.000548049 1.58811e-05 0
0.000524978 1.57205e-05 0
0.000524978 1.57205e-05 0
0.000500718 1.71546e-05 0
0.000500718 1.71546e-05 0
0.000473528 2.13994e-05 0
0.000473528 2.13994e-05 0
0.000441822 2.60599e-05 0
0.000441822 2.60599e-05 0
0.00040636 2.7389e-05 0
0.00040636 2.7389e-05 0
0.000370119 2.42289e-05 0
0.000370119 2.42289e-05 0
0.000336091 1.87099e-05 0
0.000336091 1.87099e-05 0
0.00030561 1.37217e-05 0
0.00030561 1.37217e-05 0
0.000278491 1.07645e-05 0
0.000278491 1.07645e-05 0
0.000253883 9.7209e-06 0
0.000253883 9.7209e-06 0
0.000230841 9.72092e-06 0
0.000230841 9.72092e-06 0
0.0002086 9.99826e-06 0
0.0002086 9.99826e-06 0
0.000186677 1.01692e-05 0
0.000186677 1.01692e-05 0
0.000164863 1.0108e-05 0
0.000164863 1.0108e-05 0
0.000143144 9.81574e-06 0
0.000143144 9.81574e-06 0
0.000121636 9.32545e-06 0
0.000121636 9.32545e-06 0
0.000100531 8.66014e-06 0
0.000100531 8.66014e-06 0
8.00585e-05 7.82892e-06 0
8.00585e-05 7.82892e-06 0
6.04661e-05 6.83494e-06 0
6.04661e-05 6.83494e-06 0
4.2002e-05 5.68427e-06 0
4.2002e-05 5.68427e-06 0
2.49054e-05 4.39589e-06 0
2.49054e-05 4.39589e-06 0
9.39672e-06 3.00967e-06 0
9.39672e-06 3.00967e-06 0
-4.33862e-06 1.56759e-06 0
-4.33862e-06 1.56759e-06 0
-1.61545e-05 1.09443e-07 0
-1.61545e-05 1.09443e-07 0
-2.59365e-05 -1.32556e-06 0
-2.59365e-05 -1.32556e-06 0
-3.36174e-05 -2.708e-06 0
-3.36174e-05 -2.708e-06 0
-3.91819e-05 -4.0129e-06 0
-3.91819e-05 -4.0129e-06 0
-4.2653e-05 -5.22201e-06 0
-4.2653e-05 -5.22201e-06 0
-4.40919e-05 -6.32811e-06 0
-4.40919e-05 -6.32811e-06 0
-4.35671e-05 -7.31942e-06 0
-4.35671e-05 -7.31942e-06 0
-4.11902e-05 -8.1688e-06 0
-4.11902e-05 -8.1688e-06 0
-3.7142e-05 -8.85434e-06 0
-3.7142e-05 -8.85434e-06 0
-3.16284e-05 -9.37546e-06 0
-3.16284e-05 -9.37546e-06 0
-2.48945e-05 -9.76256e-06 0
-2.48945e-05 -9.76256e-06 0
-1.71687e-05 -1.00727e-05 0
-1.71687e-05 -1.00727e-05 0
-8.7435e-06 -1.02059e-05 0
-8.7435e-06 -1.02059e-05 0
-4.40591e-06 -1.01951e-05 0
-4.40591e-06 -1.01951e-05 0
7.76049e-07 -8.75648e-06 0
7.76049e-07 -8.75648e-06 0
9.33237e-06 3.40276e-06 0
9.33237e-06 3.40276e-06 0
1.41936e-05 2.89743e-05 0
1.41936e-05 2.89743e-05 0
1.59997e-05 6.02393e-05 0
1.59997e-05 6.02393e-05 0
1.59911e-05 9.27318e-05 0
1.59911e-05 9.27318e-05 0
1.50782e-05 0.000123909 0
1.50782e-05 0.000123909 0
1.38756e-05 0.000152836 0
1.38756e-05 0.000152836 0
1.27237e-05 0.000179332 0
1.27237e-05 0.000179332 0
1.1783e-05 0.00020375 0
1.1783e-05 0.00020375 0
1.11041e-05 0.000226603 0
1.11041e-05 0.000226603 0
1.06781e-05 0.000248394 0
1.06781e-05 0.000248394 0
1.04672e-05 0.000269571 0
1.04672e-05 0.000269571 0
1.04239e-05 0.00029052 0
1.04239e-05 0.00029052 0
1.05035e-05 0.000311532 0
1.05035e-05 0.000311532 0
1.0668e-05 0.000332804 0
1.0668e-05 0.000332804 0
1.08881e-05 0.000354468 0
1.08881e-05 0.000354468 0
1.11433e-05 0.00037661 0
1.11433e-05 0.00037661 0
1.14202e-05 0.000399283 0
1.14202e-05 0.000399283 0
1.17107e-05 0.000422519 0
1.17107e-05 0.000422519 0
1.20116e-05 0.000446342 0
1.20116e-05 0.000446342 0
1.23218e-05 0.00047077 0
1.23218e-05 0.00047077 0
1.26431e-05 0.000495823 0
1.26431e-05 0.000495823 0
1.29779e-05 0.000521526 0
1.29779e-05 0.000521526 0
1.33305e-05 0.00054791 0
1.33305e-05 0.00054791 0
1.3704e-05 0.000575014 0
1.3704e-05 0.000575014 0
1.41051e-05 0.000602889 0
1.41051e-05 0.000602889 0
1.45362e-05 0.000631587 0
1.45362e-05 0.000631587 0
1.50078e-05 0.000661187 0
1.50078e-05 0.000661187 0
1.55187e-05 0.000691757 0
1.55187e-05 0.000691757 0
1.60894e-05 0.000723412 0
1.60894e-05 0.000723412 0
1.67077e-05 0.000756233 0
1.67077e-05 0.000756233 0
1.74174e-05 0.0007904 0
1.74174e-05 0.0007904 0
1.8174e-05 0.000825985 0
1.8174e-05 0.000825985 0
1.90954e-05 0.000863292 0
1.90954e-05 0.000863292 0
2.00196e-05 0.00090235 0
2.00196e-05 0.00090235 0
2.12738e-05 0.000943686 0
2.12738e-05 0.000943686 0
2.24114e-05 0.000987205 0
2.24114e-05 0.000987205 0
2.42164e-05 0.00103389 0
2.42164e-05 0.00103389 0
2.55855e-05 0.00108331 0
2.55855e-05 0.00108331 0
2.84235e-05 0.00113741 0
2.84235e-05 0.00113741 0
2.9977e-05 0.00119498 0
2.9977e-05 0.00119498 0
3.48861e-05 0.00125989 0
3.48861e-05 0.00125989 0
3.64043e-05 0.00132943 0
3.64043e-05 0.00132943 0
4.60241e-05 0.00141154 0
4.60241e-05 0.00141154 0
4.72922e-05 0.00150128 0
4.72922e-05 0.00150128 0
6.93332e-05 0.00161431 0
6.93332e-05 0.00161431 0
7.27795e-05 0.00174675 0
7.27795e-05 0.00174675 0
0.000135518 0.001927 0
0.000135518 0.001927 0
0.000165663 0.00216941 0
0.000165663 0.00216941 0
0.000192493 0.00136735 0
0.000192493 0.00136735 0
-0.000254831 -7.50912e-06 0
-0.000254831 -7.50912e-06 0
-0.000164707 -0.000474087 0
-0.000164707 -0.000474087 0
0.000119131 -0.000160739 0
0.000119131 -0.000160739 0
-0.000399802 0.000279296 0
-0.000399802 0.000279296 0
-0.00100072 0.000399274 0
-0.00100072 0.000399274 0
-0.00167997 0.000364924 0
-0.00167997 0.000364924 0
-0.00217239 0.000275543 0
-0.00217239 0.000275543 0
-0.0025444 0.000189754 0
-0.0025444 0.000189754 0
-0.00277863 0.00011751 0
-0.00277863 0.00011751 0
-0.00291876 5.81824e-05 0
-0.00291876 5.81824e-05 0
-0.00296279 8.61641e-06 0
-0.00296279 8.61641e-06 0
-0.00293198 -3.33848e-05 0
-0.00293198 -3.33848e-05 0
-0.00282874 -7.1056e-05 0
-0.00282874 -7.1056e-05 0
-0.00265809 -0.00010685 0
-0.00265809 -0.00010685 0
-0.00241767 -0.000140648 0
-0.00241767 -0.000140648 0
-0.0021116 -0.000170024 0
-0.0021116 -0.000170024 0
-0.00174626 -0.000190235 0
-0.00174626 -0.000190235 0
-0.00133906 -0.000194223 0
-0.00133906 -0.000194223 0
-0.00091791 -0.000179655 0
-0.00091791 -0.000179655 0
-0.000516315 -0.000162074 0
-0.000516315 -0.000162074 0
-0.00016028 -0.000162556 0
-0.00016028 -0.000162556 0
0.000124875 -0.000133308 0
0.000124875 -0.000133308 0
0.000328309 -6.4787e-05 0
0.000328309 -6.4787e-05 0
0.000477374 -9.42116e-05 0
0.000477374 -9.42116e-05 0
0.000328795 -0.000106315 0
0.000328795 -0.000106315 0
-6.77919e-06 4.46248e-06 0
-6.77919e-06 4.46248e-06 0
-8.3917e-06 1.32494e-05 0
-8.3917e-06 1.32494e-05 0
-9.96777e-06 3.25321e-05 0
-9.96777e-06 3.25321e-05 0
-9.64785e-06 5.20641e-05 0
-9.64785e-06 5.20641e-05 0
-9.15494e-06 7.00487e-05 0
-9.15494e-06 7.00487e-05 0
-8.80594e-06 8.75116e-05 0
-8.80594e-06 8.75116e-05 0
-8.55594e-06 0.000104324 0
-8.55594e-06 0.000104324 0
-8.33619e-06 0.000120723 0
-8.33619e-06 0.000120723 0
-8.10491e-06 0.000136704 0
-8.10491e-06 0.000136704 0
-7.84312e-06 0.000152204 0
-7.84312e-06 0.000152204 0
-7.54387e-06 0.000167152 0
-7.54387e-06 0.000167152 0
-7.205e-06 0.000181473 0
-7.205e-06 0.000181473 0
-6.82619e-06 0.000195086 0
-6.82619e-06 0.000195086 0
-6.40742e-06 0.000207912 0
-6.40742e-06 0.000207912 0
-5.94876e-06 0.00021987 0
-5.94876e-06 0.00021987 0
-5.45077e-06 0.000230882 0
-5.45077e-06 0.000230882 0
-4.91512e-06 0.000240872 0
-4.91512e-06 0.000240872 0
-4.34423e-06 0.000249766 0
-4.34423e-06 0.000249766 0
-3.74115e-06 0.000257492 0
-3.74115e-06 0.000257492 0
-3.10957e-06 0.000263988 0
-3.10957e-06 0.000263988 0
-2.45274e-06 0.000269192 0
-2.45274e-06 0.000269192 0
-1.775e-06 0.000273062 0
-1.775e-06 0.000273062 0
-1.07583e-06 0.000275542 0
-1.07583e-06 0.000275542 0
-3.50118e-07 0.000276628 0
-3.50118e-07 0.000276628 0
4.00951e-07 0.000276238 0
4.00951e-07 0.000276238 0
1.16815e-06 0.000274422 0
1.16815e-06 0.000274422 0
1.9402e-06 0.000271053 0
1.9402e-06 0.000271053 0
2.68771e-06 0.000266344 0
2.68771e-06 0.000266344 0
3.43138e-06 0.000260057 0
3.43138e-06 0.000260057 0
4.16453e-06 0.000252639 0
4.16453e-06 0.000252639 0
4.90362e-06 0.000243587 0
4.90362e-06 0.000243587 0
5.60025e-06 0.000233668 0
5.60025e-06 0.000233668 0
6.30631e-06 0.00022214 0
6.30631e-06 0.00022214 0
6.91788e-06 0.000209954 0
6.91788e-06 0.000209954 0
7.59094e-06 0.000196331 0
7.59094e-06 0.000196331 0
8.0929e-06 0.000182091 0
8.0929e-06 0.000182091 0
8.46645e-06 0.000166783 0
8.46645e-06 0.000166783 0
9.24492e-06 0.000151247 0
9.24492e-06 0.000151247 0
8.60078e-06 0.000133736 0
8.60078e-06 0.000133736 0
9.99443e-06 0.000118131 0
9.99443e-06 0.000118131 0
1.08974e-05 9.94846e-05 0
1.08974e-05 9.94846e-05 0
8.00779e-06 7.68419e-05 0
8.00779e-06 7.68419e-05 0
9.93652e-06 6.88956e-05 0
9.93652e-06 6.88956e-05 0
1.67476e-05 3.70964e-05 0
1.67476e-05 3.70964e-05 0
9.12848e-06 2.18614e-05 0
9.12848e-06 2.18614e-05 0
3.08916e-06 2.13761e-06 0
3.08916e-06 2.13761e-06 0
1.07291e-05 -1.53286e-05 0
1.07291e-05 -1.53286e-05 0
-3.88121e-06 -3.42483e-05 0
-3.88121e-06 -3.42483e-05 0
-2.14353e-05 -1.56641e-05 0
-2.14353e-05 -1.56641e-05 0
4.56251e-05 -7.71883e-06 0
4.56251e-05 -7.71883e-06 0
-1.31674e-05 4.50456e-06 0
-1.31674e-05 4.50456e-06 0
-2.63922e-05 4.73222e-06 0
-2.63922e-05 4.73222e-06 0
-4.022e-05 5.14286e-06 0
-4.022e-05 5.14286e-06 0
-5.45657e-05 5.64782e-06 0
-5.45657e-05 5.64782e-06 0
-6.96838e-05 6.24797e-06 0
-6.96838e-05 6.24797e-06 0
-8.56269e-05 6.90634e-06 0
-8.56269e-05 6.90634e-06 0
-0.00010245 7.58701e-06 0
-0.00010245 7.58701e-06 0
-0.000120168 8.26232e-06 0
-0.000120168 8.26232e-06 0
-0.000138758 8.91179e-06 0
-0.000138758 8.91179e-06 0
-0.000158195 9.52791e-06 0
-0.000158195 9.52791e-06 0
-0.000178443 1.01125e-05 0
-0.000178443 1.01125e-05 0
-0.000199477 1.06719e-05 0
-0.000199477 1.06719e-05 0
-0.000221271 1.12106e-05 0
-0.000221271 1.12106e-05 0
-0.0002438 1.17278e-05 0
-0.0002438 1.17278e-05 0
-0.000267026 1.2216e-05 0
-0.000267026 1.2216e-05 0
-0.000290898 1.26623e-05 0
-0.000290898 1.26623e-05 0
-0.000315341 1.30503e-05 0
-0.000315341 1.30503e-05 0
-0.000340264 1.33637e-05 0
-0.000340264 1.33637e-05 0
-0.000365543 1.35925e-05 0
-0.000365543 1.35925e-05 0
-0.000391014 1.37249e-05 0
-0.000391014 1.37249e-05 0
-0.000416486 1.3741e-05 0
-0.000416486 1.3741e-05 0
-0.00044174 1.36202e-05 0
-0.00044174 1.36202e-05 0
-0.000466524 1.33426e-05 0
-0.000466524 1.33426e-05 0
-0.000490558 1.28904e-05 0
-0.000490558 1.28904e-05 0
-0.000513535 1.22488e-05 0
-0.000513535 1.22488e-05 0
-0.00053512 1.14075e-05 0
-0.00053512 1.14075e-05 0
-0.000554965 1.03608e-05 0
-0.000554965 1.03608e-05 0
-0.000572708 9.10873e-06 0
-0.000572708 9.10873e-06 0
-0.000587988 7.6578e-06 0
-0.000587988 7.6578e-06 0
-0.000600457 6.02489e-06 0
-0.000600457 6.02489e-06 0
-0.000609802 4.23802e-06 0
-0.000609802 4.23802e-06 0
-0.000615757 2.34016e-06 0
-0.000615757 2.34016e-06 0
-0.000618079 4.05259e-07 0
-0.000618079 4.05259e-07 0
-0.000616705 -1.5034e-06 0
-0.000616705 -1.5034e-06 0
-0.000611654 -3.37456e-06 0
-0.000611654 -3.37456e-06 0
-0.000602904 -5.20976e-06 0
-0.000602904 -5.20976e-06 0
-0.00059051 -6.99788e-06 0
-0.00059051 -6.99788e-06 0
-0.000574584 -8.71628e-06 0
-0.000574584 -8.71628e-06 0
-0.0005553 -1.03369e-05 0
-0.0005553 -1.03369e-05 0
-0.000532882 -1.18352e-05 0
-0.000532882 -1.18352e-05 0
-0.000507601 -1.31909e-05 0
-0.000507601 -1.31909e-05 0
-0.000479761 -1.43893e-05 0
-0.000479761 -1.43893e-05 0
-0.000449692 -1.54213e-05 0
-0.000449692 -1.54213e-05 0
-0.000417733 -1.6283e-05 0
-0.000417733 -1.6283e-05 0
-0.000384227 -1.69753e-05 0
-0.000384227 -1.69753e-05 0
-0.000349511 -1.75032e-05 0
-0.000349511 -1.75032e-05 0
-0.000313907 -1.78752e-05 0
-0.000313907 -1.78752e-05 0
-0.000277719 -1.81027e-05 0
-0.000277719 -1.81027e-05 0
-0.000241229 -1.81984e-05 0
-0.000241229 -1.81984e-05 0
-0.000204684 -1.81749e-05 0
-0.000204684 -1.81749e-05 0
-0.000168293 -1.80487e-05 0
-0.000168293 -1.80487e-05 0
-0.000132239 -1.7833e-05 0
-0.000132239 -1.7833e-05 0
-9.66878e-05 -1.75419e-05 0
-9.66878e-05 -1.75419e-05 0
-6.17706e-05 -1.71899e-05 0
-6.17706e-05 -1.71899e-05 0
-2.76137e-05 -1.67891e-05 0
-2.76137e-05 -1.67891e-05 0
5.66726e-06 -1.63527e-05 0
5.66726e-06 -1.63527e-05 0
3.8024e-05 -1.58902e-05 0
3.8024e-05 -1.58902e-05 0
6.94366e-05 -1.54097e-05 0
6.94366e-05 -1.54097e-05 0
9.98787e-05 -1.49196e-05 0
9.98787e-05 -1.49196e-05 0
0.000129336 -1.44264e-05 0
0.000129336 -1.44264e-05 0
0.000157808 -1.39355e-05 0
0.000157808 -1.39355e-05 0
0.000185304 -1.34512e-05 0
0.000185304 -1.34512e-05 0
0.00021184 -1.29769e-05 0
0.00021184 -1.29769e-05 0
0.000237439 -1.25153e-05 0
0.000237439 -1.25153e-05 0
0.00026213 -1.20681e-05 0
0.00026213 -1.20681e-05 0
0.000285941 -1.16367e-05 0
0.000285941 -1.16367e-05 0
0.000308906 -1.12219e-05 0
0.000308906 -1.12219e-05 0
0.000331057 -1.0824e-05 0
0.000331057 -1.0824e-05 0
0.00035243 -1.04431e-05 0
0.00035243 -1.04431e-05 0
0.000373058 -1.00792e-05 0
0.000373058 -1.00792e-05 0
0.000392975 -9.73191e-06 0
0.000392975 -9.73191e-06 0
0.000412213 -9.40088e-06 0
0.000412213 -9.40088e-06 0
0.000430805 -9.08568e-06 0
0.000430805 -9.08568e-06 0
0.000448782 -8.78581e-06 0
0.000448782 -8.78581e-06 0
0.000466173 -8.50075e-06 0
0.000466173 -8.50075e-06 0
0.000483008 -8.22997e-06 0
0.000483008 -8.22997e-06 0
0.000499315 -7.97295e-06 0
0.000499315 -7.97295e-06 0
0.00051512 -7.7292e-06 0
0.00051512 -7.7292e-06 0
0.000530451 -7.49822e-06 0
0.000530451 -7.49822e-06 0
0.000545331 -7.2796e-06 0
0.000545331 -7.2796e-06 0
0.000559787 -7.0729e-06 0
0.000559787 -7.0729e-06 0
0.000573838 -6.87775e-06 0
0.000573838 -6.87775e-06 0
0.000587512 -6.69375e-06 0
0.000587512 -6.69375e-06 0
0.000600824 -6.52053e-06 0
0.000600824 -6.52053e-06 0
0.000613807 -6.35769e-06 0
0.000613807 -6.35769e-06 0
0.000626462 -6.20496e-06 0
0.000626462 -6.20496e-06 0
0.000638838 -6.0619e-06 0
0.000638838 -6.0619e-06 0
0.00065091 -5.92842e-06 0
0.00065091 -5.92842e-06 0
0.000662763 -5.80399e-06 0
0.000662763 -5.80399e-06 0
0.000674315 -5.68875e-06 0
0.000674315 -5.68875e-06 0
0.000685736 -5.58198e-06 0
0.000685736 -5.58198e-06 0
0.000696813 -5.48429e-06 0
0.000696813 -5.48429e-06 0
0.000707912 -5.39437e-06 0
0.000707912 -5.39437e-06 0
0.000718519 -5.31383e-06 0
0.000718519 -5.31383e-06 0
0.000729453 -5.24004e-06 0
0.000729453 -5.24004e-06 0
0.000739522 -5.17663e-06 0
0.000739522 -5.17663e-06 0
0.000750551 -5.11811e-06 0
0.000750551 -5.11811e-06 0
0.000759847 -5.07231e-06 0
0.000759847 -5.07231e-06 0
0.976568 -0.00625022 0
0.976568 -0.00625022 0
1.95237 -0.0124954 0
1.95237 -0.0124954 0
