/*--------------------------------*- C++ -*----------------------------------*\
| =========                 |                                                 |
| \\      /  F ield         | OpenFOAM: The Open Source CFD Toolbox           |
|  \\    /   O peration     | Version:  4.1                                   |
|   \\  /    A nd           | Web:      www.OpenFOAM.org                      |
|    \\/     M anipulation  |                                                 |
\*---------------------------------------------------------------------------*/
FoamFile
{
    version     2.0;
    format      ascii;
    class       volScalarField;
    location    "0.51";
    object      k;
}
// * * * * * * * * * * * * * * * * * * * * * * * * * * * * * * * * * * * * * //

dimensions      [0 2 -2 0 0 0 0];

internalField   nonuniform List<scalar> 
43750
(
0.384095
0.392927
0.401473
0.409716
0.417642
0.42524
0.432498
0.439405
0.445944
0.452104
0.457869
0.463225
0.468158
0.472654
0.476698
0.480276
0.483373
0.485973
0.488063
0.489625
0.490645
0.491104
0.490986
0.490271
0.488939
0.486969
0.484338
0.481019
0.476987
0.472209
0.466655
0.460288
0.453069
0.44496
0.435919
0.425906
0.414885
0.402832
0.389741
0.37564
0.360612
0.344824
0.328573
0.312346
0.296902
0.283366
0.273333
0.268909
0.27259
0.286742
0.313522
0.360844
0.412231
0.45396
0.481181
0.493394
0.492631
0.481868
0.46375
0.440679
0.415069
0.388746
0.363751
0.342248
0.326007
0.31597
0.313426
0.310154
0.302257
0.289151
0.27075
0.247405
0.219815
0.187963
0.151539
0.123395
0.131905
0.157215
0.191739
0.22838
0.262884
0.293559
0.320173
0.343158
0.363188
0.380997
0.397324
0.412939
0.428715
0.444909
0.461117
0.477306
0.493034
0.507055
0.516633
0.516145
0.494656
0.432266
0.267618
0.124508
0.349413
0.327145
0.307772
0.290869
0.276093
0.26316
0.251832
0.241914
0.233243
0.225684
0.219121
0.213457
0.20861
0.204512
0.201105
0.198342
0.196184
0.194599
0.193566
0.19307
0.193101
0.193661
0.194757
0.196406
0.198634
0.20148
0.204995
0.209247
0.214321
0.220329
0.22741
0.235739
0.245538
0.257086
0.270737
0.286938
0.306251
0.329387
0.357232
0.390882
0.431662
0.481133
0.541049
0.613264
0.699541
0.801267
0.919056
1.05224
1.19824
1.35194
1.50498
1.64624
1.7613
1.83554
1.85944
1.83281
1.76465
1.66825
1.55124
1.42508
1.3034
1.1854
1.07337
0.971672
0.885639
0.815048
0.75023
0.69691
0.651154
0.606648
0.559426
0.509607
0.463541
0.432097
0.424743
0.424788
0.41907
0.410502
0.394914
0.378106
0.366793
0.364515
0.37171
0.386984
0.408215
0.433341
0.460842
0.489893
0.520251
0.552845
0.589588
0.631037
0.677222
0.726472
0.773319
0.805058
0.799572
0.727411
0.545141
0.122075
0.349122
0.326223
0.305919
0.287812
0.271581
0.256965
0.24375
0.231761
0.220849
0.210893
0.201789
0.193451
0.185804
0.178786
0.172344
0.166434
0.161015
0.156056
0.15153
0.147414
0.143689
0.140341
0.137358
0.134735
0.132468
0.130558
0.129012
0.127842
0.127066
0.126711
0.126817
0.127436
0.128639
0.130522
0.133213
0.136882
0.141755
0.148133
0.15641
0.167107
0.180899
0.19866
0.221502
0.250814
0.288291
0.335943
0.396077
0.471226
0.564025
0.676979
0.812061
0.970081
1.14943
1.34445
1.54412
1.73184
1.88763
1.99295
2.0363
2.01762
1.94852
1.84311
1.71409
1.5685
1.42963
1.31175
1.21012
1.11384
1.02637
0.950081
0.867241
0.770409
0.66593
0.571128
0.491443
0.440224
0.412614
0.397099
0.38907
0.390014
0.400652
0.418425
0.438821
0.457819
0.473511
0.486244
0.49771
0.509786
0.523766
0.53988
0.558047
0.578398
0.600935
0.625577
0.651839
0.677679
0.696898
0.693315
0.607548
0.16783
0.349121
0.326216
0.305897
0.287765
0.271495
0.256823
0.243531
0.231438
0.220394
0.210271
0.200964
0.19238
0.184442
0.177083
0.170245
0.163879
0.157943
0.152398
0.147213
0.142361
0.137818
0.133564
0.129582
0.125858
0.122382
0.119146
0.116145
0.113377
0.110844
0.108551
0.106507
0.104729
0.103237
0.102062
0.101244
0.100838
0.100919
0.101586
0.102973
0.105261
0.108695
0.113604
0.120428
0.129749
0.142327
0.159136
0.181405
0.210659
0.248771
0.29802
0.361142
0.441355
0.542239
0.667337
0.819349
0.998779
1.2021
1.4198
1.63529
1.82626
1.96989
2.04928
2.05893
2.00613
1.91148
1.80083
1.69158
1.58786
1.50195
1.41748
1.32858
1.22145
1.08212
0.909866
0.740873
0.61088
0.532789
0.496269
0.486733
0.493422
0.507716
0.522545
0.533348
0.53855
0.539102
0.537331
0.53563
0.535689
0.538469
0.543774
0.550957
0.559735
0.569409
0.579145
0.588795
0.599811
0.614589
0.631394
0.611358
0.244156
0.349121
0.326216
0.305896
0.287762
0.27149
0.256815
0.243519
0.231422
0.220372
0.210242
0.200925
0.192329
0.184374
0.176993
0.170128
0.163727
0.157746
0.152146
0.146893
0.141958
0.137313
0.132936
0.128806
0.124905
0.121218
0.117731
0.114433
0.111313
0.108364
0.105581
0.10296
0.1005
0.0982024
0.0960722
0.0941192
0.0923585
0.090813
0.0895159
0.0885142
0.0878746
0.0876899
0.0880889
0.0892485
0.0914086
0.0948906
0.10012
0.107651
0.118202
0.132686
0.152268
0.178426
0.213035
0.25847
0.317701
0.39432
0.492441
0.616302
0.769385
0.952822
1.1631
1.38963
1.61345
1.80927
1.95257
2.03035
2.04734
2.02118
1.97275
1.9209
1.86873
1.80225
1.70176
1.54783
1.34265
1.11496
0.91137
0.768114
0.688813
0.655585
0.647905
0.649917
0.65138
0.647291
0.637083
0.622957
0.607784
0.593828
0.582638
0.575385
0.572423
0.572663
0.575839
0.58094
0.586024
0.588915
0.58904
0.588897
0.59233
0.5855
0.307479
0.349121
0.326216
0.305896
0.287761
0.271488
0.256812
0.243516
0.231418
0.220368
0.210238
0.200921
0.192325
0.18437
0.176988
0.170122
0.16372
0.157737
0.152133
0.146876
0.141933
0.137279
0.13289
0.128743
0.124821
0.121106
0.117584
0.114241
0.111066
0.108047
0.105177
0.102446
0.0998499
0.0973819
0.0950389
0.092819
0.0907222
0.0887511
0.0869119
0.0852152
0.0836785
0.082329
0.0812076
0.0803756
0.0799225
0.0799779
0.0807248
0.0824166
0.0853968
0.0901209
0.0971835
0.107353
0.121615
0.141235
0.167831
0.203464
0.250749
0.312954
0.394038
0.498513
0.630887
0.79444
0.989057
1.20839
1.4378
1.65594
1.84116
1.97989
2.07154
2.12668
2.15622
2.15818
2.11261
1.98449
1.78056
1.52483
1.26538
1.05684
0.923692
0.855234
0.826131
0.813016
0.800498
0.781914
0.757231
0.729366
0.701208
0.674708
0.651371
0.63279
0.620781
0.613493
0.610648
0.611481
0.614143
0.615587
0.61253
0.603364
0.588843
0.567539
0.361018
0.349121
0.326216
0.305896
0.287761
0.271488
0.256811
0.243515
0.231417
0.220367
0.210237
0.20092
0.192323
0.184368
0.176987
0.170121
0.163719
0.157736
0.152133
0.146875
0.141933
0.137278
0.132888
0.12874
0.124816
0.121098
0.117571
0.114222
0.111037
0.108007
0.10512
0.102368
0.099744
0.0972397
0.0948497
0.0925689
0.0903932
0.0883198
0.0863471
0.0844754
0.0827068
0.081047
0.0795056
0.0780991
0.0768536
0.0758098
0.0750303
0.0746093
0.0746858
0.0754609
0.0772187
0.0803516
0.0853898
0.0930355
0.104205
0.120076
0.142148
0.172317
0.212964
0.267068
0.338301
0.431012
0.549882
0.698966
0.879942
1.08993
1.31997
1.55563
1.78046
1.98112
2.14885
2.27311
2.33279
2.2973
2.15351
1.91554
1.62591
1.36605
1.17942
1.07043
1.01552
0.985412
0.959103
0.927432
0.890105
0.850314
0.810901
0.773476
0.739121
0.709183
0.687536
0.672144
0.662003
0.656298
0.653741
0.652155
0.64831
0.637727
0.614105
0.571798
0.405375
0.349122
0.326217
0.305897
0.287762
0.271488
0.256812
0.243515
0.231417
0.220367
0.210237
0.200921
0.192324
0.18437
0.17699
0.170125
0.163723
0.157741
0.152139
0.146883
0.141941
0.137288
0.132898
0.128751
0.124827
0.12111
0.117583
0.114233
0.111048
0.108015
0.105126
0.10237
0.099739
0.0972258
0.0948234
0.0925259
0.0903279
0.0882247
0.0862125
0.0842885
0.0824507
0.0806986
0.0790333
0.0774582
0.0759803
0.0746111
0.07337
0.0722871
0.0714098
0.0708109
0.0706004
0.0709431
0.0720808
0.0743617
0.0782745
0.0844887
0.0938964
0.107657
0.127244
0.154499
0.191696
0.241635
0.307745
0.39414
0.505467
0.646407
0.82067
1.0295
1.27001
1.5339
1.80637
2.0635
2.26852
2.37518
2.35009
2.19515
1.94902
1.68198
1.45717
1.30336
1.21287
1.15863
1.11679
1.0733
1.02564
0.976406
0.928224
0.882682
0.840534
0.802225
0.769828
0.746326
0.728449
0.714846
0.704431
0.69606
0.688514
0.678648
0.655406
0.597943
0.442246
0.349122
0.326217
0.305897
0.287762
0.271489
0.256813
0.243516
0.231418
0.220369
0.21024
0.200923
0.192328
0.184374
0.176995
0.17013
0.16373
0.157749
0.152147
0.146892
0.141951
0.137299
0.13291
0.128764
0.124842
0.121125
0.1176
0.114251
0.111066
0.108034
0.105145
0.102388
0.0997567
0.0972419
0.0948368
0.092535
0.0903306
0.0882184
0.0861937
0.0842522
0.0823906
0.0806061
0.0788968
0.0772621
0.0757028
0.0742218
0.0728248
0.0715219
0.0703293
0.0692729
0.0683924
0.0677498
0.0674397
0.0676064
0.0684676
0.0703457
0.0737083
0.0792132
0.0877562
0.100516
0.118994
0.145049
0.18094
0.229392
0.293725
0.378051
0.487484
0.628192
0.80691
1.02938
1.29684
1.59925
1.90572
2.16032
2.30003
2.29135
2.1512
1.93755
1.718
1.53935
1.41496
1.33229
1.2708
1.21509
1.15904
1.10276
1.04702
0.995352
0.948195
0.904704
0.863624
0.83229
0.806235
0.784004
0.764451
0.747005
0.73239
0.721046
0.702727
0.64006
0.473511
0.349122
0.326218
0.305898
0.287763
0.27149
0.256814
0.243518
0.231421
0.220371
0.210243
0.200927
0.192332
0.18438
0.177001
0.170137
0.163738
0.157758
0.152158
0.146904
0.141964
0.137313
0.132926
0.128781
0.12486
0.121144
0.11762
0.114272
0.111088
0.108057
0.105169
0.102413
0.099782
0.0972674
0.0948622
0.0925598
0.0903541
0.0882398
0.0862115
0.0842649
0.0823956
0.0806
0.078875
0.0772181
0.0756277
0.0741032
0.0726455
0.0712573
0.0699443
0.068716
0.0675879
0.0665841
0.0657421
0.0651197
0.064806
0.0649381
0.0657257
0.0674854
0.0706844
0.0759925
0.0843349
0.0969401
0.115376
0.141574
0.177856
0.227027
0.292619
0.379362
0.493791
0.64462
0.841874
1.09284
1.39236
1.70902
1.98128
2.14236
2.16194
2.0639
1.90498
1.74045
1.60253
1.49762
1.41661
1.34768
1.2835
1.22182
1.16282
1.10785
1.05764
1.01139
0.964942
0.925144
0.890062
0.858643
0.82938
0.802208
0.779364
0.764431
0.75123
0.691404
0.500887
0.349123
0.326218
0.305899
0.287765
0.271492
0.256816
0.24352
0.231424
0.220375
0.210247
0.200932
0.192338
0.184386
0.177008
0.170146
0.163748
0.157769
0.15217
0.146917
0.141979
0.137329
0.132943
0.128799
0.124879
0.121165
0.117642
0.114295
0.111113
0.108083
0.105196
0.102441
0.0998106
0.0972966
0.094892
0.0925899
0.0903844
0.0882698
0.086241
0.0842932
0.082422
0.0806233
0.0788935
0.0772294
0.0756281
0.0740876
0.0726064
0.0711842
0.0698219
0.0685227
0.0672922
0.0661403
0.0650827
0.064144
0.0633622
0.0627963
0.062537
0.0627251
0.0635771
0.0654221
0.0687503
0.0742697
0.0829652
0.0961501
0.115504
0.1431
0.181471
0.233799
0.304378
0.39936
0.527488
0.699675
0.92508
1.20112
1.5
1.76632
1.94079
1.99682
1.95331
1.85425
1.74059
1.63565
1.54557
1.46737
1.39652
1.33048
1.26859
1.2112
1.1586
1.11023
1.06301
1.01668
0.973719
0.932978
0.893815
0.857215
0.826874
0.808589
0.799665
0.746383
0.525935
0.349123
0.326219
0.3059
0.287766
0.271493
0.256818
0.243523
0.231427
0.220379
0.210252
0.200938
0.192345
0.184394
0.177017
0.170156
0.163759
0.157781
0.152183
0.146932
0.141995
0.137346
0.132962
0.12882
0.124901
0.121188
0.117666
0.114321
0.11114
0.108111
0.105225
0.102471
0.0998416
0.0973285
0.0949245
0.0926231
0.090418
0.0883038
0.0862751
0.0843273
0.0824558
0.0806565
0.0789255
0.0772595
0.0756551
0.0741096
0.0726205
0.071186
0.069805
0.0684773
0.0672043
0.0659893
0.0648385
0.0637625
0.0627783
0.0619125
0.0612066
0.0607244
0.0605654
0.0608836
0.0619161
0.0640241
0.0677453
0.0738572
0.0834426
0.0979505
0.11925
0.1497
0.192304
0.251064
0.331601
0.441793
0.591372
0.788391
1.0309
1.29691
1.54347
1.7242
1.8151
1.82449
1.78033
1.71107
1.63515
1.56071
1.48993
1.42303
1.36008
1.30132
1.24689
1.19634
1.14809
1.09721
1.04766
0.998723
0.950844
0.906555
0.871228
0.852152
0.847561
0.800948
0.550246
0.349123
0.32622
0.305901
0.287767
0.271495
0.256821
0.243526
0.231431
0.220384
0.210257
0.200944
0.192352
0.184402
0.177027
0.170167
0.163771
0.157794
0.152198
0.146948
0.142012
0.137365
0.132982
0.128841
0.124924
0.121213
0.117692
0.114348
0.111168
0.108141
0.105256
0.102503
0.0998747
0.0973625
0.0949594
0.0926586
0.0904542
0.0883404
0.0863122
0.0843646
0.0824933
0.080694
0.0789629
0.0772965
0.0756914
0.0741446
0.0726533
0.0712151
0.0698279
0.0684901
0.0672009
0.0659606
0.0647706
0.063635
0.0625609
0.0615601
0.060652
0.0598669
0.0592523
0.0588819
0.0588705
0.0593956
0.0607305
0.0632894
0.0676869
0.0748093
0.0858934
0.102609
0.127157
0.162412
0.212178
0.281567
0.377266
0.506871
0.675967
0.882425
1.11044
1.33044
1.50924
1.62549
1.67773
1.67965
1.64929
1.6014
1.5454
1.48659
1.4279
1.37095
1.3165
1.26453
1.21403
1.16119
1.10674
1.05107
0.996081
0.946145
0.908566
0.892055
0.894493
0.853495
0.573433
0.349124
0.32622
0.305902
0.287769
0.271498
0.256824
0.24353
0.231435
0.220389
0.210263
0.200951
0.19236
0.184411
0.177037
0.170178
0.163784
0.157809
0.152214
0.146965
0.142031
0.137385
0.133004
0.128864
0.124948
0.121239
0.11772
0.114377
0.111198
0.108172
0.105288
0.102537
0.0999096
0.0973985
0.0949962
0.0926963
0.0904926
0.0883794
0.0863517
0.0844045
0.0825335
0.0807345
0.0790035
0.0773372
0.0757321
0.074185
0.0726932
0.071254
0.069865
0.0685241
0.0672295
0.06598
0.064775
0.0636152
0.0625028
0.0614423
0.0604422
0.0595168
0.0586888
0.0579947
0.0574912
0.0572675
0.0574618
0.0582879
0.0600733
0.0633115
0.0687322
0.0773868
0.0907526
0.110856
0.140423
0.183056
0.243364
0.326787
0.43865
0.581992
0.754414
0.945347
1.13612
1.30464
1.43322
1.51461
1.55215
1.5553
1.53469
1.4992
1.45528
1.40715
1.35728
1.30678
1.25569
1.20282
1.14526
1.08504
1.02553
0.972951
0.936481
0.926092
0.938933
0.905628
0.592647
0.349124
0.326221
0.305903
0.287771
0.2715
0.256826
0.243533
0.231439
0.220394
0.21027
0.200958
0.192369
0.184421
0.177048
0.170191
0.163797
0.157824
0.15223
0.146983
0.142051
0.137406
0.133026
0.128888
0.124974
0.121266
0.117748
0.114407
0.11123
0.108205
0.105322
0.102572
0.0999461
0.097436
0.0950348
0.0927358
0.0905329
0.0884204
0.0863933
0.0844467
0.0825761
0.0807774
0.0790468
0.0773806
0.0757756
0.0742287
0.0727368
0.0712974
0.069908
0.0685661
0.0672699
0.0660173
0.0648071
0.0636382
0.0625106
0.0614253
0.0603853
0.0593965
0.0584692
0.0576211
0.0568803
0.0562921
0.0559276
0.055898
0.0563761
0.0576281
0.0600594
0.0642787
0.0711841
0.0820746
0.0987883
0.123856
0.160611
0.213119
0.285659
0.381648
0.502179
0.644716
0.802334
0.963835
1.11535
1.24364
1.33979
1.40119
1.43077
1.43461
1.41944
1.39114
1.35406
1.31099
1.26342
1.21187
1.15597
1.09536
1.03548
0.984506
0.953214
0.952529
0.978607
0.954842
0.607607
0.349124
0.326222
0.305905
0.287772
0.271502
0.256829
0.243537
0.231444
0.2204
0.210276
0.200966
0.192378
0.184431
0.17706
0.170204
0.163812
0.15784
0.152248
0.147002
0.142071
0.137428
0.13305
0.128914
0.125001
0.121294
0.117778
0.114438
0.111262
0.108239
0.105358
0.102609
0.099984
0.0974751
0.0950749
0.0927768
0.0905748
0.0884632
0.0864367
0.0844907
0.0826207
0.0808224
0.0790922
0.0774264
0.0758217
0.0742749
0.0727832
0.0713438
0.0699543
0.0686122
0.0673154
0.0660619
0.0648498
0.0636777
0.0625444
0.0614494
0.0603929
0.0593769
0.0584052
0.0574857
0.0566317
0.0558656
0.0552237
0.0547642
0.0545787
0.0548104
0.0556814
0.057532
0.0608786
0.0664948
0.0755204
0.0895998
0.111021
0.14277
0.188316
0.250945
0.332718
0.43354
0.550865
0.679915
0.813943
0.944569
1.06278
1.16072
1.23353
1.28009
1.3024
1.30426
1.28983
1.26272
1.2257
1.18084
1.13057
1.07617
1.02219
0.978491
0.957047
0.96942
1.01083
0.998215
0.617634
0.349125
0.326223
0.305906
0.287774
0.271505
0.256833
0.243541
0.231449
0.220405
0.210283
0.200974
0.192387
0.184442
0.177072
0.170217
0.163827
0.157856
0.152266
0.147021
0.142092
0.137451
0.133074
0.128939
0.125028
0.121323
0.117809
0.11447
0.111296
0.108274
0.105394
0.102647
0.100023
0.0975153
0.0951162
0.0928192
0.0906182
0.0885074
0.0864818
0.0845365
0.082667
0.0808694
0.0791396
0.0774742
0.0758698
0.0743233
0.0728318
0.0713926
0.0700032
0.0686611
0.0673642
0.0661103
0.0648976
0.0637242
0.0625888
0.0614899
0.0604269
0.0593995
0.0584087
0.0574574
0.0565511
0.0557001
0.0549223
0.0542472
0.053723
0.0534265
0.0534789
0.054069
0.055488
0.058181
0.0628197
0.0704037
0.0823838
0.100773
0.128148
0.16737
0.220924
0.290025
0.374016
0.470456
0.575693
0.685303
0.79415
0.896467
0.986461
1.05935
1.11229
1.14463
1.15752
1.15315
1.13414
1.10327
1.06404
1.02388
0.982988
0.952792
0.945936
0.9742
1.0322
1.03198
0.621689
0.349125
0.326224
0.305907
0.287776
0.271507
0.256836
0.243545
0.231454
0.220411
0.21029
0.200983
0.192397
0.184453
0.177084
0.170231
0.163842
0.157873
0.152284
0.147041
0.142114
0.137474
0.133099
0.128966
0.125056
0.121353
0.11784
0.114503
0.111331
0.10831
0.105432
0.102686
0.100063
0.0975566
0.0951587
0.0928628
0.0906628
0.0885529
0.0865282
0.0845836
0.0827149
0.0809179
0.0791887
0.0775238
0.0759198
0.0743737
0.0728825
0.0714436
0.0700543
0.0687123
0.0674154
0.0661615
0.0649485
0.0637747
0.0626383
0.0615378
0.060472
0.0594399
0.058441
0.0574757
0.0565459
0.0556556
0.0548129
0.0540319
0.0533371
0.0527686
0.0523918
0.0523106
0.0526882
0.0537775
0.0559665
0.0598427
0.0662803
0.0765411
0.0923492
0.115849
0.149328
0.194646
0.252543
0.322208
0.401418
0.487128
0.57601
0.664595
0.749169
0.825815
0.890802
0.941181
0.975241
0.992662
0.994401
0.98257
0.960579
0.934715
0.915076
0.905239
0.917423
0.963578
1.03852
1.05175
0.618545
0.349126
0.326225
0.305909
0.287778
0.27151
0.256839
0.243549
0.231459
0.220418
0.210298
0.200991
0.192407
0.184464
0.177097
0.170245
0.163858
0.15789
0.152303
0.147062
0.142136
0.137498
0.133124
0.128993
0.125085
0.121383
0.117872
0.114537
0.111366
0.108347
0.10547
0.102725
0.100104
0.0975989
0.0952022
0.0929074
0.0907084
0.0885996
0.0865757
0.0846321
0.0827641
0.0809678
0.0792392
0.0775748
0.0759714
0.0744257
0.0729349
0.0714963
0.0701073
0.0687656
0.0674688
0.0662149
0.0650019
0.0638279
0.0626911
0.0615899
0.0605229
0.0594886
0.058486
0.0575145
0.0565741
0.0556659
0.0547929
0.0539612
0.0531824
0.0524765
0.0518776
0.0514419
0.0512594
0.051473
0.0523049
0.054096
0.0573618
0.0628629
0.07168
0.0852523
0.105312
0.133635
0.171607
0.219707
0.277185
0.342133
0.411943
0.483829
0.5551
0.623141
0.68532
0.739055
0.782095
0.812904
0.831024
0.837357
0.83444
0.827051
0.825452
0.8378
0.870262
0.934299
1.02539
1.05298
0.607013
0.349126
0.326226
0.30591
0.28778
0.271512
0.256843
0.243554
0.231464
0.220424
0.210305
0.201
0.192417
0.184476
0.17711
0.17026
0.163874
0.157908
0.152322
0.147083
0.142159
0.137522
0.13315
0.129021
0.125115
0.121414
0.117905
0.114571
0.111402
0.108384
0.105509
0.102765
0.100146
0.0976419
0.0952465
0.0929529
0.090755
0.0886473
0.0866244
0.0846816
0.0828145
0.0810189
0.079291
0.0776273
0.0760244
0.0744792
0.0729889
0.0715507
0.0701621
0.0688206
0.0675241
0.0662704
0.0650575
0.0638835
0.0627466
0.0616451
0.0605774
0.0595421
0.0585378
0.0575634
0.0566181
0.0557016
0.0548144
0.0539587
0.0531394
0.0523658
0.0516546
0.051035
0.0505556
0.0502956
0.0503811
0.0510088
0.05248
0.0552467
0.059966
0.0675489
0.0791708
0.0961955
0.119975
0.151528
0.191185
0.238333
0.291432
0.348302
0.406552
0.463908
0.518328
0.567975
0.611211
0.646731
0.673844
0.692859
0.705474
0.715197
0.727966
0.754752
0.805062
0.884235
0.989317
1.03197
0.586271
0.349127
0.326226
0.305912
0.287782
0.271515
0.256846
0.243558
0.23147
0.220431
0.210313
0.201009
0.192427
0.184488
0.177123
0.170274
0.16389
0.157926
0.152342
0.147104
0.142182
0.137547
0.133177
0.129049
0.125145
0.121446
0.117938
0.114606
0.111438
0.108422
0.105548
0.102806
0.100188
0.0976856
0.0952915
0.0929991
0.0908024
0.0886958
0.0866739
0.0847321
0.0828659
0.0810711
0.079344
0.0776809
0.0760787
0.0745341
0.0730443
0.0716065
0.0702183
0.0688772
0.067581
0.0663276
0.0651149
0.0639411
0.0628042
0.0617027
0.0606349
0.0595991
0.058594
0.0576183
0.0566706
0.0557501
0.0548562
0.0539892
0.0531506
0.0523441
0.0515774
0.0508648
0.0502314
0.04972
0.0494006
0.0493856
0.0498501
0.0510611
0.0534139
0.0574711
0.0639902
0.0739148
0.0882998
0.108156
0.134226
0.166736
0.205222
0.248502
0.294841
0.342262
0.388853
0.432972
0.473325
0.509016
0.539642
0.565516
0.587954
0.609603
0.634758
0.669748
0.723998
0.811512
0.928154
0.986598
0.556444
0.349127
0.326227
0.305913
0.287784
0.271518
0.25685
0.243563
0.231475
0.220437
0.210321
0.201018
0.192437
0.1845
0.177136
0.170289
0.163907
0.157944
0.152362
0.147126
0.142205
0.137572
0.133204
0.129077
0.125175
0.121478
0.117971
0.114641
0.111475
0.108461
0.105588
0.102848
0.100231
0.0977299
0.0953371
0.093046
0.0908505
0.088745
0.0867242
0.0847834
0.0829181
0.0811242
0.0793979
0.0777357
0.0761341
0.0745901
0.0731009
0.0716637
0.070276
0.0689354
0.0676396
0.0663865
0.0651741
0.0640005
0.0628639
0.0617625
0.0606947
0.0596589
0.0586536
0.0576773
0.0567286
0.0558063
0.0549093
0.054037
0.0531893
0.0523672
0.0515736
0.0508151
0.050104
0.0494622
0.0489279
0.0485638
0.0484705
0.0488048
0.0498034
0.0518106
0.0553046
0.0609087
0.069372
0.081502
0.0980473
0.119541
0.146137
0.177494
0.21274
0.25057
0.289449
0.327873
0.364592
0.398769
0.430095
0.458904
0.486333
0.51453
0.546891
0.588403
0.646327
0.731627
0.846408
0.915627
0.521629
0.349128
0.326228
0.305915
0.287786
0.271521
0.256853
0.243567
0.231481
0.220444
0.210329
0.201028
0.192448
0.184512
0.17715
0.170304
0.163924
0.157962
0.152382
0.147148
0.142228
0.137597
0.133231
0.129106
0.125205
0.12151
0.118005
0.114677
0.111512
0.108499
0.105628
0.10289
0.100274
0.0977747
0.0953832
0.0930935
0.0908992
0.0887949
0.0867752
0.0848354
0.0829712
0.0811782
0.0794528
0.0777913
0.0761905
0.0746473
0.0731587
0.0717221
0.0703349
0.0689948
0.0676995
0.0664468
0.0652349
0.0640617
0.0629254
0.0618243
0.0607568
0.0597212
0.058716
0.0577397
0.0567907
0.0558678
0.0549697
0.0540951
0.0532434
0.0524141
0.0516081
0.0508277
0.0500784
0.0493713
0.048726
0.0481767
0.0477802
0.0476276
0.0478595
0.0486858
0.0504057
0.0534235
0.0582497
0.0654768
0.0757223
0.0895399
0.107312
0.129142
0.154784
0.183617
0.214707
0.246952
0.279271
0.310826
0.341201
0.370565
0.39981
0.430706
0.466117
0.510391
0.570177
0.656121
0.772235
0.849595
0.499706
0.349128
0.326229
0.305916
0.287789
0.271524
0.256857
0.243572
0.231487
0.220451
0.210337
0.201037
0.192459
0.184524
0.177164
0.17032
0.16394
0.157981
0.152402
0.147169
0.142252
0.137623
0.133258
0.129135
0.125236
0.121542
0.118039
0.114713
0.11155
0.108539
0.105669
0.102932
0.100318
0.0978199
0.0954298
0.0931414
0.0909484
0.0888453
0.0868268
0.0848881
0.0830249
0.0812329
0.0795084
0.0778478
0.0762478
0.0747053
0.0732175
0.0717815
0.070395
0.0690555
0.0677607
0.0665086
0.0652972
0.0641244
0.0629886
0.061888
0.0608209
0.0597858
0.0587809
0.057805
0.0568563
0.0559336
0.0550353
0.0541603
0.0533072
0.0524753
0.051664
0.0508739
0.0501071
0.0493685
0.048668
0.0480237
0.0474669
0.0470496
0.0468545
0.0470086
0.0476982
0.0491831
0.0518054
0.055984
0.0621905
0.0709015
0.0825329
0.0973646
0.115473
0.136686
0.160581
0.186527
0.213794
0.2417
0.269801
0.298078
0.327128
0.358349
0.394192
0.438602
0.497933
0.582751
0.698936
0.78361
0.479212
0.349129
0.32623
0.305918
0.287791
0.271526
0.256861
0.243576
0.231492
0.220458
0.210345
0.201046
0.19247
0.184536
0.177178
0.170335
0.163957
0.158
0.152423
0.147192
0.142276
0.137648
0.133285
0.129164
0.125267
0.121575
0.118074
0.114749
0.111587
0.108578
0.10571
0.102974
0.100362
0.0978654
0.0954768
0.0931897
0.090998
0.0888962
0.0868789
0.0849414
0.0830792
0.0812883
0.0795647
0.0779051
0.0763059
0.0747643
0.0732772
0.071842
0.0704562
0.0691173
0.0678232
0.0665717
0.0653608
0.0641887
0.0630535
0.0619535
0.060887
0.0598524
0.0588482
0.0578729
0.056925
0.0560029
0.0551053
0.0542308
0.0533781
0.0525459
0.0517334
0.05094
0.0501661
0.0494138
0.0486877
0.0479969
0.0473586
0.0468018
0.0463746
0.0461531
0.0462524
0.0468384
0.0481379
0.0504421
0.0540987
0.0594892
0.0669912
0.0769284
0.0895186
0.10483
0.122759
0.143037
0.165273
0.189039
0.213999
0.240073
0.267639
0.297766
0.332526
0.37551
0.43282
0.514938
0.62929
0.718943
0.459098
0.349129
0.326231
0.305919
0.287793
0.271529
0.256864
0.243581
0.231498
0.220464
0.210353
0.201056
0.19248
0.184548
0.177191
0.170351
0.163974
0.158018
0.152443
0.147214
0.1423
0.137674
0.133313
0.129194
0.125298
0.121608
0.118108
0.114785
0.111625
0.108618
0.105751
0.103017
0.100407
0.0979112
0.095524
0.0932383
0.091048
0.0889475
0.0869314
0.0849951
0.083134
0.0813442
0.0796217
0.077963
0.0763648
0.074824
0.0733378
0.0719034
0.0705183
0.0691802
0.0678868
0.066636
0.0654258
0.0642544
0.0631199
0.0620206
0.0609549
0.0599211
0.0589178
0.0579433
0.0569964
0.0560754
0.055179
0.0543058
0.0534544
0.0526235
0.0518119
0.0510188
0.0502437
0.049487
0.0487507
0.0480395
0.0473623
0.0467353
0.0461864
0.0457606
0.0455285
0.0455953
0.0461101
0.0472728
0.0493347
0.0525906
0.0573586
0.0639503
0.0726338
0.0835965
0.0969177
0.112558
0.130375
0.150167
0.171752
0.195093
0.220467
0.248708
0.281562
0.322269
0.376642
0.454987
0.565948
0.658272
0.440041
0.34913
0.326232
0.305921
0.287795
0.271532
0.256868
0.243586
0.231504
0.220471
0.210361
0.201065
0.192491
0.184561
0.177205
0.170366
0.163992
0.158037
0.152464
0.147236
0.142324
0.1377
0.13334
0.129223
0.125329
0.121641
0.118143
0.114821
0.111663
0.108657
0.105793
0.10306
0.100451
0.0979572
0.0955715
0.0932873
0.0910984
0.0889991
0.0869843
0.0850492
0.0831894
0.0814006
0.0796792
0.0780215
0.0764243
0.0748844
0.0733991
0.0719656
0.0705814
0.069244
0.0679515
0.0667015
0.0654921
0.0643214
0.0631878
0.0620893
0.0610245
0.0599917
0.0589894
0.0580161
0.0570704
0.0561509
0.0552561
0.0543847
0.0535353
0.0527066
0.0518974
0.0511066
0.0503334
0.0495775
0.0488395
0.0481216
0.0474285
0.0467693
0.04616
0.0456276
0.045215
0.0449886
0.0450457
0.0455219
0.0465964
0.0484914
0.0514642
0.0557916
0.0617462
0.0695685
0.0794406
0.0914674
0.105674
0.122027
0.14048
0.161064
0.184029
0.210062
0.24065
0.2787
0.329698
0.403679
0.510179
0.603228
0.422602
0.34913
0.326233
0.305922
0.287797
0.271535
0.256872
0.24359
0.231509
0.220478
0.210369
0.201074
0.192502
0.184573
0.177219
0.170381
0.164009
0.158056
0.152484
0.147258
0.142348
0.137726
0.133368
0.129252
0.12536
0.121674
0.118178
0.114858
0.111701
0.108697
0.105834
0.103103
0.100496
0.0980035
0.0956193
0.0933365
0.0911489
0.089051
0.0870376
0.0851037
0.0832451
0.0814575
0.0797372
0.0780806
0.0764844
0.0749455
0.0734612
0.0720286
0.0706452
0.0693088
0.0680171
0.066768
0.0655595
0.0643897
0.063257
0.0621595
0.0610957
0.060064
0.0590629
0.058091
0.0571468
0.056229
0.0553361
0.054467
0.0536201
0.0527943
0.0519884
0.0512012
0.0504318
0.0496795
0.0489444
0.0482273
0.0475308
0.0468599
0.0462242
0.0456398
0.0451335
0.0447469
0.0445435
0.0446146
0.0450861
0.0461224
0.0479256
0.0507301
0.0547893
0.0603583
0.0676723
0.076927
0.0882652
0.101778
0.11753
0.135617
0.156284
0.180118
0.2084
0.243737
0.29127
0.360686
0.46213
0.554424
0.407083
0.349131
0.326234
0.305924
0.287799
0.271538
0.256876
0.243595
0.231515
0.220485
0.210377
0.201084
0.192513
0.184585
0.177233
0.170397
0.164026
0.158075
0.152505
0.147281
0.142372
0.137752
0.133395
0.129282
0.125391
0.121707
0.118212
0.114894
0.11174
0.108737
0.105876
0.103147
0.100541
0.0980498
0.0956671
0.0933858
0.0911997
0.0891032
0.0870911
0.0851586
0.0833012
0.0815148
0.0797956
0.0781401
0.076545
0.0750072
0.0735239
0.0720923
0.0707099
0.0693744
0.0680837
0.0668355
0.065628
0.0644592
0.0633275
0.0622311
0.0611684
0.060138
0.0591383
0.0581679
0.0572254
0.0563095
0.0554189
0.0545523
0.0537084
0.052886
0.052084
0.0513012
0.0505367
0.0497898
0.0490602
0.0483481
0.0476549
0.0469836
0.04634
0.0457342
0.0451831
0.0447135
0.0443671
0.0442052
0.0443159
0.0448185
0.0458684
0.0476567
0.0504065
0.0543639
0.059784
0.0669151
0.0759816
0.0871738
0.100652
0.116576
0.135197
0.157025
0.183162
0.215938
0.260147
0.325085
0.421267
0.511788
0.393573
0.349131
0.326235
0.305925
0.287801
0.271541
0.256879
0.2436
0.231521
0.220492
0.210385
0.201093
0.192524
0.184598
0.177247
0.170412
0.164043
0.158094
0.152525
0.147303
0.142396
0.137777
0.133423
0.129311
0.125422
0.12174
0.118247
0.114931
0.111778
0.108777
0.105917
0.10319
0.100585
0.0980963
0.0957152
0.0934354
0.0912507
0.0891556
0.0871449
0.0852137
0.0833576
0.0815724
0.0798545
0.0782002
0.0766062
0.0750695
0.0735872
0.0721566
0.0707753
0.0694409
0.0681511
0.066904
0.0656975
0.0645298
0.0633992
0.062304
0.0612426
0.0602135
0.0592153
0.0582466
0.0573061
0.0563923
0.0555042
0.0546403
0.0537997
0.0529811
0.0521833
0.0514055
0.0506467
0.0499062
0.0491836
0.0484788
0.0477927
0.0471272
0.0464859
0.0458756
0.0453074
0.0447991
0.0443786
0.0440879
0.0439884
0.0441663
0.0447387
0.0458573
0.0477105
0.0505216
0.054543
0.0600461
0.0673075
0.076594
0.0881518
0.102214
0.119053
0.139123
0.163367
0.193849
0.235015
0.295742
0.386739
0.474868
0.382026
0.349132
0.326236
0.305927
0.287804
0.271544
0.256883
0.243604
0.231526
0.220499
0.210393
0.201103
0.192535
0.18461
0.177261
0.170428
0.16406
0.158113
0.152546
0.147325
0.14242
0.137803
0.133451
0.12934
0.125454
0.121773
0.118282
0.114967
0.111816
0.108817
0.105959
0.103233
0.10063
0.0981429
0.0957633
0.093485
0.0913019
0.0892082
0.0871989
0.085269
0.0834143
0.0816304
0.0799137
0.0782606
0.0766678
0.0751323
0.0736511
0.0722216
0.0708414
0.069508
0.0682194
0.0669733
0.0657679
0.0646014
0.063472
0.0623781
0.0613181
0.0602905
0.059294
0.0583271
0.0573886
0.0564772
0.0555917
0.0547309
0.0538937
0.0530791
0.052286
0.0515135
0.0507609
0.0500274
0.0493126
0.0486165
0.0479396
0.0472832
0.0466499
0.0460445
0.0454747
0.0449529
0.0444985
0.044141
0.0439238
0.0439097
0.044186
0.0448708
0.0461182
0.0481222
0.0511173
0.0553763
0.0612019
0.0689141
0.0788339
0.0912717
0.106546
0.125085
0.1477
0.176193
0.21466
0.271546
0.35762
0.443043
0.372319
0.349132
0.326237
0.305928
0.287806
0.271546
0.256887
0.243609
0.231532
0.220505
0.210401
0.201112
0.192545
0.184622
0.177274
0.170443
0.164077
0.158131
0.152566
0.147347
0.142444
0.137829
0.133478
0.12937
0.125485
0.121805
0.118316
0.115004
0.111854
0.108857
0.106001
0.103276
0.100675
0.0981895
0.0958115
0.0935348
0.0913531
0.089261
0.0872531
0.0853246
0.0834712
0.0816887
0.0799733
0.0783214
0.0767298
0.0751955
0.0737155
0.0722872
0.0709081
0.0695759
0.0682884
0.0670435
0.0658393
0.064674
0.0635459
0.0624534
0.0613949
0.0603689
0.0593741
0.0584092
0.0574728
0.0565639
0.0556812
0.0548236
0.0539901
0.0531797
0.0523914
0.0516246
0.0508783
0.0501522
0.0494458
0.0487591
0.0480925
0.0474471
0.046825
0.0462296
0.0456669
0.0451459
0.0446809
0.0442932
0.0440147