/*--------------------------------*- C++ -*----------------------------------*\
| =========                 |                                                 |
| \\      /  F ield         | OpenFOAM: The Open Source CFD Toolbox           |
|  \\    /   O peration     | Version:  4.1                                   |
|   \\  /    A nd           | Web:      www.OpenFOAM.org                      |
|    \\/     M anipulation  |                                                 |
\*---------------------------------------------------------------------------*/
FoamFile
{
    version     2.0;
    format      ascii;
    class       volScalarField;
    location    "0.51";
    object      nut;
}
// * * * * * * * * * * * * * * * * * * * * * * * * * * * * * * * * * * * * * //

dimensions      [0 2 -1 0 0 0 0];

internalField   nonuniform List<scalar> 
43750
(
0.00139176
0.00140767
0.00142289
0.00143743
0.00145126
0.0014644
0.00147685
0.00148859
0.00149962
0.00150994
0.00151953
0.00152838
0.00153649
0.00154384
0.00155042
0.00155622
0.00156121
0.00156538
0.00156872
0.00157121
0.00157281
0.00157351
0.00157328
0.00157209
0.0015699
0.00156668
0.00156237
0.00155693
0.00155029
0.0015424
0.00153318
0.00152255
0.0015104
0.00149663
0.00148112
0.00146376
0.0014444
0.00142293
0.00139925
0.00137328
0.00134508
0.00131485
0.00128306
0.00125067
0.00121928
0.00119154
0.00117133
0.00116387
0.00117497
0.001209
0.00126952
0.00136714
0.00145773
0.00152434
0.00156394
0.00157889
0.00157374
0.00155328
0.00152112
0.00148075
0.00143552
0.00138835
0.00134301
0.00130396
0.001275
0.00125827
0.00125694
0.00125087
0.00123559
0.00121
0.0011728
0.00112327
0.00106103
0.000982964
0.000880372
0.000786623
0.000814179
0.000893905
0.00099196
0.00108583
0.0011669
0.0012342
0.00128954
0.00133537
0.00137401
0.00140745
0.00143744
0.00146558
0.00149354
0.00152171
0.00154945
0.00157676
0.00160291
0.00162593
0.0016415
0.0016407
0.00160548
0.00149814
0.00117168
0.000811039
0.000846055
0.000841801
0.000839125
0.000837909
0.000838048
0.000839428
0.000841922
0.000845409
0.000849765
0.00085487
0.000860602
0.000866849
0.000873508
0.00088049
0.000887728
0.000895176
0.000902816
0.000910658
0.000918743
0.000927142
0.000935958
0.000945324
0.000955406
0.000966396
0.000978523
0.000992044
0.00100726
0.0010245
0.00104417
0.0010667
0.00109262
0.00112254
0.00115716
0.00119733
0.00124404
0.00129843
0.00136188
0.00143592
0.00152233
0.00162303
0.00174009
0.0018756
0.00203158
0.00220989
0.00241214
0.00263977
0.00289413
0.00317646
0.00348767
0.0038275
0.00419318
0.00457894
0.0049704
0.00534776
0.00569259
0.00599493
0.00625459
0.00647453
0.0066608
0.006795
0.00683516
0.00681472
0.00676307
0.00672732
0.00675129
0.00682037
0.00680854
0.00674017
0.00662792
0.00641963
0.00605101
0.00546878
0.00469489
0.00390148
0.00334366
0.00298366
0.00273627
0.00259945
0.00250936
0.00246399
0.00248117
0.00257621
0.00275442
0.00300971
0.00332537
0.00367544
0.00402531
0.0043335
0.00455758
0.00471108
0.00485363
0.00498413
0.00509687
0.00517812
0.00519921
0.00510635
0.00481769
0.00423119
0.00317778
0.000797082
0.000843657
0.000835916
0.000828828
0.000822326
0.000816357
0.000810884
0.000805876
0.000801312
0.000797178
0.000793466
0.000790172
0.000787295
0.000784839
0.000782806
0.000781203
0.000780035
0.000779306
0.000779021
0.000779181
0.000779788
0.000780838
0.000782328
0.000784249
0.000786594
0.000789352
0.000792517
0.000796085
0.000800063
0.000804473
0.000809363
0.000814817
0.000820973
0.000828041
0.000836333
0.000846288
0.00085851
0.000873811
0.000893247
0.000918166
0.000950242
0.000991512
0.0010444
0.00111175
0.00119685
0.00130348
0.001436
0.00159951
0.00179999
0.00204448
0.00234105
0.00269839
0.0031247
0.00362478
0.00419614
0.00482537
0.00548651
0.00614384
0.00675957
0.00730391
0.00776217
0.00813284
0.0084214
0.00863504
0.00880959
0.00897398
0.00913147
0.0092861
0.00938461
0.0093836
0.00922666
0.00882931
0.00809046
0.00700777
0.00578232
0.00464983
0.00387423
0.00347757
0.00333589
0.00336736
0.00354441
0.00384597
0.00423364
0.00465299
0.00504846
0.00537914
0.00562671
0.00579381
0.00589478
0.00594543
0.00596468
0.0059548
0.00590954
0.00581966
0.00567407
0.00546012
0.00516177
0.00475414
0.00418627
0.00325297
0.000918891
0.000843648
0.000835876
0.000828725
0.000822116
0.000815981
0.000810266
0.000804924
0.000799918
0.000795214
0.000790787
0.000786615
0.000782679
0.000778966
0.000775465
0.000772169
0.000769072
0.000766173
0.000763472
0.000760973
0.000758681
0.000756605
0.000754754
0.000753141
0.000751783
0.000750694
0.000749895
0.000749403
0.000749241
0.000749427
0.000749983
0.000750925
0.000752269
0.000754029
0.000756215
0.000758841
0.000761929
0.000765526
0.000769729
0.00077473
0.000780879
0.000788773
0.000799369
0.00081411
0.000835039
0.000864881
0.000907093
0.000965878
0.00104624
0.00115414
0.00129674
0.00148278
0.00172291
0.00202958
0.00241635
0.00289599
0.00347723
0.00416028
0.00493159
0.0057603
0.00659955
0.00739538
0.00810046
0.00868604
0.00915072
0.00952736
0.00986636
0.010213
0.0106247
0.0109748
0.0111846
0.0111703
0.0107626
0.00986429
0.00850885
0.00704725
0.00588082
0.00521013
0.00498989
0.0050917
0.00539737
0.00580171
0.00621269
0.00656231
0.00681528
0.00696838
0.00704017
0.00705639
0.00703798
0.00699555
0.00693299
0.00684035
0.00670675
0.0065148
0.00624158
0.00586514
0.00537603
0.0047859
0.00411446
0.00325068
0.001115
0.000843648
0.000835876
0.000828725
0.000822113
0.000815974
0.000810253
0.0008049
0.000799878
0.000795151
0.00079069
0.000786471
0.000782472
0.000778675
0.000775063
0.000771623
0.000768344
0.000765215
0.00076223
0.000759381
0.000756665
0.000754079
0.000751621
0.000749292
0.000747095
0.000745034
0.000743115
0.000741347
0.00073974
0.000738309
0.000737068
0.000736036
0.000735232
0.000734677
0.000734393
0.000734398
0.000734709
0.000735333
0.000736262
0.000737475
0.000738926
0.000740552
0.000742297
0.000744169
0.000746367
0.0007495
0.000754874
0.000764786
0.000782672
0.000813057
0.000861378
0.000933899
0.00103789
0.00118206
0.00137707
0.0016359
0.00197381
0.00240746
0.00295268
0.00362021
0.00440948
0.00530153
0.0062544
0.00720635
0.0080919
0.00886918
0.0095393
0.0101414
0.0107336
0.011355
0.0120051
0.0125589
0.0126732
0.0122197
0.0111704
0.00977547
0.00845964
0.00756831
0.00718818
0.0072094
0.00746294
0.00779505
0.00809441
0.00830015
0.00839768
0.00840343
0.00834505
0.00824732
0.00812756
0.00799638
0.00786203
0.00771004
0.00753142
0.00730818
0.00700824
0.00658704
0.006
0.00522743
0.00430574
0.0032675
0.00125443
0.000843649
0.000835877
0.000828725
0.000822114
0.000815975
0.000810253
0.000804901
0.000799878
0.000795151
0.00079069
0.000786469
0.000782468
0.000778667
0.000775049
0.000771601
0.000768308
0.000765161
0.00076215
0.000759267
0.000756504
0.000753856
0.000751317
0.000748885
0.000746556
0.000744329
0.000742204
0.000740182
0.000738264
0.000736456
0.000734762
0.000733191
0.000731751
0.000730455
0.000729317
0.000728352
0.000727576
0.000727006
0.000726655
0.00072653
0.000726623
0.000726902
0.000727298
0.000727682
0.000727849
0.000727525
0.000726434
0.000724514
0.000722317
0.000721547
0.000725478
0.00073897
0.000768054
0.000819501
0.00090075
0.0010203
0.00118836
0.00141754
0.00172323
0.00212338
0.00263704
0.00328076
0.00406221
0.00497173
0.0059757
0.00701976
0.0080465
0.0090199
0.00994231
0.0108488
0.011772
0.0126781
0.0133886
0.013639
0.0131701
0.0121358
0.0109034
0.00989957
0.0093537
0.00923716
0.00938465
0.00961924
0.0098149
0.00991229
0.00990582
0.00981664
0.00966884
0.00947944
0.00926051
0.00902461
0.00879754
0.00856445
0.00832095
0.00805665
0.00774589
0.00734033
0.00676568
0.00593066
0.00477772
0.00339563
0.00136142
0.000843649
0.000835877
0.000828726
0.000822115
0.000815976
0.000810254
0.000804902
0.000799879
0.000795152
0.000790691
0.000786471
0.000782469
0.000778668
0.000775049
0.0007716
0.000768306
0.000765157
0.000762143
0.000759255
0.000756486
0.000753829
0.000751279
0.000748831
0.00074648
0.000744224
0.000742061
0.000739987
0.000738003
0.000736109
0.000734305
0.000732594
0.000730979
0.000729465
0.000728058
0.000726766
0.000725599
0.000724569
0.00072369
0.000722975
0.000722435
0.000722078
0.000721898
0.000721865
0.000721907
0.000721879
0.000721531
0.000720471
0.000718188
0.000714217
0.000708542
0.000702285
0.0006984
0.00070191
0.000719449
0.000758498
0.000826989
0.000933556
0.00108825
0.00130333
0.00159397
0.00197833
0.00247657
0.0031078
0.00388453
0.00480568
0.00585211
0.0069892
0.00817917
0.0093974
0.010635
0.0118673
0.0129909
0.0138006
0.014052
0.0136492
0.0127647
0.011836
0.0112085
0.0109766
0.0110276
0.0111866
0.0113172
0.0113553
0.0112962
0.0111607
0.0109686
0.0107289
0.0104433
0.0101142
0.0097818
0.00944755
0.00911066
0.00876778
0.00840626
0.00799384
0.00746288
0.00668252
0.0054482
0.00368707
0.00144402
0.000843649
0.000835878
0.000828727
0.000822116
0.000815978
0.000810256
0.000804904
0.000799882
0.000795155
0.000790695
0.000786475
0.000782474
0.000778673
0.000775056
0.000771606
0.000768313
0.000765165
0.000762151
0.000759263
0.000756494
0.000753837
0.000751285
0.000748834
0.00074648
0.000744219
0.000742047
0.000739962
0.000737962
0.000736046
0.000734212
0.000732461
0.000730793
0.00072921
0.000727712
0.000726304
0.000724989
0.000723773
0.000722664
0.000721671
0.000720804
0.000720076
0.000719499
0.000719079
0.000718814
0.000718678
0.000718601
0.000718437
0.000717913
0.00071659
0.000713845
0.000709009
0.000701747
0.000692798
0.000684845
0.000682977
0.000694316
0.000727067
0.000789848
0.00089176
0.00104307
0.00125606
0.00154575
0.00193027
0.00243033
0.00306741
0.00386049
0.00482158
0.00595188
0.00724021
0.00866174
0.0101665
0.011649
0.0129256
0.0137693
0.0140189
0.0137002
0.0130918
0.012546
0.0122732
0.0122659
0.0123942
0.0125097
0.0125371
0.0124708
0.01233
0.0121329
0.0118876
0.0115896
0.0112258
0.0107961
0.0103596
0.0099182
0.00947365
0.00902395
0.00855576
0.00803044
0.00733573
0.00617782
0.004146
0.00150911
0.00084365
0.000835879
0.000828729
0.000822118
0.00081598
0.000810259
0.000804908
0.000799886
0.00079516
0.0007907
0.000786481
0.00078248
0.00077868
0.000775063
0.000771614
0.000768322
0.000765173
0.00076216
0.000759273
0.000756503
0.000753846
0.000751294
0.000748842
0.000746486
0.000744223
0.000742048
0.000739959
0.000737953
0.00073603
0.000734186
0.000732422
0.000730736
0.000729128
0.000727599
0.000726148
0.000724777
0.000723488
0.000722284
0.000721167
0.000720145
0.000719223
0.000718412
0.000717721
0.000717161
0.000716741
0.000716459
0.00071629
0.000716165
0.000715929
0.000715296
0.000713792
0.000710737
0.00070537
0.000697233
0.000686938
0.000677121
0.00067304
0.000682264
0.00071366
0.000776562
0.000880732
0.00103696
0.00125791
0.00155891
0.00195878
0.00248055
0.00315164
0.00400276
0.00506403
0.0063557
0.00786784
0.00952499
0.0111547
0.0125107
0.0133742
0.0136707
0.0135343
0.0132394
0.0130356
0.0130191
0.0131345
0.0132681
0.0133359
0.0133138
0.0132115
0.013045
0.0128264
0.012553
0.0122077
0.0117509
0.0112418
0.0107068
0.0101609
0.00961091
0.00905757
0.00849104
0.00784639
0.00683827
0.00472924
0.001562
0.00084365
0.00083588
0.00082873
0.00082212
0.000815982
0.000810262
0.000804911
0.00079989
0.000795165
0.000790706
0.000786487
0.000782488
0.000778688
0.000775072
0.000771624
0.000768332
0.000765185
0.000762172
0.000759285
0.000756516
0.000753858
0.000751306
0.000748854
0.000746497
0.000744232
0.000742055
0.000739964
0.000737955
0.000736027
0.000734177
0.000732406
0.000730711
0.000729091
0.000727547
0.000726077
0.000724682
0.000723362
0.000722117
0.000720949
0.000719858
0.000718848
0.000717923
0.000717088
0.000716351
0.00071572
0.000715208
0.000714819
0.000714551
0.000714376
0.000714217
0.000713906
0.000713131
0.000711383
0.000707944
0.00070203
0.000693211
0.000682217
0.000671933
0.000668011
0.000678544
0.000713024
0.000781492
0.000894486
0.00106363
0.00130252
0.00162801
0.00206201
0.00263395
0.00338261
0.00435434
0.00559069
0.00709569
0.00878411
0.0104518
0.0118337
0.0127396
0.0131602
0.0132564
0.0132488
0.0132932
0.0134235
0.0135854
0.0137087
0.0137549
0.0137193
0.013612
0.0134448
0.0132199
0.0129254
0.0125229
0.0119955
0.0114
0.0107765
0.0101389
0.00949998
0.00887275
0.00823538
0.00736511
0.00535855
0.00160666
0.000843651
0.000835881
0.000828732
0.000822122
0.000815985
0.000810265
0.000804915
0.000799895
0.000795171
0.000790712
0.000786495
0.000782496
0.000778697
0.000775082
0.000771635
0.000768344
0.000765197
0.000762185
0.000759298
0.00075653
0.000753873
0.00075132
0.000748868
0.00074651
0.000744244
0.000742066
0.000739972
0.00073796
0.000736028
0.000734173
0.000732396
0.000730693
0.000729065
0.000727511
0.000726029
0.000724619
0.000723282
0.000722016
0.000720821
0.000719698
0.000718648
0.00071767
0.000716768
0.000715943
0.000715202
0.00071455
0.000713995
0.000713547
0.000713208
0.000712972
0.0007128
0.0007126
0.000712178
0.000711185
0.000709068
0.000705086
0.000698491
0.000689021
0.000677772
0.000668189
0.000666587
0.000681716
0.000723717
0.000803389
0.00093227
0.00112339
0.00139255
0.00176045
0.00225591
0.00291919
0.00380151
0.00495176
0.00637975
0.00800263
0.00962337
0.0109997
0.011976
0.0125602
0.0128841
0.0131015
0.0133061
0.0135136
0.0136934
0.0138126
0.013856
0.0138238
0.0137219
0.0135531
0.01331
0.0129696
0.0124946
0.0119112
0.0112557
0.0105607
0.00985739
0.00917872
0.00853246
0.00775617
0.00593837
0.00164619
0.000843651
0.000835882
0.000828733
0.000822124
0.000815988
0.000810269
0.00080492
0.000799901
0.000795177
0.000790719
0.000786503
0.000782505
0.000778708
0.000775093
0.000771647
0.000768357
0.000765211
0.0007622
0.000759314
0.000756546
0.000753889
0.000751336
0.000748884
0.000746526
0.000744258
0.000742078
0.000739982
0.000737968
0.000736032
0.000734173
0.000732391
0.000730682
0.000729046
0.000727482
0.00072599
0.000724568
0.000723217
0.000721935
0.000720723
0.00071958
0.000718505
0.000717499
0.000716563
0.000715696
0.0007149
0.000714179
0.000713535
0.000712976
0.000712506
0.000712133
0.000711854
0.000711655
0.000711481
0.000711213
0.000710619
0.0007093
0.000706656
0.000701942
0.000694525
0.000684484
0.000673545
0.000666031
0.000669174
0.000692531
0.000747002
0.000844388
0.000997816
0.00122292
0.00153979
0.00197602
0.00256983
0.00336937
0.00441952
0.00572848
0.00722465
0.00874488
0.0100935
0.0111421
0.0118829
0.0123963
0.012778
0.0130884
0.0133445
0.0135392
0.0136623
0.0137095
0.0136808
0.0135763
0.0133904
0.0131089
0.0127039
0.012161
0.0115147
0.0108059
0.01008
0.00938585
0.00875027
0.0080353
0.00637802
0.00168329
0.000843652
0.000835883
0.000828735
0.000822127
0.000815991
0.000810273
0.000804925
0.000799906
0.000795184
0.000790727
0.000786512
0.000782515
0.000778719
0.000775105
0.00077166
0.000768371
0.000765226
0.000762216
0.000759331
0.000756563
0.000753906
0.000751354
0.000748901
0.000746543
0.000744275
0.000742094
0.000739996
0.000737978
0.00073604
0.000734177
0.000732389
0.000730675
0.000729032
0.00072746
0.000725959
0.000724526
0.000723163
0.000721868
0.00072064
0.00071948
0.000718387
0.000717361
0.000716401
0.000715508
0.000714681
0.000713923
0.000713233
0.000712615
0.000712072
0.000711609
0.00071123
0.000710936
0.00071072
0.00071055
0.000710351
0.000709966
0.00070911
0.000707325
0.000703969
0.00069834
0.000690042
0.000679718
0.000670038
0.000666502
0.000677487
0.000713517
0.000786536
0.000909968
0.00109967
0.00137563
0.0017642
0.00229989
0.00302328
0.00396884
0.00513983
0.00648041
0.00787095
0.00916659
0.01026
0.0111191
0.011774
0.0122759
0.0126653
0.012963
0.0131762
0.0133066
0.0133545
0.0133183
0.013193
0.0129686
0.0126372
0.0121528
0.0115466
0.010861
0.0101511
0.00947928
0.00888493
0.00824027
0.00666654
0.00171881
0.000843652
0.000835884
0.000828737
0.000822129
0.000815995
0.000810278
0.00080493
0.000799913
0.000795191
0.000790735
0.000786521
0.000782526
0.00077873
0.000775118
0.000771674
0.000768386
0.000765243
0.000762233
0.000759349
0.000756582
0.000753926
0.000751374
0.000748921
0.000746562
0.000744293
0.000742111
0.000740011
0.000737992
0.00073605
0.000734184
0.000732392
0.000730672
0.000729023
0.000727444
0.000725934
0.000724492
0.000723117
0.00072181
0.000720569
0.000719394
0.000718285
0.000717241
0.000716262
0.000715348
0.000714499
0.000713715
0.000712997
0.000712344
0.00071176
0.000711246
0.000710804
0.000710439
0.000710151
0.000709935
0.000709772
0.000709611
0.000709343
0.000708762
0.000707518
0.000705089
0.000700822
0.000694147
0.000685098
0.000675183
0.000668357
0.000671577
0.000694544
0.000749019
0.00084859
0.00100936
0.00125125
0.00159932
0.00208368
0.00273569
0.00357795
0.00460866
0.00578742
0.00703401
0.00824782
0.00934123
0.0102655
0.0110134
0.0116022
0.0120554
0.0123922
0.012625
0.0127602
0.0127993
0.0127393
0.0125729
0.0122928
0.0118895
0.0113507
0.0107207
0.0100631
0.00945077
0.0089321
0.00838539
0.00691607
0.00174801
0.000843653
0.000835886
0.000828739
0.000822132
0.000815999
0.000810282
0.000804936
0.000799919
0.000795198
0.000790744
0.000786531
0.000782537
0.000778743
0.000775132
0.000771689
0.000768402
0.00076526
0.000762251
0.000759368
0.000756602
0.000753946
0.000751395
0.000748942
0.000746583
0.000744314
0.00074213
0.000740029
0.000738008
0.000736064
0.000734194
0.000732398
0.000730673
0.000729018
0.000727433
0.000725915
0.000724464
0.00072308
0.000721761
0.000720508
0.00071932
0.000718196
0.000717136
0.00071614
0.000715208
0.00071434
0.000713535
0.000712793
0.000712116
0.000711503
0.000710956
0.000710476
0.000710064
0.000709724
0.000709454
0.000709253
0.000709105
0.000708975
0.000708781
0.000708372
0.000707477
0.000705674
0.000702394
0.000697034
0.000689322
0.000680013
0.000671853
0.000670426
0.000684362
0.000724898
0.000805519
0.00094232
0.0011549
0.00146668
0.0019032
0.0024872
0.00323106
0.00412915
0.00515286
0.00625081
0.00735629
0.00840167
0.00933433
0.0101253
0.0107673
0.011267
0.0116353
0.0118825
0.0120145
0.0120326
0.0119339
0.0117155
0.0113969
0.0109389
0.0103901
0.00981822
0.00929986
0.00888761
0.0084631
0.00711987
0.00177093
0.000843654
0.000835887
0.000828741
0.000822135
0.000816002
0.000810287
0.000804941
0.000799926
0.000795206
0.000790753
0.000786541
0.000782549
0.000778756
0.000775146
0.000771705
0.000768419
0.000765278
0.00076227
0.000759388
0.000756623
0.000753968
0.000751417
0.000748965
0.000746606
0.000744336
0.000742152
0.000740049
0.000738026
0.00073608
0.000734207
0.000732407
0.000730678
0.000729018
0.000727426
0.000725901
0.000724443
0.000723049
0.000721721
0.000720456
0.000719256
0.000718118
0.000717044
0.000716033
0.000715085
0.000714198
0.000713375
0.000712613
0.000711915
0.000711279
0.000710706
0.000710197
0.000709754
0.000709376
0.000709066
0.000708823
0.000708644
0.000708518
0.000708417
0.000708279
0.000707985
0.000707321
0.000705945
0.000703367
0.000699016
0.000692479
0.000684048
0.00067559
0.000671503
0.000679277
0.000709386
0.000774916
0.000891618
0.00107829
0.00135627
0.00174674
0.00226551
0.00291782
0.00369549
0.00457713
0.00552928
0.00650841
0.00746543
0.0083535
0.00913606
0.00979105
0.0103097
0.0106918
0.0109405
0.0110583
0.011046
0.0109054
0.0106558
0.0103094
0.00987578
0.00942346
0.00902977
0.0087487
0.00846486
0.00726719
0.00178698
0.000843654
0.000835888
0.000828743
0.000822138
0.000816006
0.000810292
0.000804947
0.000799933
0.000795215
0.000790763
0.000786552
0.000782561
0.000778769
0.000775161
0.000771721
0.000768437
0.000765297
0.00076229
0.000759409
0.000756645
0.000753991
0.00075144
0.000748988
0.000746629
0.000744359
0.000742175
0.000740071
0.000738047
0.000736098
0.000734223
0.00073242
0.000730687
0.000729022
0.000727425
0.000725893
0.000724427
0.000723026
0.000721688
0.000720413
0.000719201
0.000718052
0.000716965
0.000715939
0.000714976
0.000714073
0.000713233
0.000712453
0.000711735
0.000711079
0.000710484
0.000709952
0.000709482
0.000709075
0.000708733
0.000708455
0.000708242
0.00070809
0.00070799
0.000707918
0.000707824
0.000707611
0.000707106
0.000706023
0.000703944
0.000700347
0.000694769
0.000687229
0.000678974
0.000673439
0.000677031
0.000699319
0.00075274
0.000852353
0.00101567
0.00126159
0.00160733
0.00206383
0.00263203
0.00330244
0.00405725
0.00487254
0.00571881
0.00656144
0.00736337
0.00808982
0.00871303
0.00921433
0.00958335
0.0098155
0.00990991
0.00986978
0.00970962
0.00949589
0.00919945
0.00889107
0.00864469
0.00851195
0.00838081
0.0073451
0.001795
0.000843655
0.00083589
0.000828745
0.000822141
0.00081601
0.000810297
0.000804953
0.00079994
0.000795223
0.000790773
0.000786563
0.000782573
0.000778783
0.000775176
0.000771738
0.000768455
0.000765316
0.000762311
0.000759431
0.000756668
0.000754015
0.000751465
0.000749013
0.000746655
0.000744385
0.000742199
0.000740095
0.000738069
0.000736119
0.000734242
0.000732435
0.000730699
0.00072903
0.000727427
0.00072589
0.000724417
0.000723008
0.000721662
0.000720378
0.000719156
0.000717995
0.000716896
0.000715858
0.00071488
0.000713963
0.000713106
0.00071231
0.000711575
0.0007109
0.000710285
0.000709732
0.000709239
0.000708808
0.000708439
0.000708132
0.000707888
0.000707705
0.000707581
0.000707507
0.000707461
0.000707403
0.000707249
0.000706853
0.000705973
0.000704248
0.000701208
0.000696387
0.000689648
0.000681809
0.000675553
0.00067631
0.000692692
0.000736295
0.000821187
0.00096323
0.00117868
0.00148139
0.00187905
0.00237051
0.00294591
0.00358922
0.0042809
0.00499876
0.00571762
0.00640949
0.0070455
0.00759892
0.00804798
0.00837741
0.00857905
0.00865259
0.00860883
0.0084863
0.00836135
0.00822613
0.00814643
0.00817257
0.00820017
0.00733977
0.00179338
0.000843656
0.000835891
0.000828748
0.000822144
0.000816014
0.000810302
0.00080496
0.000799948
0.000795232
0.000790783
0.000786575
0.000782586
0.000778798
0.000775192
0.000771755
0.000768474
0.000765336
0.000762332
0.000759454
0.000756692
0.000754039
0.00075149
0.000749039
0.000746681
0.000744411
0.000742225
0.000740121
0.000738094
0.000736142
0.000734262
0.000732454
0.000730714
0.000729041
0.000727434
0.000725891
0.000724413
0.000722997
0.000721643
0.00072035
0.000719119
0.000717948
0.000716837
0.000715787
0.000714796
0.000713866
0.000712995
0.000712183
0.000711432
0.000710739
0.000710107
0.000709535
0.000709022
0.000708569
0.000708177
0.000707845
0.000707573
0.000707361
0.000707208
0.000707111
0.000707061
0.000707039
0.000707007
0.000706894
0.000706572
0.000705832
0.000704358
0.000701727
0.000697493
0.000691437
0.000684088
0.000677543
0.000676388
0.000688283
0.000723849
0.000795941
0.000918576
0.00110542
0.00136749
0.00171037
0.00213215
0.00262346
0.00316956
0.00375293
0.00435482
0.00495532
0.00553298
0.00606531
0.00653036
0.00690911
0.00718814
0.00736217
0.00743711
0.00743594
0.00742924
0.00746228
0.0075471
0.00772957
0.00791432
0.00723884
0.00178034
0.000843657
0.000835893
0.00082875
0.000822148
0.000816019
0.000810307
0.000804966
0.000799955
0.000795241
0.000790793
0.000786587
0.000782599
0.000778812
0.000775208
0.000771773
0.000768493
0.000765357
0.000762355
0.000759477
0.000756716
0.000754065
0.000751517
0.000749066
0.000746709
0.000744439
0.000742253
0.000740148
0.00073812
0.000736166
0.000734285
0.000732474
0.000730731
0.000729055
0.000727444
0.000725897
0.000724412
0.00072299
0.000721629
0.000720329
0.000719089
0.000717909
0.000716788
0.000715727
0.000714724
0.000713781
0.000712896
0.000712071
0.000711304
0.000710596
0.000709947
0.000709358
0.000708827
0.000708354
0.000707941
0.000707587
0.000707291
0.000707054
0.000706874
0.00070675
0.000706678
0.000706649
0.000706646
0.000706633
0.000706547
0.000706273
0.000705626
0.000704327
0.000701997
0.00069822
0.000692738
0.000685884
0.000679315
0.000676897
0.000685378
0.000714326
0.000775259
0.000880321
0.0010408
0.00126539
0.00155822
0.00191731
0.00233434
0.0027961
0.00328661
0.00378906
0.00428648
0.0047619
0.00519844
0.00558041
0.00589521
0.00613615
0.00630552
0.00641784
0.00650503
0.00663887
0.00686857
0.00718958
0.00752087
0.00703477
0.00175425
0.000843657
0.000835894
0.000828752
0.000822151
0.000816023
0.000810313
0.000804973
0.000799963
0.00079525
0.000790804
0.000786599
0.000782613
0.000778827
0.000775225
0.000771791
0.000768512
0.000765378
0.000762377
0.000759501
0.000756741
0.000754091
0.000751544
0.000749094
0.000746737
0.000744467
0.000742282
0.000740176
0.000738147
0.000736193
0.00073431
0.000732497
0.000730752
0.000729073
0.000727458
0.000725906
0.000724417
0.000722989
0.000721622
0.000720314
0.000719066
0.000717877
0.000716747
0.000715676
0.000714662
0.000713707
0.00071281
0.000711972
0.000711191
0.000710469
0.000709805
0.000709199
0.000708651
0.000708162
0.00070773
0.000707356
0.00070704
0.00070678
0.000706576
0.000706427
0.00070633
0.000706281
0.000706271
0.000706282
0.000706282
0.00070621
0.000705964
0.000705379
0.000704203
0.000702097
0.00069868
0.000693681
0.000687309
0.000680884
0.000677678
0.000683583
0.000707092
0.000758349
0.000847733
0.000984476
0.00117538
0.00142352
0.00172707
0.00207908
0.00246818
0.00288033
0.00330058
0.00371433
0.00410809
0.00446997
0.00479064
0.00506498
0.0052943
0.00548861
0.00566858
0.00586803
0.00614091
0.00655833
0.00702375
0.00672636
0.00171435
0.000843658
0.000835896
0.000828755
0.000822154
0.000816027
0.000810318
0.000804979
0.000799971
0.000795259
0.000790814
0.000786611
0.000782627
0.000778843
0.000775242
0.000771809
0.000768532
0.000765399
0.0007624
0.000759525
0.000756767
0.000754118
0.000751572
0.000749123
0.000746767
0.000744497
0.000742312
0.000740206
0.000738177
0.000736222
0.000734338
0.000732523
0.000730775
0.000729093
0.000727475
0.000725919
0.000724425
0.000722992
0.000721619
0.000720305
0.00071905
0.000717853
0.000716714
0.000715633
0.00071461
0.000713644
0.000712736
0.000711885
0.000711092
0.000710356
0.000709678
0.000709058
0.000708495
0.000707989
0.000707541
0.00070715
0.000706815
0.000706536
0.000706312
0.000706141
0.000706022
0.000705952
0.000705924
0.00070593
0.000705952
0.000705959
0.000705895
0.000705665
0.000705119
0.000704032
0.000702101
0.000698977
0.000694397
0.000688491
0.000682331
0.000678696
0.000682703
0.000701789
0.000744778
0.00082047
0.000936395
0.00109787
0.00130714
0.00156266
0.0018588
0.00218628
0.00253337
0.00288749
0.00323666
0.00357069
0.00388212
0.00416727
0.00442754
0.00467078
0.00491268
0.00517854
0.0055066
0.00594891
0.0064608
0.00631162
0.00165776
0.000843659
0.000835898
0.000828757
0.000822158
0.000816032
0.000810324
0.000804986
0.000799979
0.000795269
0.000790825
0.000786623
0.000782641
0.000778858
0.000775259
0.000771828
0.000768553
0.000765421
0.000762424
0.00075955
0.000756793
0.000754146
0.000751601
0.000749153
0.000746797
0.000744528
0.000742343
0.000740237
0.000738207
0.000736252
0.000734366
0.00073255
0.0007308
0.000729116
0.000727495
0.000725936
0.000724438
0.000723
0.000721621
0.000720301
0.00071904
0.000717836
0.000716689
0.000715599
0.000714567
0.000713591
0.000712672
0.00071181
0.000711005
0.000710257
0.000709567
0.000708933
0.000708356
0.000707836
0.000707373
0.000706966
0.000706615
0.00070632
0.000706078
0.00070589
0.000705752
0.000705663
0.000705618
0.000705612
0.000705634
0.000705666
0.000705678
0.000705618
0.000705399
0.000704883
0.000703869
0.000702083
0.000699213
0.000695014
0.000689569
0.000683771
0.000679995
0.000682667
0.000698244
0.000734335
0.00079839
0.000896591
0.00103312
0.00120966
0.00142491
0.00167447
0.00195109
0.00224557
0.00254804
0.00284945
0.00314289
0.00342487
0.00369634
0.00396381
0.00424051
0.0045484
0.00492231
0.00541265
0.00598505
0.0059425
0.0016209
0.00084366
0.000835899
0.00082876
0.000822161
0.000816036
0.000810329
0.000804993
0.000799987
0.000795278
0.000790836
0.000786636
0.000782655
0.000778874
0.000775276
0.000771847
0.000768573
0.000765444
0.000762447
0.000759576
0.00075682
0.000754174
0.00075163
0.000749183
0.000746828
0.00074456
0.000742375
0.000740269
0.000738239
0.000736283
0.000734397
0.000732579
0.000730828
0.000729141
0.000727517
0.000725955
0.000724454
0.000723011
0.000721628
0.000720303
0.000719035
0.000717824
0.00071667
0.000715573
0.000714532
0.000713547
0.000712619
0.000711747
0.000710931
0.000710172
0.000709469
0.000708823
0.000708233
0.0007077
0.000707224
0.000706803
0.000706439
0.000706129
0.000705873
0.00070567
0.000705518
0.000705414
0.000705356
0.000705338
0.000705354
0.000705393
0.000705438
0.000705458
0.000705406
0.0007052
0.000704716
0.000703773
0.000702126
0.000699496
0.000695664
0.000690692
0.000685343
0.000681667
0.000683493
0.000696399
0.000726933
0.000781436
0.000865062
0.000981202
0.00113116
0.00131396
0.00152627
0.0017627
0.00201648
0.0022805
0.0025487
0.00281744
0.00308681
0.00336196
0.00365442
0.00398452
0.00438606
0.00491006
0.00553221
0.00558422
0.00158801
0.00084366
0.000835901
0.000828762
0.000822165
0.000816041
0.000810335
0.000805
0.000799996
0.000795288
0.000790847
0.000786648
0.000782669
0.00077889
0.000775294
0.000771866
0.000768594
0.000765466
0.000762471
0.000759601
0.000756847
0.000754202
0.00075166
0.000749214
0.00074686
0.000744592
0.000742408
0.000740302
0.000738273
0.000736316
0.000734429
0.000732611
0.000730858
0.000729169
0.000727543
0.000725978
0.000724473
0.000723027
0.000721639
0.000720309
0.000719036
0.000717819
0.000716658
0.000715554
0.000714505
0.000713512
0.000712574
0.000711693
0.000710867
0.000710098
0.000709384
0.000708727
0.000708126
0.000707582
0.000707093
0.000706661
0.000706284
0.000705963
0.000705695
0.00070548
0.000705317
0.000705203
0.000705135
0.000705109
0.000705122
0.000705164
0.000705225
0.000705289
0.000705326
0.000705291
0.000705111
0.000704673
0.000703813
0.000702317
0.000699938
0.000696484
0.000692015
0.000687204
0.000683843
0.000685258
0.000696278
0.000722563
0.000769578
0.000841735
0.000941916
0.00107128
0.00122921
0.00141338
0.00162001
0.00184451
0.0020824
0.00233053
0.00258847
0.00286013
0.00315557
0.00349385
0.00390834
0.00445124
0.0051073
0.00523572
0.0015547
0.000843661
0.000835902
0.000828765
0.000822168
0.000816045
0.000810341
0.000805007
0.000800004
0.000795298
0.000790859
0.000786661
0.000782683
0.000778906
0.000775311
0.000771886
0.000768615
0.000765489
0.000762496
0.000759627
0.000756875
0.000754231
0.00075169
0.000749245
0.000746892
0.000744626
0.000742442
0.000740337
0.000738307
0.00073635
0.000734463
0.000732643
0.000730889
0.000729199
0.000727571
0.000726003
0.000724495
0.000723046
0.000721654
0.000720319
0.000719041
0.000717819
0.000716652
0.000715541
0.000714485
0.000713484
0.000712539