/*--------------------------------*- C++ -*----------------------------------*\
| =========                 |                                                 |
| \\      /  F ield         | OpenFOAM: The Open Source CFD Toolbox           |
|  \\    /   O peration     | Version:  4.1                                   |
|   \\  /    A nd           | Web:      www.OpenFOAM.org                      |
|    \\/     M anipulation  |                                                 |
\*---------------------------------------------------------------------------*/
FoamFile
{
    version     2.0;
    format      ascii;
    class       volScalarField;
    location    "0.51";
    object      p;
}
// * * * * * * * * * * * * * * * * * * * * * * * * * * * * * * * * * * * * * //

dimensions      [0 2 -2 0 0 0 0];

internalField   nonuniform List<scalar> 
43750
(
265.951
265.858
265.819
265.853
265.926
266.016
266.126
266.26
266.42
266.604
266.811
267.041
267.294
267.571
267.87
268.193
268.54
268.91
269.305
269.724
270.167
270.636
271.13
271.65
272.197
272.77
273.371
273.999
274.655
275.339
276.05
276.789
277.554
278.344
279.155
279.985
280.829
281.68
282.53
283.372
284.196
284.99
285.747
286.457
287.115
287.72
288.275
288.786
289.262
289.714
290.148
290.571
290.982
291.374
291.738
292.07
292.367
292.631
292.861
293.061
293.23
293.37
293.484
293.576
293.654
293.734
293.825
293.937
294.043
294.105
294.072
293.888
293.518
292.98
292.352
291.781
291.329
290.943
290.544
290.048
289.388
288.548
287.579
286.58
285.664
284.934
284.47
284.337
284.605
285.354
286.598
288.296
290.388
292.752
295.112
296.986
297.905
297.846
297.174
297.029
265.784
265.752
265.74
265.775
265.844
265.937
266.05
266.187
266.348
266.533
266.74
266.97
267.223
267.499
267.797
268.119
268.464
268.832
269.224
269.64
270.08
270.545
271.035
271.55
272.09
272.657
273.251
273.871
274.518
275.193
275.895
276.624
277.38
278.161
278.965
279.79
280.631
281.485
282.344
283.2
284.045
284.868
285.659
286.408
287.109
287.757
288.352
288.9
289.408
289.885
290.338
290.769
291.177
291.555
291.902
292.215
292.497
292.749
292.972
293.165
293.329
293.46
293.554
293.613
293.655
293.706
293.79
293.891
293.988
294.051
294.036
293.893
293.579
293.087
292.481
291.91
291.454
291.046
290.581
289.946
289.082
288.019
286.853
285.71
284.714
283.962
283.535
283.489
283.857
284.618
285.776
287.342
289.278
291.49
293.764
295.735
296.969
297.237
296.838
296.764
265.676
265.68
265.695
265.736
265.806
265.9
266.015
266.151
266.31
266.492
266.697
266.923
267.172
267.443
267.737
268.053
268.392
268.753
269.138
269.546
269.977
270.432
270.91
271.413
271.939
272.49
273.065
273.665
274.289
274.937
275.609
276.305
277.023
277.762
278.52
279.297
280.088
280.89
281.7
282.513
283.323
284.125
284.912
285.679
286.42
287.131
287.809
288.452
289.062
289.639
290.184
290.692
291.161
291.587
291.966
292.3
292.589
292.839
293.054
293.237
293.391
293.516
293.607
293.668
293.714
293.768
293.847
293.948
294.06
294.159
294.209
294.167
293.995
293.679
293.195
292.573
291.88
291.113
290.227
289.204
288.074
286.912
285.792
284.779
283.923
283.271
282.879
282.799
283.064
283.704
284.726
286.125
287.869
289.883
292.022
294.052
295.673
296.579
296.719
296.616
265.57
265.58
265.603
265.648
265.717
265.81
265.924
266.06
266.218
266.399
266.602
266.828
267.075
267.345
267.637
267.951
268.287
268.646
269.028
269.432
269.859
270.309
270.782
271.278
271.797
272.339
272.903
273.491
274.101
274.733
275.386
276.06
276.753
277.462
278.188
278.926
279.674
280.429
281.187
281.944
282.696
283.439
284.17
284.886
285.586
286.268
286.933
287.583
288.218
288.84
289.448
290.037
290.602
291.135
291.625
292.064
292.445
292.767
293.032
293.244
293.411
293.541
293.639
293.714
293.778
293.852
293.949
294.072
294.216
294.36
294.476
294.528
294.475
294.258
293.827
293.134
292.182
291.029
289.761
288.463
287.199
286.008
284.912
283.931
283.093
282.441
282.025
281.893
282.081
282.613
283.5
284.738
286.299
288.125
290.11
292.115
294.004
295.59
296.443
296.414
265.451
265.463
265.492
265.542
265.614
265.709
265.824
265.961
266.119
266.3
266.502
266.725
266.97
267.237
267.526
267.837
268.169
268.523
268.9
269.298
269.719
270.161
270.626
271.113
271.622
272.154
272.706
273.281
273.876
274.492
275.127
275.781
276.452
277.138
277.838
278.549
279.267
279.991
280.716
281.439
282.156
282.862
283.556
284.235
284.896
285.541
286.169
286.784
287.388
287.984
288.575
289.16
289.739
290.307
290.856
291.378
291.864
292.302
292.685
293.005
293.262
293.459
293.607
293.72
293.82
293.928
294.059
294.215
294.39
294.569
294.722
294.808
294.78
294.568
294.092
293.279
292.133
290.757
289.301
287.882
286.555
285.328
284.203
283.191
282.323
281.637
281.18
280.991
281.101
281.531
282.292
283.383
284.785
286.45
288.298
290.229
292.201
294.189
295.696
295.928
265.317
265.33
265.363
265.416
265.489
265.584
265.699
265.835
265.992
266.17
266.37
266.591
266.834
267.098
267.383
267.69
268.018
268.367
268.738
269.131
269.545
269.981
270.438
270.917
271.416
271.937
272.478
273.039
273.62
274.22
274.838
275.473
276.124
276.788
277.464
278.15
278.843
279.54
280.238
280.934
281.624
282.306
282.975
283.631
284.271
284.894
285.5
286.091
286.668
287.234
287.791
288.34
288.884
289.423
289.956
290.481
290.994
291.487
291.952
292.38
292.761
293.087
293.356
293.575
293.761
293.934
294.115
294.309
294.513
294.707
294.859
294.921
294.843
294.554
293.977
293.052
291.8
290.338
288.825
287.37
286.013
284.756
283.595
282.547
281.643
280.923
280.426
280.184
280.225
280.564
281.214
282.176
283.441
284.973
286.711
288.568
290.507
292.566
294.435
295.079
265.165
265.18
265.214
265.268
265.343
265.437
265.552
265.688
265.844
266.021
266.219
266.438
266.678
266.939
267.221
267.523
267.847
268.192
268.557
268.943
269.351
269.779
270.227
270.696
271.186
271.695
272.224
272.771
273.338
273.922
274.522
275.138
275.769
276.412
277.066
277.728
278.397
279.069
279.743
280.414
281.081
281.741
282.39
283.027
283.651
284.26
284.853
285.431
285.995
286.544
287.08
287.605
288.119
288.624
289.121
289.612
290.098
290.577
291.05
291.511
291.956
292.376
292.765
293.119
293.438
293.729
293.999
294.255
294.491
294.689
294.818
294.829
294.667
294.275
293.597
292.6
291.316
289.851
288.346
286.896
285.534
284.262
283.082
282.014
281.092
280.353
279.83
279.551
279.539
279.805
280.361
281.212
282.354
283.766
285.403
287.189
289.057
290.999
292.877
293.917
264.996
265.011
265.046
265.101
265.176
265.271
265.385
265.52
265.675
265.85
266.046
266.262
266.499
266.756
267.034
267.332
267.651
267.99
268.35
268.729
269.129
269.549
269.989
270.449
270.928
271.426
271.942
272.476
273.028
273.596
274.18
274.778
275.389
276.012
276.644
277.284
277.93
278.58
279.23
279.879
280.524
281.163
281.793
282.414
283.022
283.618
284.2
284.769
285.323
285.864
286.39
286.904
287.403
287.89
288.365
288.828
289.283
289.73
290.173
290.614
291.054
291.493
291.929
292.359
292.778
293.182
293.563
293.91
294.207
294.427
294.539
294.499
294.263
293.788
293.042
292.02
290.754
289.335
287.876
286.458
285.113
283.849
282.675
281.613
280.697
279.959
279.431
279.135
279.09
279.306
279.792
280.554
281.592
282.894
284.429
286.133
287.92
289.696
291.356
292.656
264.809
264.824
264.859
264.915
264.99
265.084
265.198
265.331
265.485
265.658
265.852
266.065
266.299
266.552
266.826
267.119
267.433
267.766
268.12
268.493
268.885
269.297
269.728
270.178
270.646
271.132
271.636
272.157
272.695
273.247
273.815
274.395
274.988
275.591
276.203
276.822
277.447
278.074
278.703
279.331
279.955
280.575
281.187
281.79
282.384
282.966
283.537
284.095
284.641
285.174
285.693
286.2
286.693
287.172
287.637
288.088
288.526
288.953
289.37
289.782
290.193
290.606
291.026
291.456
291.896
292.341
292.781
293.197
293.56
293.831
293.964
293.913
293.642
293.125
292.356
291.347
290.136
288.796
287.411
286.05
284.747
283.519
282.378
281.35
280.465
279.752
279.24
278.949
278.894
279.085
279.528
280.228
281.187
282.399
283.84
285.457
287.154
288.782
290.177
291.561
264.603
264.618
264.653
264.709
264.784
264.878
264.99
265.122
265.274
265.445
265.636
265.847
266.077
266.326
266.596
266.884
267.192
267.52
267.867
268.233
268.617
269.021
269.443
269.883
270.34
270.815
271.307
271.815
272.338
272.875
273.427
273.99
274.565
275.15
275.743
276.342
276.947
277.554
278.163
278.771
279.376
279.977
280.572
281.159
281.737
282.306
282.864
283.411
283.947
284.471
284.984
285.483
285.97
286.444
286.904
287.351
287.783
288.201
288.607
289.003
289.39
289.775
290.161
290.554
290.958
291.375
291.798
292.214
292.594
292.897
293.069
293.055
292.81
292.312
291.567
290.606
289.475
288.233
286.946
285.668
284.436
283.27
282.19
281.22
280.389
279.724
279.251
278.987
278.946
279.138
279.566
280.236
281.148
282.299
283.668
285.208
286.823
288.342
289.536
290.847
264.379
264.394
264.429
264.484
264.559
264.651
264.763
264.893
265.043
265.212
265.4
265.607
265.834
266.079
266.344
266.628
266.93
267.252
267.592
267.951
268.327
268.722
269.135
269.565
270.012
270.476
270.955
271.45
271.959
272.482
273.018
273.565
274.123
274.69
275.265
275.846
276.431
277.02
277.61
278.199
278.786
279.37
279.948
280.519
281.083
281.639
282.185
282.72
283.246
283.76
284.264
284.756
285.236
285.704
286.159
286.602
287.03
287.446
287.847
288.236
288.613
288.981
289.341
289.699
290.057
290.419
290.783
291.142
291.479
291.76
291.942
291.968
291.787
291.364
290.699
289.824
288.792
287.661
286.486
285.314
284.176
283.098
282.102
281.214
280.46
279.864
279.45
279.234
279.229
279.446
279.887
280.558
281.459
282.586
283.918
285.404
286.981
288.43
289.518
290.657
264.137
264.151
264.186
264.241
264.314
264.406
264.516
264.645
264.793
264.959
265.144
265.348
265.571
265.812
266.072
266.35
266.647
266.963
267.296
267.647
268.016
268.402
268.806
269.226
269.662
270.114
270.582
271.063
271.559
272.068
272.588
273.12
273.662
274.212
274.769
275.333
275.901
276.471
277.043
277.615
278.185
278.753
279.315
279.872
280.422
280.964
281.498
282.023
282.538
283.042
283.537
284.02
284.493
284.954
285.403
285.84
286.265
286.677
287.075
287.461
287.833
288.193
288.54
288.875
289.2
289.515
289.82
290.111
290.377
290.6
290.749
290.782
290.653
290.323
289.775
289.024
288.116
287.107
286.053
284.997
283.971
283
282.109
281.321
280.662
280.154
279.819
279.672
279.727
279.993
280.475
281.178
282.103
283.245
284.583
286.07
287.611
289.036
290.119
291.069
263.876
263.89
263.924
263.979
264.051
264.142
264.25
264.377
264.523
264.686
264.869
265.069
265.288
265.525
265.78
266.053
266.344
266.653
266.979
267.323
267.684
268.061
268.455
268.866
269.291
269.732
270.188
270.657
271.139
271.634
272.14
272.657
273.182
273.716
274.258
274.804
275.355
275.909
276.464
277.02
277.574
278.125
278.673
279.216
279.752
280.282
280.804
281.318
281.822
282.318
282.803
283.278
283.743
284.196
284.639
285.07
285.489
285.896
286.29
286.672
287.04
287.394
287.733
288.057
288.363
288.65
288.915
289.154
289.361
289.524
289.625
289.639
289.533
289.275
288.842
288.233
287.471
286.602
285.678
284.744
283.836
282.983
282.207
281.533
280.983
280.579
280.34
280.282
280.418
280.758
281.31
282.076
283.061
284.257
285.644
287.168
288.728
290.162
291.272
292.108
263.597
263.611
263.645
263.698
263.77
263.859
263.966
264.091
264.234
264.395
264.574
264.77
264.985
265.218
265.468
265.735
266.02
266.323
266.642
266.978
267.331
267.7
268.085
268.485
268.9
269.33
269.774
270.231
270.7
271.181
271.673
272.175
272.686
273.205
273.73
274.261
274.796
275.333
275.873
276.412
276.951
277.488
278.021
278.55
279.074
279.591
280.102
280.605
281.1
281.585
282.062
282.529
282.986
283.432
283.868
284.292
284.705
285.106
285.495
285.872
286.235
286.584
286.917
287.232
287.528
287.8
288.044
288.256
288.427
288.552
288.618
288.611
288.514
288.305
287.966
287.488
286.879
286.165
285.385
284.584
283.8
283.066
282.41
281.855
281.423
281.133
281.004
281.051
281.288
281.726
282.373
283.233
284.312
285.601
287.075
288.675
290.292
291.762
292.9
293.739
263.3
263.314
263.347
263.4
263.471
263.558
263.664
263.786
263.927
264.085
264.26
264.453
264.664
264.891
265.137
265.399
265.678
265.973
266.286
266.614
266.959
267.319
267.695
268.085
268.49
268.909
269.341
269.786
270.243
270.711
271.189
271.677
272.173
272.677
273.187
273.703
274.222
274.745
275.269
275.794
276.318
276.84
277.36
277.876
278.387
278.893
279.392
279.884
280.369
280.846
281.314
281.773
282.222
282.661
283.09
283.508
283.915
284.311
284.694
285.065
285.422
285.765
286.092
286.402
286.69
286.954
287.189
287.39
287.549
287.659
287.714
287.703
287.619
287.451
287.188
286.824
286.358
285.803
285.183
284.531
283.883
283.277
282.743
282.307
281.995
281.825
281.814
281.98
282.334
282.89
283.656
284.639
285.841
287.255
288.848
290.554
292.253
293.776
294.956
295.834
262.986
263
263.032
263.084
263.154
263.24
263.343
263.463
263.601
263.756
263.928
264.118
264.324
264.547
264.787
265.043
265.316
265.605
265.911
266.232
266.568
266.92
267.286
267.667
268.061
268.469
268.89
269.323
269.768
270.223
270.688
271.162
271.644
272.134
272.629
273.13
273.635
274.143
274.653
275.163
275.673
276.182
276.689
277.192
277.691
278.185
278.674
279.156
279.631
280.098
280.558
281.009
281.451
281.883
282.306
282.718
283.119
283.509
283.887
284.253
284.605
284.943
285.265
285.569
285.853
286.113
286.345
286.544
286.704
286.819
286.882
286.887
286.83
286.707
286.515
286.251
285.915
285.514
285.059
284.573
284.083
283.621
283.221
282.912
282.723
282.675
282.788
283.08
283.563
284.252
285.157
286.285
287.634
289.194
290.925
292.75
294.538
296.115
297.34
298.264
262.655
262.668
262.7
262.751
262.819
262.904
263.005
263.123
263.258
263.41
263.579
263.764
263.966
264.184
264.419
264.67
264.936
265.219
265.517
265.831
266.159
266.502
266.859
267.23
267.615
268.012
268.422
268.843
269.275
269.718
270.17
270.631
271.1
271.576
272.058
272.544
273.035
273.529
274.025
274.521
275.018
275.514
276.008
276.499
276.986
277.469
277.947
278.419
278.885
279.343
279.794
280.238
280.672
281.098
281.515
281.921
282.317
282.702
283.076
283.437
283.785
284.119
284.437
284.738
285.019
285.278
285.511
285.715
285.883
286.012
286.096
286.132
286.115
286.046
285.925
285.754
285.537
285.279
284.988
284.676
284.362
284.069
283.827
283.665
283.613
283.697
283.941
284.365
284.986
285.818
286.873
288.157
289.664
291.375
293.245
295.18
297.044
298.662
299.919
300.878
262.306
262.319
262.351
262.401
262.468
262.551
262.65
262.765
262.898
263.046
263.212
263.393
263.59
263.804
264.033
264.278
264.539
264.815
265.106
265.412
265.732
266.066
266.415
266.776
267.151
267.538
267.936
268.346
268.767
269.198
269.637
270.085
270.541
271.004
271.472
271.945
272.422
272.902
273.385
273.868
274.352
274.835
275.317
275.796
276.272
276.744
277.211
277.674
278.13
278.58
279.023
279.459
279.887
280.306
280.716
281.118
281.509
281.889
282.259
282.617
282.962
283.293
283.609
283.909
284.191
284.452
284.689
284.901
285.083
285.231
285.343
285.416
285.447
285.439
285.392
285.311
285.204
285.076
284.937
284.796
284.664
284.558
284.499
284.511
284.623
284.861
285.253
285.821
286.588
287.568
288.775
290.212
291.872
293.721
295.706
297.724
299.633
301.263
302.529
303.5
261.941
261.954
261.985
262.034
262.099
262.181
262.278
262.391
262.52
262.666
262.827
263.005
263.198
263.406
263.63
263.87
264.124
264.393
264.677
264.976
265.288
265.614
265.953
266.306
266.67
267.047
267.435
267.834
268.243
268.662
269.089
269.525
269.968
270.417
270.873
271.333
271.797
272.264
272.733
273.204
273.675
274.146
274.616
275.083
275.548
276.01
276.467
276.92
277.367
277.809
278.244
278.672
279.093
279.506
279.911
280.307
280.694
281.071
281.437
281.792
282.135
282.466
282.782
283.083
283.367
283.633
283.878
284.101
284.299
284.471
284.614
284.726
284.809
284.863
284.891
284.899
284.895
284.886
284.883
284.897
284.938
285.018
285.152
285.358
285.658
286.077
286.639
287.371
288.293
289.425
290.778
292.355
294.14
296.098
298.158
300.216
302.128
303.737
304.985
305.939
261.56
261.573
261.603
261.651
261.715
261.794
261.889
262
262.127
262.269
262.427
262.6
262.788
262.992
263.211
263.444
263.693
263.955
264.232
264.523
264.827
265.145
265.476
265.818
266.173
266.54
266.917
267.305
267.703
268.11
268.526
268.95
269.38
269.817
270.26
270.708
271.159
271.613
272.07
272.529
272.988
273.447
273.905
274.361
274.815
275.266
275.714
276.157
276.596
277.029
277.457
277.878
278.292
278.699
279.099
279.49
279.872
280.246
280.609
280.963
281.305
281.635
281.953
282.257
282.546
282.819
283.075
283.312
283.529
283.725
283.901
284.055
284.189
284.305
284.406
284.499
284.591
284.691
284.811
284.961
285.154
285.402
285.717
286.113
286.607
287.217
287.964
288.871
289.957
291.239
292.728
294.421
296.3
298.321
300.41
302.46
304.337
305.898
307.105
308.014
261.163
261.175
261.205
261.252
261.314
261.392
261.485
261.593
261.717
261.856
262.01
262.179
262.363
262.562
262.775
263.003
263.245
263.501
263.771
264.054
264.351
264.66
264.982
265.316
265.661
266.018
266.385
266.762
267.149
267.545
267.949
268.361
268.779
269.204
269.635
270.07
270.509
270.951
271.396
271.842
272.29
272.737
273.184
273.629
274.073
274.514
274.952
275.386
275.816
276.241
276.661
277.075
277.483
277.884
278.278
278.665
279.044
279.414
279.776
280.128
280.47
280.802
281.122
281.43
281.726
282.008
282.276
282.529
282.767
282.99
283.198
283.393
283.576
283.751
283.922
284.095
284.277
284.478
284.707
284.978
285.302
285.692
286.161
286.722
287.389
288.175
289.097
290.17
291.411
292.831
294.435
296.217
298.153
300.197
302.273
304.279
306.092
307.585
308.737
309.584
260.75
260.762
260.791
260.837
260.898
260.974
261.065
261.17
261.291
261.427
261.577
261.742
261.921
262.115
262.323
262.546
262.782
263.031
263.294
263.57
263.859
264.16
264.473
264.798
265.134
265.48
265.838
266.204
266.581
266.965
267.358
267.758
268.165
268.578
268.997
269.42
269.847
270.278
270.71
271.145
271.581
272.017
272.453
272.888
273.321
273.752
274.18
274.606
275.027
275.444
275.856
276.264
276.665
277.061
277.45
277.832
278.208
278.575
278.935
279.287
279.629
279.963
280.287
280.601
280.904
281.196
281.478
281.748
282.008
282.258
282.499
282.733
282.963
283.194
283.429
283.675
283.94
284.231
284.559
284.936
285.372
285.882
286.477
287.171
287.975
288.903
289.966
291.174
292.538
294.063
295.749
297.585
299.543
301.575
303.611
305.553
307.288
308.707
309.797
310.591
260.322
260.334
260.362
260.407
260.467
260.541
260.629
260.732
260.85
260.982
261.129
261.29
261.465
261.654
261.857
262.073
262.303
262.546
262.802
263.07
263.351
263.644
263.949
264.265
264.592
264.929
265.276
265.633
265.998
266.372
266.754
267.143
267.538
267.94
268.347
268.758
269.174
269.592
270.014
270.437
270.861
271.286
271.712
272.136
272.559
272.981
273.4
273.816
274.229
274.638
275.043
275.443
275.839
276.229
276.613
276.991
277.363
277.729
278.087
278.438
278.782
279.118
279.446
279.766
280.077
280.381
280.676
280.964
281.246
281.522
281.795
282.067
282.341
282.623
282.916
283.229
283.567
283.939
284.355
284.824
285.358
285.968
286.666
287.464
288.373
289.403
290.564
291.863
293.305
294.891
296.616
298.463
300.405
302.395
304.367
306.232
307.888
309.234
310.26
311.021
259.88
259.891
259.919
259.962
260.02
260.093
260.179
260.279
260.394
260.523
260.666
260.823
260.993
261.177
261.375
261.586
261.809
262.046
262.295
262.556
262.829
263.114
263.411
263.718
264.035
264.363
264.7
265.047
265.402
265.766
266.137
266.515
266.899
267.289
267.685
268.085
268.489
268.896
269.306
269.718
270.132
270.546
270.96
271.374
271.788
272.199
272.609
273.017
273.421
273.823
274.22
274.614
275.003
275.388
275.767
276.142
276.51
276.873
277.23
277.581
277.926
278.265
278.597
278.923
279.243
279.558
279.867
280.173
280.476
280.777
281.08
281.388
281.703
282.031
282.377
282.747
283.15
283.592
284.084
284.633
285.25
285.944
286.726
287.606
288.592
289.693
290.916
292.265
293.742
295.344
297.062
298.88
300.768
302.685
304.57
306.344
307.916
309.19
310.153
310.882
259.422
259.434
259.46
259.503
259.56
259.63
259.714
259.812
259.924
260.049
260.189
260.341
260.507
260.686
260.879
261.084
261.301
261.531
261.774
262.028
262.293
262.57
262.858
263.157
263.465
263.784
264.112
264.448
264.793
265.146
265.507
265.874
266.247
266.627
267.011
267.4
267.793
268.189
268.588
268.989
269.391
269.795
270.199
270.603
271.006
271.409
271.809
272.208
272.604
272.998
273.388
273.775
274.158
274.537
274.912
275.282
275.648
276.008
276.364
276.715
277.061
277.402
277.739
278.071
278.399
278.725
279.048
279.37
279.693
280.018
280.349
280.689
281.041
281.41
281.802
282.224
282.682
283.184
283.738
284.353
285.038
285.802
286.651
287.595
288.639
289.788
291.047
292.417
293.896
295.479
297.156
298.91
300.714
302.529
304.305
305.973
307.45
308.649
309.548
310.238
258.951
258.962
258.988
259.029
259.085
259.153
259.235
259.33
259.439
259.562
259.697
259.845
260.007
260.181
260.368
260.568
260.779
261.003
261.238
261.485
261.744
262.013
262.292
262.582
262.882
263.191
263.51
263.837
264.172
264.515
264.865
265.221
265.584
265.952
266.326
266.703
267.085
267.47
267.858
268.249
268.641
269.034
269.428
269.821
270.215
270.608
271
271.39
271.778
272.163
272.546
272.926
273.303
273.676
274.046
274.412
274.774
275.133
275.487
275.838
276.184
276.528
276.868
277.206
277.543
277.878
278.213
278.551
278.892
279.239
279.595
279.963
280.348
280.754
281.186
281.651
282.155
282.707
283.313
283.981
284.72
285.536
286.438
287.429
288.513
289.694
290.972
292.344
293.806
295.35
296.964
298.631
300.329
302.025
303.674
305.22
306.592
307.709
308.541
309.187
258.466
258.477
258.502
258.542
258.596
258.663
258.742
258.835
258.941
259.06
259.192
259.336
259.493
259.663
259.844
260.038
260.244
260.461
260.69
260.93
261.181
261.442
261.713
261.995
262.286
262.586
262.895
263.213
263.538
263.871
264.21
264.557
264.909
265.266
265.629
265.996
266.367
266.741
267.119
267.498
267.88
268.262
268.646
269.03
269.414
269.797
270.18
270.561
270.941
271.319
271.694
272.067
272.438
272.805
273.17
273.532
273.89
274.246
274.598
274.948
275.296
275.641
275.985
276.328
276.671
277.015
277.361
277.712
278.07
278.436
278.813
279.207
279.619
280.056
280.522
281.023
281.566
282.157
282.803
283.512
284.291
285.146
286.083
287.106
288.216
289.414
290.696
292.059
293.492
294.987
296.529
298.101
299.684
301.249
302.763
304.178
305.434
306.461
307.221
307.819
257.968
257.978
258.003
258.042
258.094
258.159
258.236
258.327
258.429
258.545
258.673
258.813
258.966
259.131
259.307
259.495
259.695
259.906
260.128
260.361
260.605
260.858
261.122
261.395
261.677
261.969
262.269
262.577
262.892
263.215
263.545
263.88
264.222
264.569
264.921
265.278
265.638
266.002
266.368
266.737
267.108
267.481
267.854
268.228
268.603
268.977
269.35
269.722
270.094
270.463
270.831
271.197
271.561
271.923
272.282
272.639
272.994
273.346
273.697
274.045
274.393
274.739
275.085
275.432
275.781
276.133
276.489
276.851
277.222
277.604
278
278.414
278.85
279.312
279.805
280.335
280.907
281.529
282.206
282.944
283.751
284.631
285.589
286.628
287.749
288.95
290.225
291.568
292.967
294.408
295.877
297.354
298.822
300.258
301.634
302.914
304.049
304.981
305.666
306.212
257.456
257.466
257.49
257.528
257.579
257.642
257.717
257.805
257.905
258.017
258.141
258.278
258.426
258.586
258.757
258.94
259.134
259.339
259.554
259.78
260.016
260.262
260.518
260.783
261.057
261.339
261.63
261.929
262.235
262.548
262.867
263.193
263.525
263.861
264.203
264.549
264.899
265.252
265.608
265.966
266.327
266.689
267.053
267.417
267.781
268.146
268.51
268.873
269.236
269.598
269.958
270.317
270.674
271.029
271.383
271.734
272.085
272.433
272.781
273.128
273.474
273.821
274.169
274.519
274.871
275.229
275.592
275.964
276.345
276.74
277.151
277.581
278.035
278.517
279.031
279.583
280.177
280.821
281.518
282.276
283.099
283.992
284.958
286
287.117
288.308
289.565
290.879
292.237
293.623
295.019
296.407
297.766
299.079
300.323
301.472
302.486
303.32
303.93
304.423
256.932
256.942
256.965
257.002
257.051
257.113
257.186
257.271
257.368
257.477
257.597
257.73
257.873
258.028
258.195
258.372
258.56
258.759
258.968
259.187
259.416
259.654
259.902
260.159
260.424
260.698
260.98
261.269
261.566
261.869
262.179
262.495
262.816
263.143
263.474
263.81
264.149
264.492
264.837
265.185
265.536
265.887
266.241
266.595
266.95
267.305
267.659
268.014
268.368
268.721
269.073
269.424
269.774
270.123
270.47
270.817
271.162
271.507
271.851
272.195
272.54
272.886
273.234
273.585
273.94
274.301
274.67
275.048
275.438
275.842
276.263
276.706
277.173
277.668
278.197
278.763
279.372
280.029
280.738
281.505
282.334
283.229
284.192
285.225
286.327
287.495
288.722
289.998
291.31
292.638
293.964
295.267
296.528
297.728
298.851
299.875
300.774
301.512
302.048
302.489
256.396
256.405
256.428
256.464
256.512
256.571
256.642
256.724
256.818
256.924
257.041
257.169
257.309
257.459
257.62
257.792
257.974
258.167
258.369
258.582
258.803
259.035
259.275
259.523
259.781
260.046
260.319
260.599
260.886
261.18
261.48
261.786
262.098
262.414
262.735
263.06
263.389
263.721
264.056
264.394
264.734
265.076
265.419
265.763
266.108
266.453
266.799
267.144
267.489
267.834
268.178
268.521
268.863
269.205
269.545
269.886
270.225
270.565
270.905
271.245
271.587
271.931
272.278
272.629
272.985
273.348
273.719
274.101
274.496
274.906
275.334
275.784
276.259
276.763
277.299
277.873
278.489
279.152
279.864
280.632
281.458
282.345
283.295
284.308
285.384
286.519
287.706
288.935
290.193
291.46
292.716
293.94
295.11
296.209
297.222
298.134
298.925
299.573
300.037
300.431
255.848
255.857
255.879
255.913
255.96
256.017
256.086
256.166
256.257
256.36
256.473
256.597
256.732
256.878
257.034
257.2
257.377
257.563
257.76
257.965
258.18
258.404
258.636
258.877
259.126
259.383
259.647
259.918
260.196
260.48
260.771
261.067
261.368
261.675
261.985
262.3
262.619
262.941
263.266
263.593
263.923
264.254
264.587
264.921
265.256
265.591
265.927
266.263
266.599
266.935
267.27
267.605
267.939
268.273
268.607
268.94
269.274
269.608
269.942
270.278
270.616
270.957
271.301
271.65
272.005
272.367
272.739
273.122
273.518
273.93
274.361
274.814
275.292
275.798
276.337
276.913
277.528
278.188
278.896
279.656
280.469
281.34
282.267
283.252
284.293
285.386
286.524
287.698
288.894
290.095
291.28
292.427
293.514
294.522
295.436
296.248
296.941
297.505
297.904
298.254
255.288
255.297
255.318
255.352
255.396
255.452
255.519
255.596
255.684
255.784
255.893
256.014
256.144
256.286
256.437
256.598
256.769
256.949
257.139
257.338
257.545
257.762
257.987
258.22
258.46
258.709
258.964
259.226
259.495
259.77
260.051
260.338
260.629
260.926
261.226
261.531
261.839
262.151
262.465
262.782
263.101
263.423
263.745
264.069
264.394
264.72
265.046
265.372
265.698
266.025
266.351
266.677
267.003
267.329
267.655
267.981
268.307
268.634
268.963
269.293
269.625
269.961
270.301
270.646
270.998
271.357
271.727
272.108
272.502
272.913
273.343
273.794
274.27
274.774
275.309
275.879
276.488
277.138
277.833
278.577
279.37
280.215
281.112
282.06
283.058
284.101
285.182
286.293
287.421
288.551
289.662
290.732
291.738
292.662
293.489
294.21
294.815
295.303
295.643
295.952
254.717
254.726
254.746
254.779
254.822
254.876
254.94
255.015
255.101
255.197
255.303
255.419
255.546
255.682
255.828
255.984
256.149
256.324
256.507
256.699
256.9
257.11
257.327
257.552
257.785
258.025
258.271
258.525
258.785
259.051
259.322
259.599
259.88
260.167
260.457
260.752
261.05
261.351
261.655
261.962
262.271
262.581
262.894
263.207
263.522
263.837
264.153
264.47
264.786
265.103
265.42
265.737
266.054
266.371
266.688
267.006
267.325
267.644
267.965
268.288
268.614
268.944
269.278
269.617
269.963
270.318
270.682
271.058
271.448
271.854
272.278
272.723
273.192
273.688
274.214
274.772
275.367
276.001
276.676
277.396
278.161
278.973
279.831
280.735
281.681
282.666
283.684
284.725
285.779
286.831
287.863
288.854
289.782
290.626
291.372
292.012
292.538
292.956
293.242
293.515
254.135
254.143
254.163
254.195
254.237
254.289
254.351
254.424
254.506
254.599
254.702
254.814
254.936
255.068
255.209
255.36
255.52
255.688
255.865
256.051
256.245
256.447
256.657
256.874
257.099
257.331
257.569
257.814
258.064
258.321
258.583
258.85
259.122
259.399
259.679
259.963
260.251
260.542
260.836
261.132
261.43
261.731
262.032
262.335
262.64
262.945
263.25
263.557
263.863
264.17
264.477
264.784
265.092
265.399
265.708
266.016
266.326
266.637
266.95
267.265
267.582
267.904
268.23
268.562
268.901
269.248
269.605
269.973
270.354
270.751
271.166
271.601
272.058
272.541
273.051
273.592
274.167
274.777
275.426
276.114
276.843
277.614
278.426
279.277
280.165
281.086
282.033
282.998
283.971
284.94
285.887
286.795
287.641
288.407
289.075
289.639
290.092
290.447
290.683
290.923
253.543
253.551
253.57
253.601
253.641
253.691
253.752
253.822
253.901
253.991
254.09
254.199
254.317
254.444
254.58
254.726
254.88
255.042
255.213
255.393
255.58
255.775
255.977
256.187
256.404
256.627
256.857
257.093
257.335
257.582
257.835
258.092
258.355
258.621
258.892
259.166
259.443
259.724
260.007
260.293
260.581
260.87
261.161
261.454
261.748
262.042
262.337
262.633
262.929
263.226
263.522
263.819
264.117
264.414
264.712
265.011
265.311
265.613
265.916
266.221
266.529
266.842
267.158
267.481
267.81
268.146
268.493
268.85
269.22
269.605
270.006
270.426
270.867
271.331
271.822
272.34
272.888
273.469
274.083
274.733
275.419
276.142
276.9
277.691
278.513
279.362
280.23
281.112
281.998
282.876
283.733
284.551
285.311
285.995
286.586
287.076
287.461
287.755
287.944
288.154
252.941
252.948
252.967
252.996
253.035
253.084
253.142
253.209
253.286
253.373
253.469
253.573
253.687
253.81
253.941
254.082
254.23
254.387
254.552
254.725
254.905
255.093
255.288
255.49
255.699
255.914
256.136
256.363
256.596
256.834
257.078
257.326
257.578
257.835
258.096
258.36
258.627
258.897
259.17
259.445
259.722
260.001
260.281
260.563
260.846
261.129
261.414
261.699
261.984
262.27
262.555
262.842
263.128
263.415
263.703
263.991
264.28
264.571
264.863
265.158
265.455
265.756
266.062
266.372
266.689
267.014
267.347
267.691
268.046
268.415
268.799
269.2
269.62
270.061
270.526
271.015
271.531
272.076
272.65
273.255
273.891
274.558
275.254
275.978
276.726
277.495
278.278
279.07
279.86
280.64
281.397
282.118
282.785
283.381
283.89
284.305
284.62
284.854