/*--------------------------------*- C++ -*----------------------------------*\
| =========                 |                                                 |
| \\      /  F ield         | OpenFOAM: The Open Source CFD Toolbox           |
|  \\    /   O peration     | Version:  4.1                                   |
|   \\  /    A nd           | Web:      www.OpenFOAM.org                      |
|    \\/     M anipulation  |                                                 |
\*---------------------------------------------------------------------------*/
FoamFile
{
    version     2.0;
    format      ascii;
    class       surfaceScalarField;
    location    "0.51";
    object      phi;
}
// * * * * * * * * * * * * * * * * * * * * * * * * * * * * * * * * * * * * * //

dimensions      [0 3 -1 0 0 0 0];

internalField   nonuniform List<scalar> 
87025
(
0.0199626
3.73915e-05
0.0199022
6.04113e-05
0.0198285
7.37242e-05
0.0197431
8.53349e-05
0.0196468
9.63327e-05
0.0195402
0.000106613
0.0194239
0.000116287
0.0192983
0.000125629
0.0191634
0.000134841
0.0190194
0.000144016
0.0188662
0.000153207
0.0187037
0.000162466
0.0185319
0.000171851
0.0183505
0.000181415
0.0181593
0.00019121
0.017958
0.000201288
0.0177463
0.000211704
0.0175238
0.000222517
0.01729
0.000233793
0.0170444
0.0002456
0.0167864
0.000258018
0.0165152
0.000271132
0.0162302
0.000285039
0.0159303
0.000299845
0.0156147
0.000315669
0.015282
0.000332642
0.0149311
0.000350905
0.0145605
0.000370611
0.0141686
0.000391918
0.0137536
0.000414986
0.0133136
0.000439965
0.0128467
0.000466982
0.0123505
0.000496121
0.0118231
0.000527392
0.0112624
0.000560699
0.0106666
0.000595802
0.0100344
0.000632253
0.00936505
0.000669347
0.00865897
0.000706072
0.00791791
0.000741067
0.0071453
0.00077261
0.00634665
0.00079865
0.00552976
0.000816885
0.00470484
0.000824927
0.00388431
0.000820527
0.00308243
0.000801877
0.00231447
0.000767959
0.00159555
0.000718923
0.000939142
0.000656409
0.000355449
0.000583693
-0.000150593
0.000506042
-0.00058064
0.000430047
-0.000943031
0.000362391
-0.00125001
0.000306984
-0.00151441
0.000264396
-0.00174575
0.000231341
-0.00195003
0.000204283
-0.00213124
0.000181203
-0.00229281
0.000161576
-0.00243777
0.000144959
-0.00257117
0.000133392
-0.00270243
0.000131268
-0.00283863
0.000136202
-0.00297099
0.000132354
-0.00306841
9.74202e-05
-0.00307914
1.07323e-05
-0.00298418
-9.4956e-05
-0.00278323
-0.000200959
-0.00248128
-0.000301943
-0.00208593
-0.000395356
-0.001614
-0.000471931
-0.00109573
-0.00051827
-0.000588399
-0.000507326
-0.000192083
-0.000396317
-1.73016e-05
-0.000174781
-0.000168641
0.00015134
-0.000677901
0.00050926
-0.00149792
0.000820022
-0.00258934
0.00109142
-0.00387292
0.00128357
-0.00524407
0.00137115
-0.00659817
0.0013541
-0.00784588
0.00124771
-0.00892258
0.00107671
-0.0097889
0.000866321
-0.0104229
0.000633964
-0.0108121
0.000389232
-0.010949
0.000136942
-0.0108523
-9.6712e-05
-0.0105454
-0.000306944
-0.0100194
-0.000526025
-0.00925263
-0.000766735
-0.00821814
-0.00103449
-0.00689091
-0.00132722
-0.00526368
-0.00162724
-0.0033867
-0.00187698
-0.00146119
-0.00192551
5.2856e-05
-0.00151405
0.000650775
-0.000597919
0.000650775
0.0200268
1.05996e-05
0.0200567
3.05444e-05
0.0200856
4.47392e-05
0.0201138
5.71409e-05
0.0201407
6.94891e-05
0.0201655
8.17594e-05
0.020188
9.38363e-05
0.0202077
0.000105871
0.0202245
0.000118053
0.0202381
0.000130486
0.020248
0.000143227
0.0202542
0.000156332
0.0202562
0.000169862
0.0202537
0.000183884
0.0202464
0.000198463
0.0202341
0.000213668
0.0202162
0.000229578
0.0201924
0.000246279
0.0201623
0.00026387
0.0201255
0.000282463
0.0200813
0.000302188
0.0200293
0.00032319
0.0199687
0.000345639
0.0198988
0.000369731
0.0198188
0.00039569
0.0197276
0.000423776
0.0196242
0.000454285
0.0195073
0.000487555
0.0193752
0.000523965
0.0192263
0.000563942
0.0190583
0.000607948
0.0188688
0.00065648
0.0186549
0.000710049
0.0184131
0.000769151
0.0181396
0.000834228
0.0178298
0.000905607
0.0174786
0.000983415
0.0170805
0.00106747
0.0166294
0.00115718
0.0161191
0.00125137
0.0155435
0.00134818
0.0148972
0.00144498
0.0141758
0.0015383
0.0133768
0.0016239
0.0125003
0.001697
0.0115497
0.00175255
0.0105319
0.00178572
0.0094584
0.00179242
0.00834498
0.00176982
0.00721181
0.00171686
0.00608299
0.00163487
0.00498588
0.00152716
0.003949
0.00139926
0.002997
0.00125899
0.00214618
0.00111522
0.00140085
0.000976669
0.000754579
0.000850554
0.000194731
0.000741051
-0.000292745
0.000649053
-0.000720383
0.000572597
-0.00109751
0.000510521
-0.00142909
0.000462841
-0.00171606
0.000423181
-0.00195703
0.000373318
-0.00215041
0.000290798
-0.00230829
0.000168613
-0.00242641
2.31701e-05
-0.00249154
-0.000135834
-0.00250161
-0.000291873
-0.00246969
-0.000427275
-0.00242562
-0.000516002
-0.00241127
-0.000532622
-0.00247707
-0.000441523
-0.0026884
-0.00018499
-0.00310905
0.00024587
-0.00376487
0.00080716
-0.00466756
0.00141195
-0.00577697
0.00192944
-0.00695761
0.00227205
-0.00807241
0.00239838
-0.00902138
0.00232012
-0.00975474
0.00208747
-0.0102712
0.00176414
-0.0106003
0.00140586
-0.010784
0.00104996
-0.0108648
0.000714843
-0.0108766
0.000400993
-0.01084
0.000100319
-0.0107255
-0.000211214
-0.0104862
-0.000546257
-0.0100894
-0.000922787
-0.00951018
-0.00134596
-0.00872203
-0.00182264
-0.00769593
-0.00235333
-0.0064069
-0.00291626
-0.00485661
-0.00342727
-0.00311126
-0.00367085
-0.00136629
-0.00325902
-0.000166101
-0.00179811
0.000484674
0.02
1.06291e-05
0.0199983
3.22649e-05
0.019992
5.09401e-05
0.0199815
6.77171e-05
0.019967
8.3983e-05
0.0199487
0.000100062
0.0199266
0.000115897
0.0199009
0.000131565
0.0198717
0.000147227
0.0198392
0.000163005
0.0198035
0.000178968
0.0197646
0.000195173
0.0197228
0.000211684
0.0196781
0.000228566
0.0196307
0.000245887
0.0195807
0.00026372
0.0195281
0.000282143
0.0194731
0.000301243
0.0194159
0.000321117
0.0193565
0.000341878
0.019295
0.000363653
0.0192316
0.000386588
0.0191664
0.000410852
0.0190995
0.000436639
0.019031
0.000464175
0.0189611
0.000493722
0.0188898
0.000525584
0.0188172
0.000560112
0.0187435
0.000597712
0.0186685
0.000638853
0.0185924
0.000684067
0.0185149
0.000733961
0.0184358
0.000789211
0.0183544
0.00085056
0.0182698
0.000918804
0.0181806
0.000994769
0.0180848
0.00107926
0.0179793
0.001173
0.0178599
0.00127652
0.0177212
0.00139005
0.0175561
0.00151336
0.0173555
0.00164555
0.0171089
0.00178489
0.0168041
0.00192866
0.016428
0.00207313
0.0159671
0.00221351
0.0154086
0.00234418
0.014742
0.00245897
0.0139603
0.00255152
0.0130615
0.00261574
0.0120501
0.00264626
0.0109386
0.00263864
0.00974797
0.00258989
0.00850782
0.00249915
0.00725471
0.00236832
0.00602862
0.00220276
0.00486754
0.00201163
0.00380151
0.00180708
0.00284804
0.00160253
0.00201082
0.00140981
0.00128376
0.00123759
0.000657283
0.00108931
0.000119939
0.000960525
-0.000344357
0.000837614
-0.000754638
0.000701079
-0.00112515
0.000539126
-0.00145605
0.000354069
-0.00174696
0.000155078
-0.00200732
-3.1513e-05
-0.00225174
-0.000182854
-0.00252265
-0.000245092
-0.00287311
-0.000182162
-0.00335231
3.76761e-05
-0.0039634
0.000426097
-0.00470715
0.000989616
-0.00555091
0.00165092
-0.00641606
0.0022771
-0.00721633
0.00272971
-0.00787577
0.00293149
-0.00836253
0.00288514
-0.00869621
0.0026538
-0.00892944
0.00232069
-0.00911863
0.00195333
-0.00930084
0.00158807
-0.00948474
0.00123385
-0.00965405
0.000884156
-0.00977976
0.000526701
-0.00982717
0.000147726
-0.00977552
-0.000262857
-0.00960774
-0.000714037
-0.00931747
-0.00121306
-0.00889632
-0.00176711
-0.0083344
-0.00238456
-0.00761682
-0.00307091
-0.00671725
-0.00381583
-0.00558978
-0.00455474
-0.00417466
-0.00508598
-0.00248742
-0.00494625
-0.000870015
-0.00341551
-0.00038534
0.0199987
1.18868e-05
0.0199953
3.57045e-05
0.019988
5.82619e-05
0.0199761
7.95541e-05
0.0199599
0.00010026
0.0199392
0.000120759
0.019914
0.000141101
0.0198842
0.000161324
0.0198499
0.000181542
0.019811
0.000201866
0.0197676
0.000222377
0.0197197
0.000243134
0.0196671
0.000264201
0.0196101
0.000285642
0.0195484
0.000307524
0.0194822
0.000329917
0.0194115
0.000352893
0.0193362
0.000376533
0.0192564
0.000400925
0.0191721
0.000426168
0.0190834
0.000452372
0.0189903
0.000479662
0.018893
0.000508181
0.0187915
0.000538089
0.0186861
0.000569569
0.018577
0.000602832
0.0184645
0.000638116
0.0183489
0.000675693
0.0182308
0.000715875
0.0181106
0.000759011
0.0179892
0.000805501
0.0178673
0.000855789
0.0177462
0.000910376
0.0176269
0.000969816
0.017511
0.00103472
0.0174
0.00110574
0.0172957
0.00118359
0.0171997
0.00126902
0.0171134
0.00136278
0.0170378
0.00146561
0.016973
0.00157818
0.0169176
0.00170101
0.0168681
0.00183437
0.0168186
0.00197813
0.0167601
0.00213164
0.0166801
0.0022935
0.0165629
0.00246141
0.0163898
0.00263209
0.0161401
0.00280113
0.0157929
0.00296299
0.0153281
0.00311108
0.0147289
0.00323778
0.0139842
0.00333465
0.0130904
0.0033929
0.0120546
0.00340412
0.0108958
0.0033616
0.00964559
0.00326181
0.0083468
0.00310588
0.00704872
0.0029006
0.00580016
0.00265836
0.00464196
0.00239579
0.00360091
0.00213036
0.00268608
0.00187536
0.00188867
0.00163502
0.00118624
0.0014035
0.000554383
0.00117098
-2.29642e-05
0.000931416
-0.000554946
0.00068706
-0.00104466
0.000458202
-0.00151291
0.000285392
-0.00198629
0.000228291
-0.00251032
0.000341868
-0.00312468
0.000652042
-0.00383968
0.00114109
-0.0046047
0.00175464
-0.00534264
0.00238886
-0.00597424
0.00290871
-0.00644988
0.00320534
-0.00676961
0.00325122
-0.00698168
0.00309722
-0.00715498
0.0028271
-0.00734424
0.00250996
-0.00757019
0.00217928
-0.00782122
0.0018391
-0.00806785
0.00148048
-0.00827777
0.00109407
-0.00842515
0.000674086
-0.0084936
0.000216178
-0.00847333
-0.000283132
-0.00835835
-0.000829018
-0.00814383
-0.00142758
-0.00782748
-0.00208346
-0.00741151
-0.00280053
-0.00690151
-0.00358091
-0.00629608
-0.00442127
-0.00555816
-0.00529266
-0.00457503
-0.00606911
-0.00317472
-0.00634656
-0.00136953
-0.0052207
-0.00175487
0.0199985
1.341e-05
0.019994
4.02131e-05
0.0199858
6.64467e-05
0.0199734
9.19281e-05
0.0199568
0.000116899
0.0199359
0.000141642
0.0199107
0.000166269
0.0198812
0.000190834
0.0198473
0.000215421
0.0198091
0.000240132
0.0197664
0.000265054
0.0197193
0.000290258
0.0196677
0.000315813
0.0196115
0.00034179
0.0195508
0.000368262
0.0194854
0.000395305
0.0194153
0.000422998
0.0193404
0.000451427
0.0192606
0.000480684
0.0191759
0.000510871
0.0190862
0.0005421
0.0189914
0.000574494
0.0188913
0.000608191
0.0187861
0.000643343
0.0186755
0.000680121
0.0185597
0.000718712
0.0184384
0.000759327
0.0183119
0.000802196
0.0181802
0.000847574
0.0180435
0.000895737
0.017902
0.000946987
0.0177562
0.00100165
0.0176065
0.00106005
0.0174537
0.00112257
0.0172989
0.00118956
0.0171433
0.00126139
0.0169884
0.00133844
0.0168364
0.00142106
0.0166895
0.00150961
0.0165507
0.00160444
0.016423
0.00170589
0.0163097
0.00181435
0.0162138
0.00193022
0.016138
0.00205399
0.0160834
0.0021862
0.0160495
0.00232744
0.0160326
0.00247826
0.0160257
0.00263901
0.0160173
0.00280957
0.0159912
0.00298906
0.0159269
0.00317537
0.0157999
0.00336472
0.0155834
0.00355124
0.0152495
0.0037267
0.0147731
0.00388061
0.014134
0.00400066
0.013322
0.0040738
0.0123401
0.00408779
0.0112075
0.0040332
0.00996033
0.00390555
0.00864898
0.00370714
0.00733152
0.00344782
0.00606317
0.00314371
0.00488443
0.00281377
0.00381303
0.0024749
0.00284547
0.00213855
0.00196636
0.00181053
0.00115831
0.00149511
0.000410498
0.00120601
-0.000282348
0.000978238
-0.000926961
0.000872904
-0.00154406
0.000958963
-0.00216339
0.00127138
-0.00280146
0.00177916
-0.00343133
0.00238451
-0.00399655
0.00295407
-0.00444799
0.00336015
-0.00477557
0.00353293
-0.00501301
0.00348865
-0.0052176
0.00330181
-0.00543851
0.00304801
-0.00569558
0.00276703
-0.00597939
0.00246309
-0.0062649
0.00212461
-0.0065259
0.00174148
-0.00674266
0.00131083
-0.00690262
0.00083405
-0.00699804
0.000311591
-0.00702235
-0.00025882
-0.00696986
-0.000881504
-0.00683463
-0.00156281
-0.00661199
-0.0023061
-0.00630174
-0.00311078
-0.00591273
-0.00396992
-0.00546304
-0.00487096
-0.00495919
-0.00579651
-0.00432998
-0.00669832
-0.00333296
-0.00734358
-0.00167959
-0.00687407
-0.00343446
0.0199983
1.51087e-05
0.0199932
4.52995e-05
0.0199845
7.51789e-05
0.0199718
0.000104614
0.019955
0.000133679
0.0199341
0.000162549
0.019909
0.000191345
0.0198797
0.000220132
0.0198462
0.000248983
0.0198083
0.000277983
0.0197662
0.000307218
0.0197197
0.000336764
0.0196688
0.000366692
0.0196135
0.000397077
0.0195538
0.000427995
0.0194895
0.000459527
0.0194208
0.000491757
0.0193474
0.000524775
0.0192694
0.000558678
0.0191867
0.000593574
0.0190993
0.000629577
0.0190069
0.000666814
0.0189097
0.000705425
0.0188075
0.000745563
0.0187002
0.000787396
0.0185878
0.000831109
0.0184702
0.000876903
0.0183474
0.000924998
0.0182194
0.000975629
0.0180861
0.00102905
0.0179475
0.00108552
0.0178038
0.00114533
0.0176552
0.00120874
0.0175017
0.00127605
0.0173437
0.00134751
0.0171817
0.00142337
0.0170163
0.00150384
0.0168483
0.00158907
0.0166788
0.00167917
0.016509
0.00177416
0.0163409
0.001874
0.0161767
0.00197863
0.0160189
0.00208793
0.0158711
0.00220187
0.0157367
0.00232052
0.01562
0.00244417
0.0155249
0.00257343
0.0154546
0.00270928
0.0154111
0.00285309
0.0153937
0.00300646
0.015398
0.00317104
0.0154147
0.00334801
0.0154285
0.00353747
0.0154175
0.00373772
0.0153536
0.00394446
0.0152041
0.00415017
0.014934
0.00434386
0.0145106
0.00451127
0.0139079
0.00463585
0.013113
0.00470046
0.0121303
0.00468979
0.0109849
0.00459328
0.00972077
0.00440781
0.00839502
0.00413951
0.00706626
0.00380367
0.00578256
0.00342225
0.00457342
0.00301967
0.00344931
0.00261922
0.00241039
0.00224493
0.00145893
0.0019297
0.000606445
0.00172539
-0.000135379
0.00170079
-0.000773846
0.00190984
-0.00132918
0.00233449
-0.00181961
0.00287494
-0.00224616
0.00338063
-0.00260356
0.00371755
-0.002901
0.00383037
-0.00316629
0.00375394
-0.00343149
0.00356701
-0.00371555
0.00333207
-0.00401789
0.00306937
-0.00432426
0.00276946
-0.00461681
0.00241715
-0.00488085
0.00200553
-0.00510653
0.00153651
-0.00528725
0.00101477
-0.0054181
0.000442442
-0.00549427
-0.000182643
-0.00551141
-0.000864366
-0.00546395
-0.00161027
-0.00534481
-0.00242523
-0.00514678
-0.00330882
-0.00486714
-0.00424956
-0.00451641
-0.00522168
-0.00412145
-0.00619147
-0.00368466
-0.00713511
-0.00304065
-0.00798759
-0.00175458
-0.00816015
-0.00518904
0.0199982
1.6899e-05
0.0199929
5.06507e-05
0.0199838
8.42085e-05
0.0199709
0.000117504
0.0199541
0.000150563
0.0199331
0.000183488
0.0199081
0.000216377
0.0198789
0.000249302
0.0198456
0.00028233
0.019808
0.000315537
0.0197662
0.000349002
0.0197202
0.000382804
0.0196699
0.000417016
0.0196152
0.000451715
0.0195562
0.000486979
0.0194929
0.000522892
0.0194251
0.00055954
0.0193529
0.000597016
0.0192761
0.000635419
0.0191948
0.000674855
0.019109
0.000715442
0.0190185
0.000757305
0.0189233
0.000800581
0.0188235
0.000845421
0.0187189
0.000891988
0.0186095
0.000940458
0.0184954
0.000991024
0.0183765
0.00104389
0.0182529
0.00109928
0.0181245
0.00115742
0.0179914
0.00121857
0.0178538
0.00128296
0.0177117
0.00135085
0.0175653
0.00142249
0.0174147
0.00149811
0.0172601
0.00157791
0.0171019
0.00166207
0.0169403
0.0017507
0.0167756
0.00184384
0.0166083
0.00194148
0.0164388
0.00204348
0.0162678
0.00214963
0.0160961
0.00225964
0.0159248
0.00237314
0.0157556
0.00248976
0.0155906
0.00260918
0.0154327
0.00273127
0.0152859
0.00285612
0.0151547
0.00298428
0.0150444
0.00311679
0.0149602
0.00325525
0.0149063
0.00340185
0.0148847
0.00355911
0.0148928
0.00372955
0.0149223
0.00391502
0.0149566
0.00411586
0.0149707
0.00432978
0.0149311
0.00455086
0.0147982
0.00476869
0.0145305
0.00496818
0.0140901
0.00513026
0.0134496
0.00523374
0.0125992
0.0052582
0.0115509
0.00518784
0.0103391
0.00501542
0.00901619
0.0047452
0.0076422
0.00439366
0.00627365
0.00398776
0.00495625
0.00356233
0.00372628
0.00315967
0.00261874
0.00283293
0.00167122
0.0026483
0.00091201
0.00266906
0.000334469
0.00291203
-0.000101747
0.00331116
-0.000451347
0.00373023
-0.000760775
0.00402698
-0.00106035
0.00412995
-0.00136525
0.00405884
-0.00168003
0.00388179
-0.00200226
0.00365429
-0.00232491
0.00339202
-0.00263873
0.00308328
-0.00293498
0.0027134
-0.0032066
0.00227715
-0.00344804
0.00177795
-0.00365476
0.00122148
-0.00382326
0.000610941
-0.00395025
-5.56468e-05
-0.00403327
-0.000781346
-0.00406794
-0.00157561
-0.00404795
-0.00244522
-0.0039637
-0.00339307
-0.00380334
-0.00440992
-0.00355962
-0.00546539
-0.00324517
-0.00650593
-0.00289661
-0.00748366
-0.00247973
-0.00840448
-0.00161732
-0.00902256
-0.00680636
0.0199982
1.87301e-05
0.0199927
5.61294e-05
0.0199835
9.33979e-05
0.0199705
0.000130511
0.0199536
0.000167485
0.0199327
0.000204385
0.0199078
0.000241289
0.0198788
0.000278266
0.0198457
0.000315383
0.0198086
0.00035271
0.0197673
0.000390324
0.0197218
0.0004283
0.0196721
0.000466715
0.0196181
0.000505644
0.0195599
0.000545169
0.0194975
0.000585373
0.0194307
0.000626345
0.0193595
0.000668177
0.0192839
0.000710968
0.019204
0.000754826
0.0191195
0.000799865
0.0190306
0.000846208
0.0189372
0.000893989
0.0188393
0.000943351
0.0187368
0.000994449
0.0186299
0.00104745
0.0185183
0.00110253
0.0184023
0.00115989
0.0182819
0.00121971
0.0181571
0.00128222
0.0180281
0.00134763
0.0178948
0.00141616
0.0177577
0.00148803
0.0176167
0.00156346
0.0174722
0.00164264
0.0173243
0.00172577
0.0171734
0.00181299
0.0170197
0.0019044
0.0168635
0.00200006
0.016705
0.00209997
0.0165444
0.00220403
0.016382
0.0023121
0.0162177
0.00242391
0.0160517
0.00253915
0.015884
0.0026574
0.015715
0.00277824
0.0155451
0.0029012
0.0153753
0.00302588
0.0152076
0.00315201
0.0150448
0.00327956
0.0148912
0.00340884
0.0147524
0.0035407
0.0146349
0.00367659
0.0145457
0.00381869
0.0144909
0.00396984
0.0144734
0.00413333
0.0144909
0.00431235
0.0145328
0.004509
0.0145784
0.00472306
0.0145961
0.00495046
0.0145445
0.00518188
0.0143761
0.00540214
0.0140437
0.00559059
0.0135084
0.00572315
0.0127479
0.00577585
0.0117636
0.00572955
0.0105825
0.00557473
0.00925514
0.00531513
0.00784771
0.00496976
0.00643407
0.00457332
0.00509059
0.00417641
0.00389365
0.00384525
0.00290956
0.00365314
0.00217017
0.00365143
0.00165248
0.00382884
0.00128567
0.00409704
0.00098359
0.00432906
0.000683011
0.00443053
0.000359681
0.00438217
1.9095e-05
0.00422237
-0.000323643
0.00399703
-0.000657509
0.00372589
-0.000977539
0.00340331
-0.00128138
0.00301724
-0.00156645
0.00256222
-0.00182938
0.00204088
-0.00206636
0.00145847
-0.00227412
0.000818698
-0.00245089
0.000121124
-0.00259367
-0.00063857
-0.00270007
-0.0014692
-0.00276529
-0.00238
-0.00278104
-0.00337732
-0.00273412
-0.00445685
-0.0026079
-0.00559161
-0.00239367
-0.00672016
-0.00211635
-0.00776098
-0.00182517
-0.00869566
-0.00132813
-0.0095196
-0.00813449
0.0199982
2.05775e-05
0.0199926
6.16616e-05
0.0199834
0.00010265
0.0199703
0.000143546
0.0199534
0.000184371
0.0199327
0.000225175
0.0199079
0.000266021
0.0198792
0.000306975
0.0198465
0.000348101
0.0198097
0.000389469
0.0197689
0.00043115
0.019724
0.000473219
0.019675
0.000515751
0.0196218
0.000558824
0.0195644
0.000602519
0.0195029
0.000646919
0.0194371
0.000692113
0.0193671
0.000738194
0.0192928
0.000785261
0.0192142
0.000833419
0.0191313
0.00088278
0.019044
0.000933465
0.0189524
0.000985602
0.0188565
0.00103933
0.0187561
0.00109479
0.0186514
0.00115214
0.0185424
0.00121155
0.0184291
0.00127319
0.0183116
0.00133724
0.0181899
0.00140389
0.0180642
0.00147332
0.0179346
0.00154575
0.0178013
0.00162134
0.0176645
0.00170029
0.0175244
0.00178276
0.0173813
0.0018689
0.0172354
0.00195884
0.0170871
0.00205267
0.0169367
0.00215044
0.0167846
0.00225215
0.0166308
0.00235775
0.0164758
0.00246713
0.0163196
0.00258014
0.0161622
0.00269655
0.0160035
0.00281608
0.0158433
0.00293841
0.0156814
0.00306317
0.0155173
0.00318996
0.0153509
0.00331836
0.0151825
0.00344795
0.015013
0.00357838
0.0148443
0.00370945
0.0146797
0.0038412
0.0145242
0.00397413
0.0143847
0.00410936
0.0142692
0.00424884
0.014186
0.0043955
0.0141419
0.00455312
0.0141391
0.00472589
0.014172
0.00491752
0.0142242
0.00512968
0.0142662
0.00536019
0.0142556
0.00560112
0.0141411
0.00583771
0.0138684
0.00604852
0.0133904
0.0062076
0.0126767
0.00628838
0.011723
0.00626889
0.0105553
0.00613738
0.00923123
0.00589743
0.00783529
0.00557235
0.00647205
0.00520849
0.00525119
0.00487399
0.00425992
0.0046427
0.00352972
0.00455905
0.0030222
0.00460455
0.00265052
0.00470074
0.00232561
0.00475545
0.00199428
0.00471349
0.00164589
0.00457077
0.00129287
0.00435005
0.000948722
0.00407004
0.000618783
0.00373325
0.000302887
0.00333314
4.14775e-07
0.0028647
-0.000286913
0.00232821
-0.000556223
0.00172778
-0.000804363
0.00106684
-0.00102869
0.000345454
-0.00122695
-0.000440311
-0.0013969
-0.00129925
-0.00153502
-0.00224189
-0.00163494
-0.00327739
-0.00168593
-0.00440586
-0.00167175
-0.00560579
-0.00157436
-0.00681754
-0.00139406
-0.00794128
-0.00119215
-0.00889757
-0.000965359
-0.00974638
-0.00909985
0.0199982
2.24266e-05
0.0199926
6.72e-05
0.0199834
0.000111898
0.0199704
0.000156543
0.0199536
0.000201165
0.0199329
0.000245807
0.0199084
0.000290526
0.01988
0.000335384
0.0198477
0.000380444
0.0198114
0.000425772
0.0197711
0.000471438
0.0197268
0.000517516
0.0196785
0.000564079
0.0196261
0.000611207
0.0195696
0.000658978
0.0195091
0.000707477
0.0194444
0.000756792
0.0193756
0.000807015
0.0193026
0.000858244
0.0192254
0.000910582
0.0191441
0.000964138
0.0190585
0.00101903
0.0189687
0.00107538
0.0188747
0.00113331
0.0187766
0.00119297
0.0186742
0.00125451
0.0185677
0.00131806
0.0184571
0.0013838
0.0183424
0.00145188
0.0182238
0.00152248
0.0181014
0.00159576
0.0179752
0.00167189
0.0178456
0.00175103
0.0177125
0.00183333
0.0175763
0.00191894
0.0174372
0.00200798
0.0172955
0.00210055
0.0171515
0.00219671
0.0170054
0.00229651
0.0168576
0.00239994
0.0167084
0.00250695
0.0165581
0.00261748
0.0164068
0.00273139
0.0162549
0.00284854
0.0161022
0.00296873
0.0159489
0.00309175
0.0157947
0.00321736
0.0156393
0.00334531
0.0154824
0.00347531
0.0153233
0.00360703
0.0151616
0.00374011
0.0149969
0.00387414
0.0148294
0.00400868
0.0146602
0.00414336
0.0144916
0.00427795
0.0143278
0.00441262
0.0141751
0.00454816
0.0140419
0.00468633
0.0139377
0.00483007
0.0138716
0.00498364
0.0138491
0.0051522
0.0138683
0.00534098
0.0139159
0.00555356
0.0139639
0.00578965
0.0139697
0.00604277
0.0138787
0.00629854
0.0136326
0.0065345
0.0131794
0.00672208
0.012486
0.00683081
0.0115491
0.00683436
0.0104035
0.00671791
0.00912561
0.00648638
0.00782741
0.00617219
0.0066343
0.00583581
0.0056455
0.00554785
0.00489613
0.00535392
0.00434936
0.00524752
0.00392701
0.00517779
0.00355524
0.00508526
0.00319308
0.00493293
0.00283164
0.00471149
0.00247653
0.00442515
0.00213274
0.00407704
0.00180056
0.00366532
0.00147842
0.00318683
0.00116582
0.00264081
0.000864474
0.00202912
0.000577375
0.00135394
0.000307642
0.000615187
5.77444e-05
-0.000190413
-0.000169722
-0.00107178
-0.000372137
-0.00203948
-0.000544812
-0.00310471
-0.000679933
-0.00427074
-0.000765738
-0.00551999
-0.000787113
-0.00679617
-0.000730243
-0.00799815
-0.00063101
-0.0089968
-0.00058622
-0.00979117
-0.00968607
0.0199982
2.42672e-05
0.0199926
7.27139e-05
0.0199834
0.000121097
0.0199705
0.000169453
0.0199539
0.000217819
0.0199335
0.000266238
0.0199092
0.000314763
0.0198811
0.000363453
0.0198492
0.00041237
0.0198134
0.00046158
0.0197737
0.00051115
0.0197301
0.000561152
0.0196825
0.000611661
0.0196309
0.000662754
0.0195754
0.000714509
0.0195159
0.00076701
0.0194523
0.000820345
0.0193847
0.000874603
0.0193131
0.000929882
0.0192374
0.00098628
0.0191576
0.00104391
0.0190738
0.00110287
0.0189859
0.00116329
0.0188939
0.00122529
0.0187979
0.00128899
0.0186978
0.00135455
0.0185938
0.00142208
0.0184859
0.00149175
0.0183741
0.00156369
0.0182585
0.00163806
0.0181392
0.001715
0.0180165
0.00179467
0.0178903
0.0018772
0.0177609
0.00196272
0.0176285
0.00205136
0.0174933
0.0021432
0.0173555
0.00223834
0.0172154
0.00233682
0.0170732
0.00243866
0.0169293
0.00254387
0.0167839
0.00265239
0.0166372
0.00276416
0.0164895
0.00287906
0.0163411
0.00299699
0.016192
0.00311777
0.0160425
0.00324125
0.0158926
0.00336726
0.0157423
0.00349564
0.0155914
0.00362619
0.0154397
0.00375875
0.0152867
0.00389309
0.0151319
0.00402896
0.0149746
0.00416603
0.014814
0.00430389
0.01465
0.00444203
0.0144826
0.00457994
0.0143136
0.0047172
0.0141462
0.00485374
0.0139861
0.00499014
0.0138417
0.00512808
0.0137232
0.00527071
0.0136413
0.00542288
0.0136039
0.00559094
0.0136118
0.00578172
0.0136539
0.0060007
0.0137032
0.0062492
0.0137164
0.00652134
0.0136369
0.00680161
0.0134035
0.00706417
0.0129629
0.00727494
0.0122841
0.00739674
0.0113728
0.00739767
0.0102822
0.00726274
0.009112
0.00700605
0.00798513
0.00667471
0.00700554
0.00633351
0.0062196
0.00603346
0.0056096
0.0057878
0.00512082
0.00557404
0.00469791
0.00535584
0.00430586
0.00510354
0.00393025
0.00480076
0.00356701
0.00444028
0.0032141
0.00401822
0.00286923
0.00353171
0.00253078
0.00297926
0.00219901
0.00236089
0.00187587
0.00167707
0.0015642
0.000926862
0.00126724
0.00010655
0.000987125
-0.000791673
0.000726594
-0.00177895
0.000488765
-0.00286688
0.00027866
-0.00406063
0.000104186
-0.00534552
-2.37783e-05
-0.0066682
-0.000103904
-0.00791803
-0.000145856
-0.00895485
-0.0002227
-0.00971433
-0.00990877
0.0199982
2.60924e-05
0.0199927
7.81822e-05
0.0199836
0.000130215
0.0199708
0.000182238
0.0199543
0.000234294
0.0199341
0.000286428
0.0199102
0.000338693
0.0198825
0.000391144
0.019851
0.000443845
0.0198158
0.000496858
0.0197767
0.000550251
0.0197337
0.000604095
0.0196869
0.000658463
0.0196362
0.000713431
0.0195817
0.000769077
0.0195232
0.000825484
0.0194608
0.000882737
0.0193945
0.000940925
0.0193242
0.00100014
0.01925
0.00106049
0.0191719
0.00112206
0.0190898
0.00118497
0.0190037
0.00124933
0.0189138
0.00131525
0.0188199
0.00138286
0.0187222
0.00145227
0.0186206
0.00152364
0.0185153
0.00159707
0.0184063
0.00167271
0.0182936
0.00175069
0.0181775
0.00183115
0.018058
0.0019142
0.0179352
0.00199998
0.0178093
0.0020886
0.0176805
0.00218015
0.017549
0.00227471
0.017415
0.00237236
0.0172787
0.00247313
0.0171403
0.00257703
0.0170001
0.00268407
0.0168583
0.00279419
0.0167151
0.00290733
0.0165708
0.0030234
0.0164255
0.00314228
0.0162794
0.00326383
0.0161328
0.00338793
0.0159856
0.00351442
0.0158381
0.00364315
0.0156903
0.00377399
0.0155422
0.00390682
0.0153938
0.0040415
0.0152449
0.0041779
0.015095
0.00431588
0.0149437
0.00445521
0.0147901
0.0045956
0.0146334
0.00473664
0.0144728
0.00487779
0.0143081
0.00501847
0.0141401
0.00515816
0.0139715
0.00529666
0.0138077
0.00543453
0.013657
0.00557355
0.0135306
0.00571733
0.0134407
0.00587162
0.0133973
0.00604408
0.0134034
0.00624318
0.013449
0.00647573
0.0135072
0.00674334
0.013533
0.00703841
0.013467
0.00734094
0.0132459
0.00761789
0.0128171
0.00782643
0.0121575
0.00792237
0.0112897
0.0078738
0.0102877
0.00767676
0.0092585
0.00736269
0.0083044
0.00698756
0.00748635
0.00660585
0.00681296
0.00624742
0.00625666
0.00591215
0.00577932
0.00558087
0.00534986
0.00523022
0.00494869
0.00484146
0.00456463
0.00440228
0.00419104
0.0039053
0.00382397
0.00334632
0.00346178
0.00272309
0.00310486
0.00203399
0.00275507
0.00127665
0.00241509
0.000446531
0.00208733
-0.000463907
0.00177384
-0.00146546
0.00147634
-0.00256938
0.00119653
-0.00378083
0.000936222
-0.0050852
0.000696809
-0.00642879
0.00048245
-0.00770367
0.00029244
-0.00876484
8.84104e-05
-0.0095103
-0.00982036
0.0199982
2.78971e-05
0.0199928
8.35895e-05
0.0199838
0.000139228
0.0199711
0.00019487
0.0199549
0.00025056
0.019935
0.000306348
0.0199114
0.000362284
0.0198841
0.000418426
0.0198531
0.000474835
0.0198184
0.000531575
0.0197799
0.000588711
0.0197377
0.000646313
0.0196917
0.000704454
0.0196419
0.000763208
0.0195884
0.000822653
0.019531
0.000882869
0.0194698
0.000943941
0.0194047
0.00100596
0.0193359
0.001069
0.0192632
0.00113318
0.0191867
0.00119858
0.0191063
0.00126532
0.0190222
0.00133348
0.0189342
0.0014032
0.0188425
0.00147457
0.0187471
0.00154772
0.0186479
0.00162276
0.0185452
0.00169982
0.0184389
0.00177901
0.0183291
0.00186047
0.018216
0.00194429
0.0180996
0.0020306
0.01798
0.00211951
0.0178575
0.0022111
0.0177322
0.00230547
0.0176042
0.00240268
0.0174738
0.00250278
0.0173411
0.00260582
0.0172064
0.00271178
0.0170698
0.00282068
0.0169315
0.00293246
0.0167918
0.00304706
0.0166507
0.00316441
0.0165086
0.0032844
0.0163655
0.00340691
0.0162217
0.00353182
0.0160771
0.00365898
0.015932
0.00378827
0.0157864
0.00391955
0.0156405
0.0040527
0.0154944
0.0041876
0.0153482
0.00432417
0.0152017
0.00446231
0.015055
0.00460193
0.0149077
0.00474291
0.0147592
0.00488509
0.0146088
0.0050282
0.0144555
0.00517186
0.014298
0.00531557
0.014136
0.00545871
0.0139698
0.00560074
0.0138019
0.00574148
0.0136376
0.00588156
0.0134861
0.0060231
0.0133599
0.00617036
0.013273
0.00633009
0.0132375
0.00651121
0.0132577
0.00672314
0.0133235
0.00697259
0.0134055
0.0072589
0.0134543
0.00756912
0.0134059
0.00787486
0.013195
0.00813321
0.0127748
0.00829399
0.0121375
0.00831407
0.0113257
0.00817451
0.0104224
0.00789081
0.00952143
0.00750687
0.00869402
0.00707483
0.00797254
0.00663363
0.00735462
0.00619879
0.00681923
0.00576561
0.00634159
0.00531909
0.00590109
0.00484278
0.00548309
0.00432331
0.00507815
0.00375126
0.00468091
0.00312033
0.00428907
0.00242584
0.00390253
0.00166319
0.00352259
0.000826471
0.00315074
-9.20528e-05
0.00278802
-0.00110274
0.00243435
-0.00221572
0.00208794
-0.00343442
0.00174515
-0.00474241
0.00140126
-0.0060849
0.00105318
-0.00735559
0.000699156
-0.00841081
0.000333917
-0.00914506
-0.00948644
0.0199982
2.96775e-05
0.0199929
8.89244e-05
0.019984
0.00014812
0.0199715
0.000207325
0.0199555
0.000266591
0.0199359
0.000325968
0.0199127
0.00038551
0.0198858
0.000445272
0.0198553
0.000505315
0.0198212
0.000565703
0.0197834
0.000626502
0.0197419
0.00068778
0.0196968
0.000749607
0.0196479
0.000812059
0.0195954
0.000875211
0.0195391
0.000939142
0.0194791
0.00100393
0.0194154
0.00106967
0.019348
0.00113645
0.0192768
0.00120435
0.0192019
0.00127347
0.0191233
0.0013439
0.019041
0.00141576
0.0189551
0.00148914
0.0188655
0.00156415
0.0187723
0.0016409
0.0186756
0.00171949
0.0185754
0.00180004
0.0184717
0.00188266
0.0183648
0.00196745
0.0182545
0.00205452
0.0181412
0.00214398
0.0180248
0.0022359
0.0179055
0.00233038
0.0177835
0.00242748
0.0176589