/*--------------------------------*- C++ -*----------------------------------*\
| =========                 |                                                 |
| \\      /  F ield         | OpenFOAM: The Open Source CFD Toolbox           |
|  \\    /   O peration     | Version:  4.1                                   |
|   \\  /    A nd           | Web:      www.OpenFOAM.org                      |
|    \\/     M anipulation  |                                                 |
\*---------------------------------------------------------------------------*/
FoamFile
{
    version     2.0;
    format      ascii;
    class       volVectorField;
    location    "0.51";
    object      U;
}
// * * * * * * * * * * * * * * * * * * * * * * * * * * * * * * * * * * * * * //

dimensions      [0 1 -1 0 0 0 0];

internalField   nonuniform List<vector> 
43750
(
(9.98931 0.0212656 0)
(9.96614 0.0360256 0)
(9.93505 0.042915 0)
(9.89519 0.0478717 0)
(9.84891 0.0524578 0)
(9.79781 0.0568457 0)
(9.74213 0.0610009 0)
(9.68174 0.064957 0)
(9.61661 0.0687708 0)
(9.54687 0.0724773 0)
(9.47255 0.0760944 0)
(9.39365 0.0796377 0)
(9.31009 0.0831246 0)
(9.2218 0.0865732 0)
(9.12867 0.0900006 0)
(9.03058 0.0934243 0)
(8.92738 0.0968623 0)
(8.81888 0.100334 0)
(8.70486 0.10386 0)
(8.58508 0.107462 0)
(8.45926 0.111166 0)
(8.32706 0.114996 0)
(8.18812 0.118983 0)
(8.04202 0.123157 0)
(7.88828 0.127551 0)
(7.72635 0.132201 0)
(7.55564 0.137147 0)
(7.37545 0.142427 0)
(7.18504 0.148079 0)
(6.98355 0.154138 0)
(6.77007 0.160631 0)
(6.54362 0.167571 0)
(6.30314 0.17495 0)
(6.04756 0.182725 0)
(5.77583 0.190802 0)
(5.48698 0.199021 0)
(5.18017 0.207131 0)
(4.85489 0.214772 0)
(4.511 0.221458 0)
(4.14899 0.226566 0)
(3.77009 0.229349 0)
(3.37647 0.228964 0)
(2.97142 0.224552 0)
(2.5594 0.215344 0)
(2.14609 0.200817 0)
(1.73822 0.180873 0)
(1.34332 0.156017 0)
(0.969225 0.127492 0)
(0.623433 0.0973167 0)
(0.312342 0.0681584 0)
(0.0402766 0.0432416 0)
(-0.191495 0.0249749 0)
(-0.38699 0.0159666 0)
(-0.552451 0.0166746 0)
(-0.694591 0.0232321 0)
(-0.818357 0.0294569 0)
(-0.927086 0.0315803 0)
(-1.02322 0.0297611 0)
(-1.10862 0.0264152 0)
(-1.18467 0.0240793 0)
(-1.25338 0.0248101 0)
(-1.31841 0.0296695 0)
(-1.38518 0.0353367 0)
(-1.45521 0.0325862 0)
(-1.51892 0.0122336 0)
(-1.55253 -0.0250176 0)
(-1.52919 -0.069475 0)
(-1.45088 -0.110716 0)
(-1.32294 -0.149203 0)
(-1.14546 -0.186961 0)
(-0.924781 -0.222513 0)
(-0.674775 -0.252348 0)
(-0.42031 -0.268498 0)
(-0.193869 -0.257735 0)
(-0.03563 -0.210698 0)
(0.00142812 -0.121751 0)
(-0.161059 -0.00256956 0)
(-0.492833 0.125253 0)
(-0.981671 0.252182 0)
(-1.59405 0.357393 0)
(-2.27746 0.420575 0)
(-2.97477 0.435106 0)
(-3.63579 0.407491 0)
(-4.22233 0.349262 0)
(-4.71002 0.272006 0)
(-5.08574 0.185329 0)
(-5.34264 0.0967604 0)
(-5.47546 0.0126813 0)
(-5.48032 -0.0626884 0)
(-5.37387 -0.129982 0)
(-5.16809 -0.19755 0)
(-4.84655 -0.271807 0)
(-4.39539 -0.353961 0)
(-3.79551 -0.442763 0)
(-3.03925 -0.53109 0)
(-2.15293 -0.597548 0)
(-1.20901 -0.594374 0)
(-0.312035 -0.457441 0)
(0.32039 -0.189973 0)
(0.411867 0.164654 0)
(10.0047 0.00737868 0)
(10.0196 0.0182402 0)
(10.0357 0.0257146 0)
(10.0505 0.0320238 0)
(10.064 0.0381672 0)
(10.0768 0.0441492 0)
(10.0887 0.0498901 0)
(10.0993 0.0554797 0)
(10.1085 0.0610481 0)
(10.1161 0.0666746 0)
(10.122 0.0724 0)
(10.1261 0.0782582 0)
(10.1281 0.0842854 0)
(10.128 0.0905182 0)
(10.1257 0.0969912 0)
(10.1208 0.103739 0)
(10.1133 0.1108 0)
(10.1029 0.118212 0)
(10.0895 0.126021 0)
(10.0728 0.134276 0)
(10.0526 0.143031 0)
(10.0287 0.152349 0)
(10.0006 0.162301 0)
(9.96806 0.172965 0)
(9.93069 0.184433 0)
(9.88804 0.196807 0)
(9.83956 0.210202 0)
(9.78466 0.224745 0)
(9.72262 0.240578 0)
(9.65262 0.257853 0)
(9.57368 0.276732 0)
(9.48465 0.297378 0)
(9.38421 0.319946 0)
(9.27076 0.344572 0)
(9.14249 0.371344 0)
(8.99729 0.400282 0)
(8.83275 0.431294 0)
(8.6462 0.464137 0)
(8.43471 0.498364 0)
(8.19518 0.533271 0)
(7.92448 0.567851 0)
(7.61964 0.600765 0)
(7.27813 0.630343 0)
(6.89814 0.654631 0)
(6.47898 0.671499 0)
(6.02142 0.678816 0)
(5.52802 0.674682 0)
(5.0034 0.65771 0)
(4.45438 0.627315 0)
(3.89001 0.583972 0)
(3.32153 0.529441 0)
(2.76176 0.466652 0)
(2.22484 0.400361 0)
(1.72483 0.336262 0)
(1.27256 0.27959 0)
(0.873563 0.233866 0)
(0.527112 0.19991 0)
(0.227531 0.175716 0)
(-0.0327287 0.157618 0)
(-0.260093 0.141753 0)
(-0.460067 0.128022 0)
(-0.636629 0.119484 0)
(-0.792259 0.115356 0)
(-0.926519 0.106565 0)
(-1.03572 0.079261 0)
(-1.11945 0.0278782 0)
(-1.18794 -0.0395204 0)
(-1.23471 -0.110077 0)
(-1.25154 -0.178293 0)
(-1.24249 -0.239715 0)
(-1.21857 -0.285716 0)
(-1.19892 -0.30588 0)
(-1.20916 -0.282398 0)
(-1.2786 -0.189231 0)
(-1.4346 -0.00865298 0)
(-1.68899 0.235564 0)
(-2.06827 0.492546 0)
(-2.58581 0.723321 0)
(-3.17929 0.893541 0)
(-3.77329 0.981525 0)
(-4.30226 0.983677 0)
(-4.72721 0.914984 0)
(-5.03743 0.799677 0)
(-5.24307 0.660462 0)
(-5.36479 0.512938 0)
(-5.42527 0.364911 0)
(-5.44413 0.218846 0)
(-5.43534 0.0748603 0)
(-5.40306 -0.0682567 0)
(-5.32259 -0.21467 0)
(-5.16449 -0.372268 0)
(-4.92218 -0.548748 0)
(-4.58068 -0.747441 0)
(-4.12473 -0.966791 0)
(-3.54035 -1.19259 0)
(-2.825 -1.37926 0)
(-2.0013 -1.42234 0)
(-1.13726 -1.16235 0)
(-0.367087 -0.501684 0)
(0.230823 0.401191 0)
(9.99997 0.00554833 0)
(9.99958 0.0150323 0)
(9.99793 0.0225809 0)
(9.99402 0.029206 0)
(9.98771 0.0356411 0)
(9.97939 0.0420272 0)
(9.96925 0.0483541 0)
(9.95732 0.0546872 0)
(9.9436 0.0611189 0)
(9.92816 0.0677065 0)
(9.91107 0.0744777 0)
(9.89241 0.0814553 0)
(9.87223 0.088667 0)
(9.85059 0.0961436 0)
(9.82755 0.103917 0)
(9.80316 0.112021 0)
(9.77749 0.120496 0)
(9.7506 0.129385 0)
(9.72253 0.138739 0)
(9.69335 0.148618 0)
(9.66311 0.159089 0)
(9.63188 0.17023 0)
(9.59972 0.182134 0)
(9.56667 0.194905 0)
(9.53281 0.208668 0)
(9.49819 0.223564 0)
(9.46287 0.239759 0)
(9.42689 0.257441 0)
(9.39032 0.276829 0)
(9.35316 0.29817 0)
(9.31542 0.321742 0)
(9.27705 0.34785 0)
(9.23795 0.376828 0)
(9.19791 0.409022 0)
(9.15657 0.444782 0)
(9.11336 0.484431 0)
(9.06744 0.528236 0)
(9.01755 0.576353 0)
(8.96195 0.628768 0)
(8.89825 0.685224 0)
(8.82329 0.745132 0)
(8.73308 0.807503 0)
(8.62272 0.870876 0)
(8.48647 0.933293 0)
(8.31791 0.992325 0)
(8.11027 1.04516 0)
(7.85687 1.08878 0)
(7.55173 1.12019 0)
(7.19029 1.13666 0)
(6.77008 1.13603 0)
(6.29157 1.11693 0)
(5.75883 1.07894 0)
(5.18012 1.02274 0)
(4.56815 0.950229 0)
(3.93982 0.86479 0)
(3.31485 0.771314 0)
(2.71353 0.675976 0)
(2.15366 0.585354 0)
(1.64752 0.505033 0)
(1.20022 0.438133 0)
(0.810652 0.385044 0)
(0.473741 0.343531 0)
(0.183625 0.308479 0)
(-0.0659536 0.271051 0)
(-0.282802 0.220076 0)
(-0.475691 0.150892 0)
(-0.649879 0.0684986 0)
(-0.804255 -0.0206007 0)
(-0.939555 -0.107394 0)
(-1.06145 -0.176781 0)
(-1.18406 -0.213042 0)
(-1.33309 -0.200322 0)
(-1.53674 -0.120697 0)
(-1.81087 0.0480855 0)
(-2.15609 0.314257 0)
(-2.55913 0.646406 0)
(-2.99278 0.971336 0)
(-3.42039 1.21969 0)
(-3.79482 1.35256 0)
(-4.08393 1.363 0)
(-4.28426 1.27152 0)
(-4.4178 1.11405 0)
(-4.5164 0.926512 0)
(-4.60612 0.734899 0)
(-4.69857 0.552205 0)
(-4.79041 0.38046 0)
(-4.8681 0.214869 0)
(-4.91444 0.0471251 0)
(-4.91517 -0.132097 0)
(-4.86076 -0.331429 0)
(-4.74644 -0.554307 0)
(-4.56853 -0.804186 0)
(-4.32207 -1.08603 0)
(-4.00128 -1.40202 0)
(-3.59776 -1.74311 0)
(-3.09543 -2.06615 0)
(-2.46685 -2.25151 0)
(-1.69642 -2.0636 0)
(-0.846445 -1.22582 0)
(-0.0954967 0.129151 0)
(9.99985 0.00567807 0)
(9.99873 0.0167308 0)
(9.9962 0.0271017 0)
(9.99159 0.0369188 0)
(9.98462 0.0464894 0)
(9.97533 0.0559499 0)
(9.96383 0.0653095 0)
(9.9501 0.0745849 0)
(9.9341 0.0838243 0)
(9.91581 0.0930747 0)
(9.89523 0.102369 0)
(9.87239 0.111737 0)
(9.84727 0.121206 0)
(9.81987 0.130811 0)
(9.79019 0.140583 0)
(9.75823 0.150559 0)
(9.724 0.160777 0)
(9.68748 0.171277 0)
(9.64871 0.182108 0)
(9.60768 0.193322 0)
(9.56442 0.204979 0)
(9.51896 0.217146 0)
(9.47134 0.2299 0)
(9.42163 0.243333 0)
(9.3699 0.257545 0)
(9.31624 0.272658 0)
(9.26079 0.288808 0)
(9.20372 0.306156 0)
(9.14522 0.324886 0)
(9.08556 0.345211 0)
(9.02507 0.367377 0)
(8.96415 0.391663 0)
(8.90327 0.418387 0)
(8.843 0.447908 0)
(8.78403 0.480624 0)
(8.72712 0.516966 0)
(8.67309 0.557396 0)
(8.6228 0.60238 0)
(8.57707 0.652368 0)
(8.53654 0.707749 0)
(8.5015 0.768791 0)
(8.4717 0.835566 0)
(8.446 0.907858 0)
(8.42216 0.985061 0)
(8.39648 1.06608 0)
(8.3636 1.14927 0)
(8.31645 1.23241 0)
(8.24636 1.3127 0)
(8.14336 1.38689 0)
(7.99683 1.45138 0)
(7.79624 1.50239 0)
(7.53215 1.53611 0)
(7.19724 1.54889 0)
(6.78749 1.5376 0)
(6.30349 1.50018 0)
(5.75158 1.43619 0)
(5.14447 1.34749 0)
(4.50115 1.23856 0)
(3.84541 1.11639 0)
(3.20281 0.989612 0)
(2.59678 0.867148 0)
(2.04467 0.756023 0)
(1.5555 0.658755 0)
(1.12906 0.571696 0)
(0.757027 0.486234 0)
(0.426709 0.394178 0)
(0.126591 0.292723 0)
(-0.148942 0.184149 0)
(-0.402131 0.0802109 0)
(-0.638398 0.00431822 0)
(-0.86869 -0.0181795 0)
(-1.11161 0.0347785 0)
(-1.39144 0.175365 0)
(-1.72639 0.403877 0)
(-2.10757 0.703875 0)
(-2.49787 1.03387 0)
(-2.85121 1.32543 0)
(-3.13162 1.5129 0)
(-3.32596 1.56931 0)
(-3.4491 1.50998 0)
(-3.5357 1.37492 0)
(-3.62101 1.20528 0)
(-3.72485 1.02751 0)
(-3.84774 0.850969 0)
(-3.97693 0.673932 0)
(-4.09513 0.490746 0)
(-4.18691 0.29595 0)
(-4.24172 0.0852161 0)
(-4.25391 -0.145012 0)
(-4.22016 -0.396844 0)
(-4.13756 -0.673531 0)
(-4.00393 -0.978302 0)
(-3.81876 -1.31482 0)
(-3.58453 -1.68662 0)
(-3.30615 -2.09301 0)
(-2.97965 -2.51239 0)
(-2.56403 -2.85541 0)
(-1.97342 -2.8783 0)
(-1.17487 -2.15156 0)
(-0.315427 -0.467066 0)
(9.99982 0.00634486 0)
(9.99842 0.0189279 0)
(9.99537 0.0311208 0)
(9.99032 0.042842 0)
(9.9831 0.0542432 0)
(9.97371 0.06548 0)
(9.96218 0.0766217 0)
(9.94852 0.0877085 0)
(9.93268 0.0987941 0)
(9.91465 0.109938 0)
(9.89442 0.121189 0)
(9.87197 0.132586 0)
(9.84729 0.144167 0)
(9.82036 0.155966 0)
(9.79114 0.16802 0)
(9.75962 0.180366 0)
(9.72575 0.19304 0)
(9.68951 0.206084 0)
(9.65086 0.21954 0)
(9.60976 0.233457 0)
(9.56616 0.247887 0)
(9.52003 0.26289 0)
(9.47133 0.278532 0)
(9.42002 0.294886 0)
(9.36608 0.312036 0)
(9.30947 0.330075 0)
(9.2502 0.349109 0)
(9.18827 0.369255 0)
(9.12371 0.390645 0)
(9.05658 0.413426 0)
(8.98699 0.437758 0)
(8.91511 0.46382 0)
(8.84115 0.491806 0)
(8.76545 0.521925 0)
(8.68842 0.554403 0)
(8.61063 0.589481 0)
(8.53279 0.627415 0)
(8.45581 0.668475 0)
(8.38077 0.712951 0)
(8.30898 0.761148 0)
(8.24194 0.813396 0)
(8.18125 0.870038 0)
(8.12856 0.93143 0)
(8.08534 0.997912 0)
(8.05264 1.06977 0)
(8.03071 1.14714 0)
(8.01863 1.22994 0)
(8.01382 1.31771 0)
(8.01171 1.40945 0)
(8.00542 1.50348 0)
(7.98573 1.59726 0)
(7.94125 1.68733 0)
(7.85891 1.76921 0)
(7.72479 1.83757 0)
(7.52521 1.88648 0)
(7.24838 1.90997 0)
(6.8862 1.90276 0)
(6.43637 1.86131 0)
(5.90418 1.78476 0)
(5.30356 1.6757 0)
(4.65669 1.5405 0)
(3.99178 1.38856 0)
(3.33867 1.23042 0)
(2.72284 1.07489 0)
(2.1596 0.926497 0)
(1.65181 0.785029 0)
(1.19309 0.647695 0)
(0.773841 0.5131 0)
(0.386841 0.388118 0)
(0.0277441 0.292339 0)
(-0.304482 0.258022 0)
(-0.615684 0.317885 0)
(-0.919995 0.484532 0)
(-1.23425 0.742044 0)
(-1.55994 1.04951 0)
(-1.87209 1.34831 0)
(-2.13462 1.57557 0)
(-2.32731 1.688 0)
(-2.45893 1.68342 0)
(-2.55901 1.59448 0)
(-2.65956 1.46223 0)
(-2.77894 1.31381 0)
(-2.91765 1.15728 0)
(-3.06428 0.989121 0)
(-3.20426 0.803628 0)
(-3.3257 0.597727 0)
(-3.42088 0.37091 0)
(-3.48507 0.123073 0)
(-3.51507 -0.146989 0)
(-3.50811 -0.441705 0)
(-3.46123 -0.763764 0)
(-3.37136 -1.11479 0)
(-3.23654 -1.49503 0)
(-3.05843 -1.90333 0)
(-2.84628 -2.33792 0)
(-2.61321 -2.79326 0)
(-2.34425 -3.23248 0)
(-1.94783 -3.48598 0)
(-1.31089 -3.06961 0)
(-0.475486 -1.27499 0)
(9.99981 0.0071447 0)
(9.99824 0.0213563 0)
(9.9949 0.0353493 0)
(9.98958 0.0490674 0)
(9.98222 0.062585 0)
(9.9728 0.0760075 0)
(9.9613 0.0893958 0)
(9.94772 0.102782 0)
(9.93201 0.116201 0)
(9.91416 0.129695 0)
(9.89416 0.143304 0)
(9.872 0.157061 0)
(9.84765 0.171 0)
(9.82112 0.185155 0)
(9.79237 0.199562 0)
(9.76138 0.214258 0)
(9.72815 0.229286 0)
(9.69263 0.244687 0)
(9.6548 0.260511 0)
(9.61463 0.27681 0)
(9.5721 0.293642 0)
(9.52716 0.311071 0)
(9.47978 0.329167 0)
(9.42993 0.348007 0)
(9.37756 0.367679 0)
(9.32265 0.388275 0)
(9.26517 0.409901 0)
(9.20509 0.432668 0)
(9.14238 0.456699 0)
(9.07704 0.482125 0)
(9.00908 0.509087 0)
(8.93852 0.537729 0)
(8.86541 0.5682 0)
(8.78985 0.600652 0)
(8.71195 0.635229 0)
(8.63191 0.672066 0)
(8.54999 0.711286 0)
(8.46652 0.752988 0)
(8.38198 0.797251 0)
(8.29697 0.844127 0)
(8.21226 0.893654 0)
(8.12884 0.945867 0)
(8.04795 1.00082 0)
(7.97109 1.05864 0)
(7.90003 1.11954 0)
(7.83672 1.18389 0)
(7.78325 1.2522 0)
(7.74151 1.32517 0)
(7.71294 1.40355 0)
(7.69799 1.48803 0)
(7.69556 1.57896 0)
(7.70236 1.67607 0)
(7.71233 1.77805 0)
(7.71619 1.88225 0)
(7.70139 1.98439 0)
(7.65244 2.07852 0)
(7.55198 2.15724 0)
(7.38248 2.21229 0)
(7.12858 2.23546 0)
(6.77985 2.21986 0)
(6.33359 2.16129 0)
(5.79695 2.05956 0)
(5.18765 1.91914 0)
(4.53223 1.74886 0)
(3.86141 1.56033 0)
(3.20347 1.36542 0)
(2.57836 1.17382 0)
(1.99538 0.992348 0)
(1.45576 0.828349 0)
(0.958359 0.696202 0)
(0.506272 0.623396 0)
(0.106851 0.645971 0)
(-0.235545 0.786987 0)
(-0.530291 1.0307 0)
(-0.79318 1.32325 0)
(-1.02879 1.59146 0)
(-1.22906 1.77204 0)
(-1.38951 1.8375 0)
(-1.52216 1.80355 0)
(-1.64815 1.70948 0)
(-1.78347 1.58901 0)
(-1.9319 1.45547 0)
(-2.08735 1.30614 0)
(-2.2399 1.13378 0)
(-2.38075 0.934264 0)
(-2.50407 0.70782 0)
(-2.60619 0.456316 0)
(-2.68426 0.180561 0)
(-2.73592 -0.12047 0)
(-2.75926 -0.449103 0)
(-2.75191 -0.808386 0)
(-2.71051 -1.20025 0)
(-2.63099 -1.62369 0)
(-2.51003 -2.07293 0)
(-2.34984 -2.53763 0)
(-2.16314 -3.0077 0)
(-1.96089 -3.47583 0)
(-1.70104 -3.87937 0)
(-1.25725 -3.82741 0)
(-0.539379 -2.17732 0)
(9.9998 0.0080098 0)
(9.99815 0.0239744 0)
(9.99467 0.039816 0)
(9.9892 0.0554985 0)
(9.98174 0.0710452 0)
(9.97229 0.0865119 0)
(9.96081 0.101946 0)
(9.94727 0.117382 0)
(9.93164 0.132854 0)
(9.91392 0.148403 0)
(9.89409 0.16407 0)
(9.87214 0.179895 0)
(9.84805 0.195916 0)
(9.82181 0.212172 0)
(9.79341 0.228703 0)
(9.76283 0.245552 0)
(9.73005 0.262762 0)
(9.69505 0.28038 0)
(9.65781 0.298455 0)
(9.61831 0.317042 0)
(9.57653 0.336198 0)
(9.53244 0.355988 0)
(9.48604 0.376481 0)
(9.43729 0.397752 0)
(9.38618 0.419885 0)
(9.3327 0.442971 0)
(9.27684 0.467107 0)
(9.21859 0.492401 0)
(9.15795 0.518966 0)
(9.09495 0.546924 0)
(9.02959 0.576404 0)
(8.96191 0.607535 0)
(8.89197 0.640452 0)
(8.81982 0.675285 0)
(8.74554 0.712156 0)
(8.66923 0.751175 0)
(8.59102 0.79243 0)
(8.51102 0.835982 0)
(8.4294 0.881854 0)
(8.34635 0.930025 0)
(8.26207 0.980431 0)
(8.17686 1.03296 0)
(8.09105 1.08746 0)
(8.00512 1.14379 0)
(7.91975 1.20178 0)
(7.83586 1.2614 0)
(7.75471 1.32271 0)
(7.678 1.386 0)
(7.60785 1.45183 0)
(7.54679 1.52108 0)
(7.49752 1.5949 0)
(7.46257 1.67464 0)
(7.44367 1.76156 0)
(7.44093 1.85651 0)
(7.45185 1.95944 0)
(7.47038 2.06888 0)
(7.48621 2.18141 0)
(7.48454 2.29132 0)
(7.44672 2.39062 0)
(7.35181 2.46947 0)
(7.17908 2.51721 0)
(6.91134 2.52381 0)
(6.53852 2.4818 0)
(6.06073 2.38816 0)
(5.4899 2.24574 0)
(4.84882 2.06349 0)
(4.16712 1.85515 0)
(3.47539 1.63687 0)
(2.79964 1.42571 0)
(2.15945 1.24067 0)
(1.57115 1.10674 0)
(1.05308 1.05668 0)
(0.624517 1.12025 0)
(0.293267 1.29725 0)
(0.0446346 1.54248 0)
(-0.148987 1.78002 0)
(-0.312567 1.93867 0)
(-0.461798 1.98924 0)
(-0.608416 1.94931 0)
(-0.760473 1.8577 0)
(-0.919741 1.7433 0)
(-1.0828 1.61345 0)
(-1.24405 1.46192 0)
(-1.39808 1.28108 0)
(-1.54086 1.06818 0)
(-1.66959 0.824878 0)
(-1.78201 0.553905 0)
(-1.87591 0.256611 0)
(-1.94942 -0.0677466 0)
(-2.00182 -0.421621 0)
(-2.03141 -0.808489 0)
(-2.03549 -1.23175 0)
(-2.00996 -1.69183 0)
(-1.94903 -2.18282 0)
(-1.84747 -2.68913 0)
(-1.70629 -3.1876 0)
(-1.53748 -3.66467 0)
(-1.34884 -4.12392 0)
(-1.07342 -4.3613 0)
(-0.507455 -3.04588 0)
(9.99979 0.00891073 0)
(9.9981 0.026689 0)
(9.99455 0.0443883 0)
(9.98901 0.0619899 0)
(9.9815 0.0795044 0)
(9.97205 0.0969681 0)
(9.96061 0.114423 0)
(9.94715 0.131905 0)
(9.93165 0.149449 0)
(9.9141 0.167093 0)
(9.89448 0.184875 0)
(9.87277 0.202834 0)
(9.84898 0.221007 0)
(9.82308 0.239432 0)
(9.79505 0.258148 0)
(9.76489 0.277198 0)
(9.73257 0.296623 0)
(9.69808 0.31647 0)
(9.66141 0.336789 0)
(9.62254 0.357632 0)
(9.58144 0.379058 0)
(9.53811 0.401129 0)
(9.49254 0.423912 0)
(9.44471 0.447481 0)
(9.39461 0.471916 0)
(9.34225 0.497303 0)
(9.28763 0.523735 0)
(9.23075 0.551312 0)
(9.17164 0.580139 0)
(9.11032 0.610327 0)
(9.04685 0.641993 0)
(8.98127 0.675255 0)
(8.91366 0.710231 0)
(8.8441 0.747038 0)
(8.7727 0.785785 0)
(8.69957 0.82657 0)
(8.62485 0.869474 0)
(8.54866 0.914552 0)
(8.47115 0.961831 0)
(8.39244 1.0113 0)
(8.31266 1.06291 0)
(8.23188 1.11655 0)
(8.15018 1.17208 0)
(8.06759 1.2293 0)
(7.98415 1.28798 0)
(7.89993 1.34789 0)
(7.81508 1.40881 0)
(7.72998 1.47058 0)
(7.64532 1.53317 0)
(7.56225 1.59677 0)
(7.48254 1.66181 0)
(7.40865 1.72912 0)
(7.34368 1.79989 0)
(7.29116 1.87566 0)
(7.25452 1.9582 0)
(7.23631 2.04915 0)
(7.23701 2.14958 0)
(7.25374 2.25923 0)
(7.2789 2.37578 0)
(7.29941 2.49421 0)
(7.29669 2.60644 0)
(7.24787 2.70161 0)
(7.12835 2.76718 0)
(6.91553 2.79072 0)
(6.59311 2.76236 0)
(6.15522 2.67732 0)
(5.60899 2.5378 0)
(4.97455 2.35356 0)
(4.2822 2.14134 0)
(3.56787 1.92379 0)
(2.86931 1.72918 0)
(2.22494 1.59168 0)
(1.67241 1.54623 0)
(1.23998 1.61049 0)
(0.930961 1.76382 0)
(0.718658 1.94612 0)
(0.559457 2.08606 0)
(0.414229 2.14021 0)
(0.260967 2.10995 0)
(0.0951688 2.02459 0)
(-0.0769745 1.9111 0)
(-0.247653 1.77819 0)
(-0.412274 1.62062 0)
(-0.568907 1.4313 0)
(-0.71649 1.20766 0)
(-0.853765 0.951447 0)
(-0.979054 0.665558 0)
(-1.09042 0.351781 0)
(-1.18609 0.0096816 0)
(-1.26568 -0.363252 0)
(-1.32804 -0.770711 0)
(-1.3713 -1.21732 0)
(-1.39211 -1.70548 0)
(-1.38511 -2.2318 0)
(-1.34271 -2.78129 0)
(-1.25731 -3.32331 0)
(-1.12843 -3.82391 0)
(-0.979285 -4.29009 0)
(-0.829536 -4.68559 0)
(-0.412249 -3.79172 0)
(9.99979 0.00982801 0)
(9.99809 0.0294455 0)
(9.99451 0.049007 0)
(9.98893 0.0685095 0)
(9.98142 0.0879638 0)
(9.972 0.107397 0)
(9.96063 0.126843 0)
(9.94728 0.146336 0)
(9.93193 0.165907 0)
(9.91457 0.185592 0)
(9.89517 0.205426 0)
(9.87374 0.225448 0)
(9.85026 0.245694 0)
(9.8247 0.266204 0)
(9.79708 0.287018 0)
(9.76736 0.308178 0)
(9.73553 0.329729 0)
(9.70159 0.351717 0)
(9.66552 0.374192 0)
(9.6273 0.397207 0)
(9.58693 0.42082 0)
(9.54439 0.445091 0)
(9.49967 0.470085 0)
(9.45278 0.495874 0)
(9.4037 0.522533 0)
(9.35244 0.550142 0)
(9.29901 0.578787 0)
(9.24343 0.608558 0)
(9.18572 0.639552 0)
(9.12591 0.671866 0)
(9.06406 0.705604 0)
(9.00023 0.740868 0)
(8.93448 0.77776 0)
(8.86693 0.816379 0)
(8.79767 0.856819 0)
(8.72682 0.899161 0)
(8.65454 0.943475 0)
(8.58097 0.989811 0)
(8.50627 1.0382 0)
(8.43059 1.08863 0)
(8.35408 1.14109 0)
(8.27686 1.1955 0)
(8.19903 1.25177 0)
(8.12062 1.30977 0)
(8.04162 1.36932 0)
(7.96193 1.43023 0)
(7.88143 1.49227 0)
(7.79995 1.55521 0)
(7.71734 1.61881 0)
(7.6336 1.68288 0)
(7.54896 1.7473 0)
(7.46407 1.81211 0)
(7.38021 1.87757 0)
(7.29945 1.9443 0)
(7.22475 2.01336 0)
(7.1599 2.0863 0)
(7.1092 2.16513 0)
(7.07669 2.25208 0)
(7.06503 2.34907 0)
(7.07383 2.45698 0)
(7.09796 2.57461 0)
(7.12606 2.69774 0)
(7.13999 2.81852 0)
(7.11565 2.92559 0)
(7.02562 3.00521 0)
(6.84328 3.04337 0)
(6.548 3.0286 0)
(6.13018 2.95493 0)
(5.59486 2.82423 0)
(4.9631 2.64778 0)
(4.27097 2.44694 0)
(3.56691 2.25319 0)
(2.90704 2.10542 0)
(2.345 2.03835 0)
(1.91425 2.06215 0)
(1.61273 2.14853 0)
(1.40439 2.24166 0)
(1.23976 2.2901 0)
(1.08044 2.27261 0)
(0.910796 2.19823 0)
(0.733663 2.08627 0)
(0.557755 1.94802 0)
(0.388491 1.7831 0)
(0.226817 1.58646 0)
(0.0722092 1.35518 0)
(-0.0753121 1.08994 0)
(-0.214771 0.793301 0)
(-0.344474 0.467185 0)
(-0.462392 0.111512 0)
(-0.567514 -0.276131 0)
(-0.659464 -0.699589 0)
(-0.736732 -1.16413 0)
(-0.796648 -1.67377 0)
(-0.834982 -2.22771 0)
(-0.844994 -2.81393 0)
(-0.817582 -3.40143 0)
(-0.744365 -3.94251 0)
(-0.636377 -4.41248 0)
(-0.574179 -4.84923 0)
(-0.287369 -4.36453 0)
(9.99979 0.0107507 0)
(9.99809 0.0322152 0)
(9.9945 0.0536372 0)
(9.98894 0.0750247 0)
(9.98146 0.0963913 0)
(9.9721 0.11776 0)
(9.96082 0.139159 0)
(9.94761 0.160621 0)
(9.93242 0.182176 0)
(9.91526 0.203859 0)
(9.89612 0.225705 0)
(9.87497 0.247751 0)
(9.85182 0.270035 0)
(9.82665 0.292595 0)
(9.79944 0.315472 0)
(9.77019 0.338708 0)
(9.73888 0.362348 0)
(9.70551 0.386437 0)
(9.67006 0.411024 0)
(9.63253 0.436163 0)
(9.5929 0.461907 0)
(9.55117 0.488317 0)
(9.50734 0.515455 0)
(9.4614 0.543389 0)
(9.41336 0.572188 0)
(9.36322 0.601929 0)
(9.311 0.632691 0)
(9.25671 0.664556 0)
(9.20039 0.697612 0)
(9.14207 0.731945 0)
(9.0818 0.767647 0)
(9.01965 0.804805 0)
(8.95567 0.843509 0)
(8.88996 0.883842 0)
(8.82263 0.92588 0)
(8.75378 0.96969 0)
(8.68355 1.01533 0)
(8.61208 1.06283 0)
(8.53952 1.11223 0)
(8.46601 1.16351 0)
(8.39173 1.21666 0)
(8.3168 1.27164 0)
(8.24137 1.32837 0)
(8.16554 1.38677 0)
(8.08937 1.44673 0)
(8.01288 1.50813 0)
(7.93602 1.57082 0)
(7.85868 1.63463 0)
(7.78067 1.6994 0)
(7.70173 1.7649 0)
(7.62158 1.83092 0)
(7.54 1.89723 0)
(7.45689 1.96363 0)
(7.37252 2.03 0)
(7.28766 2.09643 0)
(7.20391 2.16331 0)
(7.12386 2.23153 0)
(7.05121 2.30261 0)
(6.9906 2.37872 0)
(6.94697 2.46255 0)
(6.92442 2.55682 0)
(6.92441 2.66342 0)
(6.94362 2.78224 0)
(6.97203 2.90994 0)
(6.99184 3.03905 0)
(6.97807 3.1579 0)
(6.90133 3.25168 0)
(6.73254 3.30479 0)
(6.44884 3.3039 0)
(6.03976 3.2415 0)
(5.51223 3.11933 0)
(4.89385 2.95153 0)
(4.23325 2.76638 0)
(3.59413 2.60262 0)
(3.03866 2.49501 0)
(2.6041 2.45401 0)
(2.2883 2.4573 0)
(2.05686 2.46416 0)
(1.86642 2.44037 0)
(1.68623 2.37255 0)
(1.50516 2.26415 0)
(1.32488 2.12271 0)
(1.14954 1.95124 0)
(0.980528 1.74819 0)
(0.817067 1.51139 0)
(0.658348 1.24051 0)
(0.504609 0.936986 0)
(0.357043 0.602336 0)
(0.217526 0.236707 0)
(0.0880268 -0.162184 0)
(-0.0308152 -0.598103 0)
(-0.138298 -1.07668 0)
(-0.232241 -1.60316 0)
(-0.309379 -2.17856 0)
(-0.364601 -2.79335 0)
(-0.391312 -3.41871 0)
(-0.381739 -4.00319 0)
(-0.330365 -4.48986 0)
(-0.33276 -4.90374 0)
(-0.159105 -4.74825 0)
(9.99979 0.011672 0)
(9.9981 0.0349796 0)
(9.99453 0.0582525 0)
(9.989 0.0815066 0)
(9.98157 0.104759 0)
(9.97229 0.128031 0)
(9.96114 0.151349 0)
(9.94807 0.174745 0)
(9.93308 0.198248 0)
(9.91614 0.221891 0)
(9.89727 0.24571 0)
(9.87643 0.26974 0)
(9.85363 0.294019 0)
(9.82885 0.318585 0)
(9.80209 0.343478 0)
(9.77332 0.368739 0)
(9.74255 0.394414 0)
(9.70977 0.420547 0)
(9.67497 0.447186 0)
(9.63814 0.474384 0)
(9.59927 0.502194 0)
(9.55837 0.530672 0)
(9.51543 0.55988 0)
(9.47046 0.58988 0)
(9.42346 0.62074 0)
(9.37444 0.65253 0)
(9.32343 0.685322 0)
(9.27043 0.719193 0)
(9.21549 0.75422 0)
(9.15863 0.790482 0)
(9.09991 0.828059 0)
(9.03939 0.867028 0)
(8.97714 0.907465 0)
(8.91323 0.94944 0)
(8.84775 0.993018 0)
(8.78082 1.03825 0)
(8.71253 1.08519 0)
(8.64303 1.13386 0)
(8.57243 1.18427 0)
(8.50088 1.23642 0)
(8.4285 1.2903 0)
(8.35544 1.34585 0)
(8.28182 1.40304 0)
(8.20776 1.46179 0)
(8.13336 1.52201 0)
(8.0587 1.58363 0)
(7.98385 1.64654 0)
(7.90879 1.71065 0)
(7.83352 1.77586 0)
(7.75791 1.84204 0)
(7.6818 1.90907 0)
(7.60494 1.97675 0)
(7.52699 2.04488 0)
(7.44759 2.1132 0)
(7.36646 2.18142 0)
(7.28351 2.24932 0)
(7.19913 2.31682 0)
(7.11446 2.38416 0)
(7.0317 2.45212 0)
(6.95436 2.52222 0)
(6.88721 2.59685 0)
(6.83581 2.6792 0)
(6.80528 2.7728 0)
(6.79842 2.88057 0)
(6.81326 3.00342 0)
(6.84066 3.13871 0)
(6.86292 3.27893 0)
(6.85429 3.41141 0)
(6.78399 3.51933 0)
(6.62157 3.58428 0)
(6.34389 3.59008 0)
(5.94275 3.52769 0)
(5.43184 3.40086 0)
(4.85072 3.23036 0)
(4.25992 3.0512 0)
(3.72259 2.89841 0)
(3.27975 2.78843 0)
(2.93668 2.7118 0)
(2.67019 2.64346 0)
(2.44851 2.55961 0)
(2.24772 2.44721 0)
(2.05652 2.30285 0)
(1.87186 2.12671 0)
(1.69298 1.91856 0)
(1.5188 1.67742 0)
(1.34811 1.4028 0)
(1.18046 1.09513 0)
(1.0164 0.755099 0)
(0.857254 0.38256 0)
(0.705116 -0.0244872 0)
(0.561253 -0.470007 0)
(0.426167 -0.959568 0)
(0.30162 -1.49895 0)
(0.189997 -2.09039 0)
(0.0944967 -2.72614 0)
(0.0177795 -3.37909 0)
(-0.0352817 -3.99595 0)
(-0.0547368 -4.50594 0)
(-0.115197 -4.88759 0)
(-0.0436602 -4.94482 0)
(9.99979 0.0125878 0)
(9.99811 0.0377261 0)
(9.99458 0.0628342 0)
(9.98909 0.087934 0)
(9.98174 0.113045 0)
(9.97257 0.13819 0)
(9.96155 0.163395 0)
(9.94865 0.188689 0)
(9.93387 0.214102 0)
(9.91718 0.239667 0)
(9.89859 0.265418 0)
(9.87808 0.291389 0)
(9.85564 0.317619 0)
(9.83128 0.344144 0)
(9.80497 0.371006 0)
(9.77671 0.398244 0)
(9.7465 0.425903 0)
(9.71432 0.454027 0)
(9.68018 0.482663 0)
(9.64406 0.511862 0)
(9.60597 0.541676 0)
(9.56591 0.572158 0)
(9.52387 0.603368 0)
(9.47987 0.635364 0)
(9.43392 0.668209 0)
(9.38602 0.70197 0)
(9.33619 0.736712 0)
(9.28447 0.772505 0)
(9.23087 0.80942 0)
(9.17545 0.847526 0)
(9.11824 0.886895 0)
(9.05931 0.927594 0)
(8.99871 0.969689 0)
(8.93653 1.01324 0)
(8.87284 1.0583 0)
(8.80774 1.10491 0)
(8.74134 1.15312 0)
(8.67373 1.20294 0)
(8.60503 1.25438 0)
(8.53535 1.30744 0)
(8.46482 1.36209 0)
(8.39355 1.41831 0)
(8.32164 1.47604 0)
(8.24921 1.53522 0)
(8.17634 1.59578 0)
(8.10313 1.65765 0)
(8.02966 1.72075 0)
(7.95597 1.785 0)
(7.88214 1.85034 0)
(7.80817 1.91669 0)
(7.73406 1.98399 0)
(7.65976 2.05215 0)
(7.58512 2.12106 0)
(7.50991 2.19057 0)
(7.43379 2.26046 0)
(7.35634 2.33046 0)
(7.2771 2.40023 0)
(7.19575 2.46949 0)
(7.11236 2.53805 0)
(7.02773 2.60608 0)
(6.94377 2.67434 0)
(6.86389 2.74448 0)
(6.79308 2.81925 0)
(6.73749 2.90246 0)
(6.7032 2.99852 0)
(6.69417 3.11126 0)
(6.70937 3.24224 0)
(6.74006 3.38866 0)
(6.76805 3.54167 0)
(6.76632 3.68588 0)
(6.70252 3.80063 0)
(6.5454 3.86348 0)
(6.2735 3.85598 0)
(5.88486 3.77132 0)
(5.40434 3.62094 0)
(4.88144 3.4337 0)
(4.37434 3.24383 0)
(3.92728 3.07445 0)
(3.55672 2.92883 0)
(3.2544 2.79475 0)
(3.00072 2.6554 0)
(2.77709 2.4976 0)
(2.57111 2.31382 0)
(2.37576 2.1004 0)
(2.18698 1.85548 0)
(2.00219 1.5781 0)
(1.81998 1.26788 0)
(1.64005 0.924637 0)
(1.46301 0.547603 0)
(1.29034 0.13474 0)
(1.12374 -0.318037 0)
(0.963674 -0.81589 0)
(0.811234 -1.3647 0)
(0.667739 -1.96728 0)
(0.534296 -2.61657 0)
(0.411322 -3.28598 0)
(0.299291 -3.92072 0)
(0.200921 -4.44879 0)
(0.0770957 -4.82013 0)
(0.0514538 -4.9663 0)
(9.9998 0.0134947 0)
(9.99813 0.0404456 0)
(9.99464 0.067369 0)
(9.98922 0.0942909 0)
(9.98196 0.121234 0)
(9.9729 0.148221 0)
(9.96204 0.175279 0)
(9.94933 0.202436 0)
(9.93476 0.229722 0)
(9.91834 0.25717 0)
(9.90004 0.284812 0)
(9.87988 0.312683 0)
(9.85783 0.34082 0)
(9.83389 0.369261 0)
(9.80805 0.398045 0)
(9.78031 0.427212 0)
(9.75067 0.456805 0)
(9.71911 0.486868 0)
(9.68564 0.517447 0)
(9.65025 0.548591 0)
(9.61295 0.580348 0)
(9.57373 0.612773 0)
(9.5326 0.645919 0)
(9.48957 0.679843 0)
(9.44466 0.714603 0)
(9.39786 0.750262 0)
(9.34922 0.786879 0)
(9.29874 0.82452 0)
(9.24647 0.863246 0)
(9.19245 0.903121 0)
(9.13671 0.944208 0)
(9.07931 0.986567 0)
(9.02031 1.03025 0)
(8.95979 1.07532 0)
(8.89781 1.12181 0)
(8.83446 1.16977 0)
(8.76984 1.21921 0)
(8.70404 1.27017 0)
(8.63715 1.32264 0)
(8.56929 1.37662 0)
(8.50054 1.43209 0)
(8.43102 1.48902 0)
(8.3608 1.54737 0)
(8.29 1.60707 0)
(8.21867 1.66807 0)
(8.14691 1.7303 0)
(8.07478 1.79369 0)
(8.00234 1.85817 0)
(7.92966 1.92367 0)
(7.85678 1.99014 0)
(7.78378 2.05751 0)
(7.71068 2.12575 0)
(7.63751 2.1948 0)
(7.56424 2.26461 0)
(7.49079 2.33508 0)
(7.41693 2.40608 0)
(7.34233 2.47741 0)
(7.26652 2.54881 0)
(7.18895 2.61992 0)
(7.10912 2.69042 0)
(7.02691 2.7601 0)
(6.94292 2.82913 0)
(6.85899 2.89837 0)
(6.77871 2.96973 0)
(6.70753 3.04646 0)
(6.65246 3.13306 0)
(6.62068 3.23467 0)
(6.6171 3.35557 0)
(6.64108 3.49693 0)
(6.6832 3.65421 0)
(6.72344 3.81519 0)
(6.73222 3.95978 0)
(6.67502 4.06256 0)
(6.52097 4.09871 0)
(6.25398 4.05285 0)
(5.88258 3.92717 0)
(5.44123 3.74276 0)
(4.97889 3.53063 0)
(4.54031 3.31751 0)
(4.15186 3.11599 0)
(3.81915 2.92407 0)
(3.53406 2.73152 0)
(3.28372 2.52699 0)
(3.05634 2.30169 0)
(2.84317 2.05006 0)
(2.63834 1.76887 0)
(2.43827 1.45624 0)
(2.24113 1.11081 0)
(2.0464 0.730979 0)
(1.8545 0.314256 0)
(1.66685 -0.143447 0)
(1.48372 -0.647053 0)
(1.30532 -1.20203 0)
(1.1317 -1.81076 0)
(0.961767 -2.46571 0)
(0.792899 -3.13987 0)
(0.621723 -3.77949 0)
(0.447032 -4.31188 0)
(0.248543 -4.68449 0)
(0.126767 -4.8491 0)
(9.9998 0.0143906 0)
(9.99816 0.0431317 0)
(9.99471 0.0718465 0)
(9.98937 0.100565 0)
(9.98221 0.129311 0)
(9.97329 0.158109 0)
(9.96258 0.186987 0)
(9.95007 0.215971 0)
(9.93575 0.245093 0)
(9.91959 0.274384 0)
(9.90162 0.303878 0)
(9.8818 0.333607 0)
(9.86015 0.36361 0)
(9.83665 0.393922 0)
(9.8113 0.424582 0)
(9.78409 0.45563 0)
(9.75503 0.487108 0)
(9.7241 0.519058 0)
(9.69131 0.551526 0)
(9.65666 0.584558 0)
(9.62015 0.618201 0)
(9.58178 0.652508 0)
(9.54156 0.687528 0)
(9.4995 0.723316 0)
(9.45562 0.759926 0)
(9.40993 0.797415 0)
(9.36244 0.835839 0)
(9.3132 0.875257 0)
(9.26223 0.915726 0)
(9.20956 0.957303 0)
(9.15524 1.00004 0)
(9.09933 1.044 0)
(9.04188 1.08922 0)
(8.98294 1.13575 0)
(8.92261 1.18363 0)
(8.86094 1.23289 0)
(8.79802 1.28355 0)
(8.73394 1.33563 0)
(8.66878 1.38913 0)
(8.60264 1.44405 0)
(8.5356 1.50036 0)
(8.46776 1.55804 0)
(8.39919 1.61705 0)
(8.32997 1.67734 0)
(8.26019 1.73885 0)
(8.18989 1.80153 0)
(8.11916 1.8653 0)
(8.04802 1.93011 0)
(7.97655 1.99589 0)
(7.90479 2.06257 0)
(7.83279 2.1301 0)
(7.76062 2.19843 0)
(7.68833 2.26752 0)
(7.61598 2.33733 0)
(7.54363 2.40783 0)
(7.47127 2.47898 0)
(7.39884 2.55073 0)
(7.32617 2.62296 0)
(7.25292 2.6955 0)
(7.17861 2.7681 0)
(7.10263 2.84043 0)
(7.02443 2.91213 0)
(6.94381 2.98303 0)
(6.8614 3.05335 0)
(6.77929 3.1241 0)
(6.70157 3.19755 0)
(6.63459 3.27741 0)
(6.58648 3.36875 0)
(6.56544 3.47698 0)
(6.57674 3.60584 0)
(6.61885 3.75457 0)
(6.67981 3.91494 0)
(6.73579 4.06967 0)
(6.75345 4.19368 0)
(6.6972 4.25944 0)
(6.54054 4.24588 0)
(6.2773 4.14722 0)
(5.92604 3.97597 0)
(5.52369 3.7572 0)
(5.11133 3.51725 0)
(4.72066 3.2739 0)
(4.36778 3.03296 0)
(4.0549 2.79092 0)
(3.77603 2.54009 0)
(3.52239 2.27254 0)
(3.2858 1.98203 0)
(3.05996 1.66407 0)
(2.8407 1.31536 0)
(2.62562 0.93293 0)
(2.41361 0.513447 0)
(2.20465 0.0527196 0)
(1.99888 -0.45418 0)
(1.79498 -1.01175 0)