/*--------------------------------*- C++ -*----------------------------------*\
| =========                 |                                                 |
| \\      /  F ield         | OpenFOAM: The Open Source CFD Toolbox           |
|  \\    /   O peration     | Version:  4.1                                   |
|   \\  /    A nd           | Web:      www.OpenFOAM.org                      |
|    \\/     M anipulation  |                                                 |
\*---------------------------------------------------------------------------*/
FoamFile
{
    version     2.0;
    format      ascii;
    class       surfaceScalarField;
    location    "0.1";
    object      phi;
}
// * * * * * * * * * * * * * * * * * * * * * * * * * * * * * * * * * * * * * //

dimensions      [0 3 -1 0 0 0 0];

internalField   nonuniform List<scalar> 
87025
(
1.98731e-05
1.26908e-07
1.97627e-05
1.10344e-07
1.96689e-05
9.38047e-08
1.95788e-05
9.014e-08
1.94903e-05
8.85458e-08
1.94025e-05
8.77846e-08
1.9315e-05
8.751e-08
1.92275e-05
8.75116e-08
1.91398e-05
8.7692e-08
1.90518e-05
8.80027e-08
1.89633e-05
8.84171e-08
1.88744e-05
8.89199e-08
1.87849e-05
8.9502e-08
1.86948e-05
9.01578e-08
1.86039e-05
9.08837e-08
1.85122e-05
9.16778e-08
1.84197e-05
9.25387e-08
1.83262e-05
9.34659e-08
1.82317e-05
9.44594e-08
1.81362e-05
9.55192e-08
1.80396e-05
9.66458e-08
1.79417e-05
9.784e-08
1.78426e-05
9.91025e-08
1.77422e-05
1.00434e-07
1.76404e-05
1.01836e-07
1.7537e-05
1.0331e-07
1.74322e-05
1.04856e-07
1.73257e-05
1.06476e-07
1.72175e-05
1.08172e-07
1.71076e-05
1.09945e-07
1.69958e-05
1.11796e-07
1.68821e-05
1.13728e-07
1.67663e-05
1.15741e-07
1.66485e-05
1.17837e-07
1.65285e-05
1.20019e-07
1.64062e-05
1.22288e-07
1.62815e-05
1.24645e-07
1.61544e-05
1.27093e-07
1.60248e-05
1.29633e-07
1.58925e-05
1.32267e-07
1.57576e-05
1.34997e-07
1.56197e-05
1.37825e-07
1.5479e-05
1.40753e-07
1.53352e-05
1.43782e-07
1.51883e-05
1.46914e-07
1.50381e-05
1.50151e-07
1.48846e-05
1.53494e-07
1.47277e-05
1.56945e-07
1.45672e-05
1.60505e-07
1.4403e-05
1.64175e-07
1.42351e-05
1.67957e-07
1.40632e-05
1.71851e-07
1.38873e-05
1.75858e-07
1.37074e-05
1.79979e-07
1.35231e-05
1.84214e-07
1.33346e-05
1.88562e-07
1.31416e-05
1.93023e-07
1.2944e-05
1.97596e-07
1.27417e-05
2.02281e-07
1.25346e-05
2.07075e-07
1.23226e-05
2.11977e-07
1.21057e-05
2.16983e-07
1.18836e-05
2.22092e-07
1.16563e-05
2.27298e-07
1.14237e-05
2.32597e-07
1.11857e-05
2.37985e-07
1.09422e-05
2.43456e-07
1.06932e-05
2.49002e-07
1.04386e-05
2.54617e-07
1.01783e-05
2.60292e-07
9.9123e-06
2.66018e-07
9.64051e-06
2.71784e-07
9.36293e-06
2.77581e-07
9.07953e-06
2.83396e-07
8.79032e-06
2.89217e-07
8.49529e-06
2.95029e-07
8.19447e-06
3.00817e-07
7.8879e-06
3.06567e-07
7.57564e-06
3.12262e-07
7.25776e-06
3.17885e-07
6.93434e-06
3.23417e-07
6.6055e-06
3.2884e-07
6.27136e-06
3.34136e-07
5.93208e-06
3.39283e-07
5.58782e-06
3.44264e-07
5.23876e-06
3.49057e-07
4.88512e-06
3.53642e-07
4.52712e-06
3.58e-07
4.16501e-06
3.62112e-07
3.79905e-06
3.65957e-07
3.42953e-06
3.69518e-07
3.05675e-06
3.72778e-07
2.68103e-06
3.7572e-07
2.3027e-06
3.78329e-07
1.92211e-06
3.8059e-07
1.53962e-06
3.82492e-07
1.1556e-06
3.84022e-07
7.70436e-07
3.85163e-07
3.84558e-07
3.85878e-07
3.84558e-07
1.99403e-05
1.86598e-07
1.98563e-05
1.94359e-07
1.97672e-05
1.82884e-07
1.96787e-05
1.78642e-07
1.95907e-05
1.7655e-07
1.9503e-05
1.75533e-07
1.94153e-05
1.75188e-07
1.93275e-05
1.75284e-07
1.92395e-05
1.75691e-07
1.91512e-05
1.76338e-07
1.90624e-05
1.77181e-07
1.89731e-05
1.78196e-07
1.88833e-05
1.79367e-07
1.87927e-05
1.80683e-07
1.87015e-05
1.82138e-07
1.86094e-05
1.8373e-07
1.85165e-05
1.85454e-07
1.84227e-05
1.87312e-07
1.83278e-05
1.89301e-07
1.82319e-05
1.91424e-07
1.81349e-05
1.9368e-07
1.80367e-05
1.96072e-07
1.79372e-05
1.986e-07
1.78363e-05
2.01267e-07
1.77341e-05
2.04075e-07
1.76304e-05
2.07027e-07
1.75251e-05
2.10124e-07
1.74182e-05
2.1337e-07
1.73096e-05
2.16767e-07
1.71992e-05
2.20318e-07
1.7087e-05
2.24026e-07
1.69729e-05
2.27896e-07
1.68567e-05
2.31929e-07
1.67384e-05
2.36129e-07
1.66179e-05
2.405e-07
1.64951e-05
2.45045e-07
1.637e-05
2.49768e-07
1.62424e-05
2.54673e-07
1.61123e-05
2.59763e-07
1.59795e-05
2.65042e-07
1.5844e-05
2.70513e-07
1.57057e-05
2.7618e-07
1.55644e-05
2.82048e-07
1.542e-05
2.88119e-07
1.52725e-05
2.94396e-07
1.51218e-05
3.00884e-07
1.49677e-05
3.07585e-07
1.48102e-05
3.14503e-07
1.4649e-05
3.2164e-07
1.44842e-05
3.28998e-07
1.43156e-05
3.3658e-07
1.4143e-05
3.44388e-07
1.39665e-05
3.52423e-07
1.37858e-05
3.60687e-07
1.36008e-05
3.69178e-07
1.34115e-05
3.77898e-07
1.32176e-05
3.86846e-07
1.30192e-05
3.9602e-07
1.28161e-05
4.05418e-07
1.26081e-05
4.15036e-07
1.23952e-05
4.2487e-07
1.21773e-05
4.34916e-07
1.19542e-05
4.45167e-07
1.17259e-05
4.55615e-07
1.14923e-05
4.66251e-07
1.12532e-05
4.77066e-07
1.10086e-05
4.88048e-07
1.07584e-05
4.99183e-07
1.05026e-05
5.10457e-07
1.0241e-05
5.21853e-07
9.97366e-06
5.33353e-07
9.70051e-06
5.44936e-07
9.42151e-06
5.56581e-07
9.13664e-06
5.68264e-07
8.8459e-06
5.79959e-07
8.54929e-06
5.91639e-07
8.24683e-06
6.03273e-07
7.93857e-06
6.14831e-07
7.62455e-06
6.26279e-07
7.30485e-06
6.37584e-07
6.97956e-06
6.48708e-07
6.64879e-06
6.59615e-07
6.31266e-06
6.70266e-07
5.97132e-06
6.80621e-07
5.62494e-06
6.90641e-07
5.27371e-06
7.00285e-07
4.91784e-06
7.09512e-07
4.55756e-06
7.18283e-07
4.19312e-06
7.26558e-07
3.82478e-06
7.34298e-07
3.45283e-06
7.41467e-07
3.07757e-06
7.4803e-07
2.69934e-06
7.53953e-07
2.31846e-06
7.59206e-07
1.93529e-06
7.63761e-07
1.55019e-06
7.67594e-07
1.16353e-06
7.70683e-07
7.75682e-07
7.7301e-07
3.86993e-07
7.74567e-07
7.71551e-07
1.99301e-05
2.56521e-07
1.98468e-05
2.77655e-07
1.97613e-05
2.68354e-07
1.96748e-05
2.65141e-07
1.95879e-05
2.63429e-07
1.95009e-05
2.62593e-07
1.94136e-05
2.62418e-07
1.93262e-05
2.62741e-07
1.92384e-05
2.6345e-07
1.91503e-05
2.64477e-07
1.90617e-05
2.65777e-07
1.89726e-05
2.67321e-07
1.88828e-05
2.69091e-07
1.87925e-05
2.71075e-07
1.87013e-05
2.73265e-07
1.86094e-05
2.75657e-07
1.85166e-05
2.78247e-07
1.84229e-05
2.81036e-07
1.83282e-05
2.84022e-07
1.82324e-05
2.87207e-07
1.81355e-05
2.90593e-07
1.80374e-05
2.94181e-07
1.7938e-05
2.97975e-07
1.78373e-05
3.01976e-07
1.77352e-05
3.06189e-07
1.76316e-05
3.10616e-07
1.75264e-05
3.15263e-07
1.74197e-05
3.20132e-07
1.73112e-05
3.25228e-07
1.7201e-05
3.30555e-07
1.70889e-05
3.36119e-07
1.69748e-05
3.41923e-07
1.68588e-05
3.47973e-07
1.67407e-05
3.54275e-07
1.66203e-05
3.60832e-07
1.64977e-05
3.67651e-07
1.63728e-05
3.74737e-07
1.62453e-05
3.82096e-07
1.61154e-05
3.89732e-07
1.59827e-05
3.97652e-07
1.58474e-05
4.05862e-07
1.57092e-05
4.14366e-07
1.55681e-05
4.2317e-07
1.54239e-05
4.32279e-07
1.52766e-05
4.41699e-07
1.51261e-05
4.51435e-07
1.49722e-05
4.61492e-07
1.48148e-05
4.71873e-07
1.46539e-05
4.82584e-07
1.44892e-05
4.93628e-07
1.43208e-05
5.05009e-07
1.41485e-05
5.16729e-07
1.39721e-05
5.2879e-07
1.37916e-05
5.41195e-07
1.36068e-05
5.53943e-07
1.34177e-05
5.67035e-07
1.32241e-05
5.8047e-07
1.30258e-05
5.94245e-07
1.28229e-05
6.08357e-07
1.26151e-05
6.22802e-07
1.24024e-05
6.37572e-07
1.21847e-05
6.52662e-07
1.19618e-05
6.6806e-07
1.17336e-05
6.83756e-07
1.15002e-05
6.99737e-07
1.12612e-05
7.15988e-07
1.10168e-05
7.32491e-07
1.07668e-05
7.49226e-07
1.0511e-05
7.66172e-07
1.02496e-05
7.83303e-07
9.98235e-06
8.00592e-07
9.70927e-06
8.18009e-07
9.43033e-06
8.35521e-07
9.14551e-06
8.53093e-07
8.85478e-06
8.70684e-07
8.55817e-06
8.88255e-07
8.25568e-06
9.0576e-07
7.94736e-06
9.23152e-07
7.63325e-06
9.40383e-07
7.31344e-06
9.57399e-07
6.988e-06
9.74146e-07
6.65705e-06
9.90568e-07
6.32071e-06
1.00661e-06
5.97912e-06
1.0222e-06
5.63247e-06
1.0373e-06
5.28093e-06
1.05182e-06
4.92471e-06
1.06573e-06
4.56405e-06
1.07894e-06
4.1992e-06
1.09141e-06
3.83042e-06
1.10308e-06
3.458e-06
1.11389e-06
3.08225e-06
1.12378e-06
2.70349e-06
1.13271e-06
2.32206e-06
1.14063e-06
1.93832e-06
1.1475e-06
1.55263e-06
1.15328e-06
1.16537e-06
1.15794e-06
7.76918e-07
1.16146e-06
3.87669e-07
1.16382e-06
1.15922e-06
1.99264e-05
3.30167e-07
1.98427e-05
3.61351e-07
1.97584e-05
3.5262e-07
1.96731e-05
3.50468e-07
1.95871e-05
3.49408e-07
1.95007e-05
3.48988e-07
1.9414e-05
3.49151e-07
1.93269e-05
3.49809e-07
1.92394e-05
3.5089e-07
1.91516e-05
3.52343e-07
1.90632e-05
3.54128e-07
1.89743e-05
3.5622e-07
1.88848e-05
3.58602e-07
1.87946e-05
3.61261e-07
1.87037e-05
3.6419e-07
1.8612e-05
3.67385e-07
1.85194e-05
3.70842e-07
1.84259e-05
3.74562e-07
1.83313e-05
3.78544e-07
1.82358e-05
3.8279e-07
1.8139e-05
3.87303e-07
1.80411e-05
3.92086e-07
1.7942e-05
3.97141e-07
1.78415e-05
4.02473e-07
1.77396e-05
4.08087e-07
1.76362e-05
4.13987e-07
1.75313e-05
4.20179e-07
1.74248e-05
4.26667e-07
1.73165e-05
4.33457e-07
1.72065e-05
4.40556e-07
1.70947e-05
4.4797e-07
1.69809e-05
4.55705e-07
1.68651e-05
4.63767e-07
1.67472e-05
4.72164e-07
1.66271e-05
4.80903e-07
1.65048e-05
4.89991e-07
1.63801e-05
4.99434e-07
1.6253e-05
5.09241e-07
1.61233e-05
5.19419e-07
1.5991e-05
5.29974e-07
1.58559e-05
5.40916e-07
1.5718e-05
5.52251e-07
1.55772e-05
5.63986e-07
1.54333e-05
5.76129e-07
1.52864e-05
5.88686e-07
1.51361e-05
6.01666e-07
1.49825e-05
6.15073e-07
1.48255e-05
6.28914e-07
1.46649e-05
6.43196e-07
1.45006e-05
6.57922e-07
1.43325e-05
6.73098e-07
1.41605e-05
6.88728e-07
1.39845e-05
7.04814e-07
1.38043e-05
7.2136e-07
1.36199e-05
7.38365e-07
1.34311e-05
7.5583e-07
1.32378e-05
7.73754e-07
1.30399e-05
7.92134e-07
1.28373e-05
8.10965e-07
1.26299e-05
8.30242e-07
1.24175e-05
8.49956e-07
1.22001e-05
8.70098e-07
1.19775e-05
8.90655e-07
1.17496e-05
9.11613e-07
1.15164e-05
9.32954e-07
1.12777e-05
9.54657e-07
1.10335e-05
9.76701e-07
1.07837e-05
9.99059e-07
1.05282e-05
1.0217e-06
1.02669e-05
1.04459e-06
9.99975e-06
1.0677e-06
9.72677e-06
1.09099e-06
9.44789e-06
1.1144e-06
9.16309e-06
1.1379e-06
8.87234e-06
1.16143e-06
8.57566e-06
1.18494e-06
8.27306e-06
1.20836e-06
7.96457e-06
1.23164e-06
7.65026e-06
1.2547e-06
7.33017e-06
1.27748e-06
7.00441e-06
1.29991e-06
6.67307e-06
1.3219e-06
6.33629e-06
1.34339e-06
5.9942e-06
1.36429e-06
5.64699e-06
1.38451e-06
5.29482e-06
1.40399e-06
4.93792e-06
1.42263e-06
4.57652e-06
1.44035e-06
4.21086e-06
1.45707e-06
3.84121e-06
1.47272e-06
3.46788e-06
1.48722e-06
3.09117e-06
1.50049e-06
2.7114e-06
1.51248e-06
2.32893e-06
1.52311e-06
1.9441e-06
1.53233e-06
1.55729e-06
1.54009e-06
1.16889e-06
1.54635e-06
7.79277e-07
1.55107e-06
3.88864e-07
1.55423e-06
1.54808e-06
1.99246e-05
4.05518e-07
1.98405e-05
4.45515e-07
1.97566e-05
4.36469e-07
1.9672e-05
4.35124e-07
1.95867e-05
4.34722e-07
1.95009e-05
4.34801e-07
1.94146e-05
4.35387e-07
1.9328e-05
4.36453e-07
1.92409e-05
4.3796e-07
1.91534e-05
4.39875e-07
1.90653e-05
4.42172e-07
1.89767e-05
4.4483e-07
1.88875e-05
4.47835e-07
1.87976e-05
4.51178e-07
1.87069e-05
4.5485e-07
1.86154e-05
4.5885e-07
1.85231e-05
4.63175e-07
1.84298e-05
4.67825e-07
1.83356e-05
4.72802e-07
1.82403e-05
4.78107e-07
1.81438e-05
4.83744e-07
1.80462e-05
4.89717e-07
1.79473e-05
4.96031e-07
1.78471e-05
5.02689e-07
1.77455e-05
5.097e-07
1.76424e-05
5.17067e-07
1.75378e-05
5.24798e-07
1.74316e-05
5.32899e-07
1.73236e-05
5.41378e-07
1.72139e-05
5.50243e-07
1.71024e-05
5.595e-07
1.6989e-05
5.69159e-07
1.68735e-05
5.79226e-07
1.6756e-05
5.89712e-07
1.66362e-05
6.00625e-07
1.65142e-05
6.11974e-07
1.63899e-05
6.23767e-07
1.62631e-05
6.36015e-07
1.61338e-05
6.48727e-07
1.60019e-05
6.61911e-07
1.58672e-05
6.75577e-07
1.57297e-05
6.89736e-07
1.55893e-05
7.04395e-07
1.54459e-05
7.19564e-07
1.52993e-05
7.35252e-07
1.51495e-05
7.51468e-07
1.49964e-05
7.6822e-07
1.48398e-05
7.85515e-07
1.46796e-05
8.03362e-07
1.45158e-05
8.21766e-07
1.43481e-05
8.40734e-07
1.41766e-05
8.6027e-07
1.4001e-05
8.80379e-07
1.38213e-05
9.01064e-07
1.36374e-05
9.22326e-07
1.3449e-05
9.44166e-07
1.32562e-05
9.66582e-07
1.30588e-05
9.8957e-07
1.28566e-05
1.01313e-06
1.26496e-05
1.03724e-06
1.24376e-05
1.06191e-06
1.22206e-05
1.08712e-06
1.19984e-05
1.11285e-06
1.1771e-05
1.13909e-06
1.15381e-05
1.16581e-06
1.12998e-05
1.19299e-06
1.10559e-05
1.2206e-06
1.08063e-05
1.24861e-06
1.05511e-05
1.27698e-06
1.029e-05
1.30567e-06
1.0023e-05
1.33464e-06
9.75019e-06
1.36383e-06
9.47139e-06
1.3932e-06
9.18662e-06
1.42268e-06
8.89585e-06
1.4522e-06
8.59908e-06
1.4817e-06
8.29634e-06
1.5111e-06
7.98764e-06
1.54033e-06
7.67304e-06
1.5693e-06
7.3526e-06
1.59792e-06
7.02641e-06
1.6261e-06
6.69456e-06
1.65375e-06
6.35719e-06
1.68076e-06
6.01443e-06
1.70704e-06
5.66646e-06
1.73249e-06
5.31346e-06
1.75699e-06
4.95564e-06
1.78044e-06
4.59324e-06
1.80275e-06
4.22651e-06
1.82381e-06
3.85571e-06
1.84352e-06
3.48116e-06
1.86178e-06
3.10315e-06
1.8785e-06
2.72203e-06
1.8936e-06
2.33815e-06
1.90699e-06
1.95186e-06
1.91861e-06
1.56355e-06
1.9284e-06
1.17361e-06
1.93629e-06
7.82443e-07
1.94225e-06
3.90451e-07
1.94622e-06
1.93854e-06
1.99239e-05
4.81645e-07
1.98394e-05
5.29958e-07
1.97558e-05
5.20122e-07
1.96716e-05
5.19348e-07
1.95867e-05
5.19527e-07
1.95014e-05
5.20104e-07
1.94157e-05
5.21146e-07
1.93295e-05
5.22656e-07
1.92428e-05
5.24621e-07
1.91557e-05
5.27026e-07
1.9068e-05
5.29854e-07
1.89797e-05
5.33093e-07
1.88908e-05
5.36731e-07
1.88012e-05
5.40763e-07
1.87109e-05
5.45183e-07
1.86198e-05
5.4999e-07
1.85278e-05
5.55183e-07
1.84348e-05
5.60762e-07
1.83409e-05
5.66731e-07
1.82459e-05
5.73091e-07
1.81498e-05
5.79849e-07
1.80525e-05
5.87008e-07
1.7954e-05
5.94574e-07
1.78541e-05
6.02554e-07
1.77529e-05
6.10955e-07
1.76501e-05
6.19783e-07
1.75459e-05
6.29047e-07
1.744e-05
6.38754e-07
1.73325e-05
6.48914e-07
1.72232e-05
6.59536e-07
1.71121e-05
6.70629e-07
1.6999e-05
6.82203e-07
1.6884e-05
6.94268e-07
1.67669e-05
7.06834e-07
1.66476e-05
7.19912e-07
1.6526e-05
7.33512e-07
1.64022e-05
7.47647e-07
1.62759e-05
7.62326e-07
1.6147e-05
7.77561e-07
1.60156e-05
7.93365e-07
1.58814e-05
8.09747e-07
1.57444e-05
8.26719e-07
1.56045e-05
8.44293e-07
1.54616e-05
8.6248e-07
1.53156e-05
8.81291e-07
1.51663e-05
9.00735e-07
1.50137e-05
9.20823e-07
1.48576e-05
9.41566e-07
1.4698e-05
9.62971e-07
1.45347e-05
9.85047e-07
1.43677e-05
1.0078e-06
1.41967e-05
1.03124e-06
1.40217e-05
1.05537e-06
1.38426e-05
1.08019e-06
1.36592e-05
1.10571e-06
1.34715e-05
1.13193e-06
1.32792e-05
1.15884e-06
1.30823e-05
1.18644e-06
1.28807e-05
1.21473e-06
1.26743e-05
1.2437e-06
1.24629e-05
1.27333e-06
1.22464e-05
1.30362e-06
1.20247e-05
1.33454e-06
1.17977e-05
1.36608e-06
1.15653e-05
1.3982e-06
1.13274e-05
1.43089e-06
1.10839e-05
1.4641e-06
1.08347e-05
1.49779e-06
1.05797e-05
1.53194e-06
1.03189e-05
1.56647e-06
1.00522e-05
1.60135e-06
9.77956e-06
1.63651e-06
9.50087e-06
1.67189e-06
9.21614e-06
1.70741e-06
8.92535e-06
1.74299e-06
8.62849e-06
1.77856e-06
8.32557e-06
1.81403e-06
8.01661e-06
1.84929e-06
7.70166e-06
1.88425e-06
7.38078e-06
1.9188e-06
7.05406e-06
1.95283e-06
6.72158e-06
1.98623e-06
6.38347e-06
2.01887e-06
6.03988e-06
2.05064e-06
5.69096e-06
2.0814e-06
5.33692e-06
2.11103e-06
4.97795e-06
2.13941e-06
4.6143e-06
2.16641e-06
4.24621e-06
2.19189e-06
3.87397e-06
2.21575e-06
3.49788e-06
2.23787e-06
3.11825e-06
2.25813e-06
2.73543e-06
2.27642e-06
2.34977e-06
2.29265e-06
1.96165e-06
2.30674e-06
1.57145e-06
2.3186e-06
1.17957e-06
2.32816e-06
7.86431e-07
2.33539e-06
3.92447e-07
2.3402e-06
2.33098e-06
1.99236e-05
5.58073e-07
1.98391e-05
6.14477e-07
1.97556e-05
6.036e-07
1.96717e-05
6.03226e-07
1.95873e-05
6.03897e-07
1.95025e-05
6.0494e-07
1.94172e-05
6.06436e-07
1.93315e-05
6.08403e-07
1.92452e-05
6.10844e-07
1.91585e-05
6.13754e-07
1.90712e-05
6.17127e-07
1.89834e-05
6.20955e-07
1.88949e-05
6.25234e-07
1.88057e-05
6.2996e-07
1.87157e-05
6.3513e-07
1.8625e-05
6.40744e-07
1.85333e-05
6.46803e-07
1.84408e-05
6.5331e-07
1.83473e-05
6.60267e-07
1.82527e-05
6.67679e-07
1.8157e-05
6.75552e-07
1.80601e-05
6.83892e-07
1.7962e-05
6.92705e-07
1.78625e-05
7.01999e-07
1.77617e-05
7.11782e-07
1.76594e-05
7.22063e-07
1.75556e-05
7.32851e-07
1.74502e-05
7.44156e-07
1.73431e-05
7.55989e-07
1.72343e-05
7.68359e-07
1.71237e-05
7.81277e-07
1.70111e-05
7.94756e-07
1.68966e-05
8.08808e-07
1.678e-05
8.23443e-07
1.66612e-05
8.38675e-07
1.65402e-05
8.54517e-07
1.64168e-05
8.70981e-07
1.62911e-05
8.8808e-07
1.61628e-05
9.05829e-07
1.6032e-05
9.2424e-07
1.58984e-05
9.43326e-07
1.5762e-05
9.63102e-07
1.56227e-05
9.83579e-07
1.54804e-05
1.00477e-06
1.5335e-05
1.02669e-06
1.51864e-05
1.04936e-06
1.50344e-05
1.07277e-06
1.4879e-05
1.09695e-06
1.47201e-05
1.12191e-06
1.45575e-05
1.14765e-06
1.43911e-05
1.17418e-06
1.42208e-05
1.20152e-06
1.40465e-05
1.22966e-06
1.38681e-05
1.25862e-06
1.36854e-05
1.2884e-06
1.34984e-05
1.31899e-06
1.33068e-05
1.3504e-06
1.31106e-05
1.38262e-06
1.29097e-05
1.41565e-06
1.27039e-05
1.44948e-06
1.24931e-05
1.4841e-06
1.22773e-05
1.51948e-06
1.20562e-05
1.55562e-06
1.18298e-05
1.59248e-06
1.1598e-05
1.63004e-06
1.13606e-05
1.66826e-06
1.11176e-05
1.70711e-06
1.08688e-05
1.74654e-06
1.06143e-05
1.7865e-06
1.03538e-05
1.82693e-06
1.00874e-05
1.86778e-06
9.81494e-06
1.90897e-06
9.53639e-06
1.95043e-06
9.25173e-06
1.99207e-06
8.96092e-06
2.0338e-06
8.66395e-06
2.07553e-06
8.36083e-06
2.11715e-06
8.05157e-06
2.15855e-06
7.73622e-06
2.19961e-06
7.41482e-06
2.2402e-06
7.08745e-06
2.2802e-06
6.75422e-06
2.31946e-06
6.41523e-06
2.35786e-06
6.07064e-06
2.39523e-06
5.7206e-06
2.43144e-06
5.3653e-06
2.46633e-06
5.00495e-06
2.49976e-06
4.63979e-06
2.53157e-06
4.27007e-06
2.56161e-06
3.89609e-06
2.58974e-06
3.51814e-06
2.61582e-06
3.13655e-06
2.63972e-06
2.75167e-06
2.6613e-06
2.36386e-06
2.68046e-06
1.97351e-06
2.69709e-06
1.58101e-06
2.71109e-06
1.18679e-06
2.72239e-06
7.91265e-07
2.73091e-06
3.94866e-07
2.7366e-06
2.72585e-06
1.99235e-05
6.34531e-07
1.98391e-05
6.98905e-07
1.97559e-05
6.86849e-07
1.96723e-05
6.86765e-07
1.95884e-05
6.87853e-07
1.9504e-05
6.89322e-07
1.94192e-05
6.91255e-07
1.93339e-05
6.93677e-07
1.92481e-05
6.96597e-07
1.91619e-05
7.00019e-07
1.90751e-05
7.03943e-07
1.89876e-05
7.08367e-07
1.88996e-05
7.1329e-07
1.88108e-05
7.18712e-07
1.87213e-05
7.24632e-07
1.8631e-05
7.31053e-07
1.85399e-05
7.37977e-07
1.84478e-05
7.45407e-07
1.83547e-05
7.53348e-07
1.82606e-05
7.61807e-07
1.81653e-05
7.70789e-07
1.80689e-05
7.80302e-07
1.79713e-05
7.90354e-07
1.78723e-05
8.00954e-07
1.7772e-05
8.12111e-07
1.76702e-05
8.23836e-07
1.75669e-05
8.36139e-07
1.7462e-05
8.49032e-07
1.73555e-05
8.62525e-07
1.72472e-05
8.76632e-07
1.71371e-05
8.91365e-07
1.70252e-05
9.06738e-07
1.69112e-05
9.22763e-07
1.67952e-05
9.39455e-07
1.6677e-05
9.56829e-07
1.65566e-05
9.74899e-07
1.6434e-05
9.93679e-07
1.63088e-05
1.01319e-06
1.61812e-05
1.03343e-06
1.6051e-05
1.05444e-06
1.59182e-05
1.07622e-06
1.57825e-05
1.09878e-06
1.56439e-05
1.12215e-06
1.55023e-05
1.14634e-06
1.53577e-05
1.17136e-06
1.52098e-05
1.19723e-06
1.50586e-05
1.22396e-06
1.4904e-05
1.25157e-06
1.47459e-05
1.28006e-06
1.4584e-05
1.30946e-06
1.44185e-05
1.33976e-06
1.4249e-05
1.37099e-06
1.40755e-05
1.40315e-06
1.38979e-05
1.43624e-06
1.3716e-05
1.47027e-06
1.35298e-05
1.50524e-06
1.3339e-05
1.54115e-06
1.31437e-05
1.578e-06
1.29435e-05
1.61578e-06
1.27385e-05
1.65448e-06
1.25285e-05
1.69409e-06
1.23134e-05
1.73459e-06
1.20931e-05
1.77596e-06
1.18674e-05
1.81818e-06
1.16362e-05
1.86121e-06
1.13995e-05
1.90501e-06
1.1157e-05
1.94954e-06
1.09088e-05
1.99475e-06
1.06547e-05
2.04058e-06
1.03947e-05
2.08698e-06
1.01286e-05
2.13387e-06
9.8564e-06
2.18117e-06
9.57804e-06
2.22879e-06
9.29347e-06
2.27664e-06
9.00265e-06
2.32462e-06
8.70558e-06
2.37261e-06
8.40223e-06
2.42049e-06
8.09263e-06
2.46815e-06
7.77681e-06
2.51543e-06
7.45482e-06
2.56219e-06
7.12672e-06
2.60829e-06
6.79261e-06
2.65357e-06
6.45261e-06
2.69786e-06
6.10685e-06
2.74099e-06
5.75549e-06
2.7828e-06
5.39872e-06
2.8231e-06
5.03676e-06
2.86172e-06
4.66983e-06
2.89849e-06
4.29821e-06
2.93323e-06
3.92217e-06
2.96578e-06
3.54204e-06
2.99596e-06
3.15813e-06
3.02362e-06
2.77083e-06
3.04861e-06
2.38048e-06
3.0708e-06
1.98751e-06
3.09006e-06
1.59231e-06
3.10629e-06
1.19532e-06
3.11938e-06
7.96974e-07
3.12926e-06
3.97722e-07
3.13586e-06
3.12357e-06
1.99237e-05
7.10843e-07
1.98395e-05
7.83109e-07
1.97565e-05
7.698e-07
1.96734e-05
7.69931e-07
1.95898e-05
7.71379e-07
1.95059e-05
7.73237e-07
1.94216e-05
7.75586e-07
1.93368e-05
7.78452e-07
1.92516e-05
7.81848e-07
1.91658e-05
7.85782e-07
1.90795e-05
7.90258e-07
1.89926e-05
7.9528e-07
1.8905e-05
8.00848e-07
1.88168e-05
8.06965e-07
1.87278e-05
8.13635e-07
1.8638e-05
8.20859e-07
1.85473e-05
8.28644e-07
1.84557e-05
8.36993e-07
1.83631e-05
8.45913e-07
1.82695e-05
8.55411e-07
1.81748e-05
8.65495e-07
1.8079e-05
8.76173e-07
1.79819e-05
8.87456e-07
1.78835e-05
8.99352e-07
1.77837e-05
9.11873e-07
1.76825e-05
9.25031e-07
1.75798e-05
9.38838e-07
1.74755e-05
9.53306e-07
1.73696e-05
9.68448e-07
1.7262e-05
9.84279e-07
1.71525e-05
1.00081e-06
1.70412e-05
1.01807e-06
1.69279e-05
1.03605e-06
1.68126e-05
1.05479e-06
1.66951e-05
1.07429e-06
1.65754e-05
1.09457e-06
1.64535e-05
1.11565e-06
1.63291e-05
1.13755e-06
1.62022e-05
1.16028e-06
1.60728e-05
1.18387e-06
1.59407e-05
1.20832e-06
1.58058e-05
1.23366e-06
1.56681e-05
1.2599e-06
1.55274e-05
1.28707e-06
1.53835e-05
1.31517e-06
1.52365e-05
1.34423e-06
1.50862e-05
1.37427e-06
1.49325e-05
1.40529e-06
1.47753e-05
1.43731e-06
1.46144e-05
1.47035e-06
1.44497e-05
1.50442e-06
1.42812e-05
1.53953e-06
1.41086e-05
1.5757e-06
1.39319e-05
1.61291e-06
1.3751e-05
1.6512e-06
1.35657e-05
1.69054e-06
1.33759e-05
1.73096e-06
1.31814e-05
1.77244e-06
1.29822e-05
1.81498e-06
1.27781e-05
1.85857e-06
1.2569e-05
1.90319e-06
1.23548e-05
1.94884e-06
1.21353e-05
1.99547e-06
1.19104e-05
2.04307e-06
1.168e-05
2.0916e-06
1.1444e-05
2.14102e-06
1.12022e-05
2.19129e-06
1.09547e-05
2.24234e-06
1.07011e-05
2.29411e-06
1.04416e-05
2.34654e-06
1.01759e-05
2.39954e-06
9.90402e-06
2.45304e-06
9.62589e-06
2.50692e-06
9.34145e-06
2.56108e-06
9.05065e-06
2.61542e-06
8.75346e-06
2.66979e-06
8.44988e-06
2.72407e-06
8.13992e-06
2.77811e-06
7.82358e-06
2.83176e-06
7.50092e-06
2.88485e-06
7.172e-06
2.93721e-06
6.8369e-06
2.98866e-06
6.49574e-06
3.03902e-06
6.14865e-06
3.08808e-06
5.79579e-06
3.13566e-06
5.43735e-06
3.18155e-06
5.07353e-06
3.22554e-06
4.70457e-06
3.26745e-06
4.33075e-06
3.30706e-06
3.95235e-06
3.34417e-06
3.5697e-06
3.37861e-06
3.18313e-06
3.41019e-06
2.79302e-06
3.43873e-06
2.39975e-06
3.46407e-06
2.00374e-06
3.48608e-06
1.60541e-06
3.50462e-06
1.20521e-06
3.51958e-06
8.03592e-07
3.53088e-06
4.01032e-07
3.53842e-06
3.5246e-06
1.9924e-05
7.86888e-07
1.98401e-05
8.6698e-07
1.97575e-05
8.52377e-07
1.96748e-05
8.52676e-07
1.95917e-05
8.54443e-07
1.95083e-05
8.56658e-07
1.94245e-05
8.59401e-07
1.93402e-05
8.62698e-07
1.92555e-05
8.66562e-07
1.91703e-05
8.71003e-07
1.90845e-05
8.76029e-07
1.89981e-05
8.81645e-07
1.89111e-05
8.87857e-07
1.88234e-05
8.94667e-07
1.8735e-05
9.02082e-07
1.86457e-05
9.10106e-07
1.85556e-05
9.18746e-07
1.84646e-05
9.28007e-07
1.83726e-05
9.37899e-07
1.82796e-05
9.48429e-07
1.81855e-05
9.59606e-07
1.80902e-05
9.7144e-07
1.79938e-05
9.83943e-07
1.7896e-05
9.97125e-07
1.77969e-05
1.011e-06
1.76963e-05
1.02558e-06
1.75943e-05
1.04087e-06
1.74907e-05
1.0569e-06
1.73854e-05
1.07368e-06
1.72785e-05
1.09122e-06
1.71698e-05
1.10954e-06
1.70592e-05
1.12866e-06
1.69466e-05
1.14859e-06
1.68321e-05
1.16935e-06
1.67154e-05
1.19096e-06
1.65965e-05
1.21344e-06
1.64754e-05
1.23681e-06
1.63518e-05
1.26108e-06
1.62258e-05
1.28628e-06
1.60973e-05
1.31242e-06
1.59661e-05
1.33953e-06
1.58321e-05
1.36763e-06
1.56953e-05
1.39673e-06
1.55555e-05
1.42686e-06
1.54126e-05
1.45803e-06
1.52666e-05
1.49027e-06
1.51173e-05
1.52359e-06
1.49645e-05
1.55801e-06
1.48083e-05
1.59355e-06
1.46484e-05
1.63022e-06
1.44848e-05
1.66804e-06
1.43173e-05
1.70703e-06
1.41458e-05
1.74719e-06
1.39702e-05
1.78853e-06
1.37904e-05
1.83106e-06
1.36061e-05
1.87478e-06
1.34174e-05
1.91971e-06
1.3224e-05
1.96583e-06
1.30258e-05
2.01314e-06
1.28228e-05
2.06162e-06
1.26147e-05
2.11128e-06
1.24014e-05
2.16208e-06
1.21829e-05
2.21401e-06
1.19589e-05
2.26703e-06
1.17294e-05
2.32111e-06
1.14943e-05
2.3762e-06
1.12533e-05
2.43225e-06
1.10064e-05
2.4892e-06
1.07536e-05
2.54698e-06
1.04946e-05
2.60552e-06
1.02294e-05
2.66473e-06
9.95791e-06
2.72452e-06
9.68006e-06
2.78476e-06
9.39578e-06
2.84536e-06
9.10502e-06
2.90618e-06
8.80775e-06
2.96707e-06
8.50393e-06
3.02789e-06
8.19356e-06
3.08848e-06
7.87667e-06
3.14866e-06
7.55328e-06
3.20824e-06
7.22345e-06
3.26704e-06
6.88726e-06
3.32486e-06
6.54481e-06
3.38147e-06
6.19623e-06
3.43666e-06
5.84168e-06
3.49021e-06
5.48135e-06
3.54188e-06
5.11543e-06
3.59146e-06
4.74418e-06
3.63869e-06
4.36787e-06
3.68337e-06
3.98679e-06
3.72525e-06
3.60127e-06
3.76413e-06
3.21167e-06
3.79979e-06
2.81836e-06
3.83203e-06
2.42176e-06
3.86068e-06
2.02228e-06
3.88556e-06
1.62037e-06
3.90652e-06
1.21651e-06
3.92344e-06
8.11157e-07
3.93622e-06
4.04817e-07
3.94476e-06
3.92942e-06
1.99243e-05
8.62569e-07
1.98409e-05
9.50428e-07
1.97587e-05
9.3451e-07
1.96765e-05
9.34944e-07
1.95939e-05
9.36998e-07
1.9511e-05
9.39545e-07
1.94278e-05
9.42663e-07
1.93441e-05
9.46376e-07
1.92599e-05
9.50698e-07
1.91753e-05
9.5564e-07
1.90901e-05
9.6121e-07
1.90044e-05
9.67416e-07
1.8918e-05
9.74266e-07
1.88309e-05
9.81764e-07
1.8743e-05
9.89919e-07
1.86544e-05
9.98737e-07
1.85649e-05
1.00823e-06
1.84745e-05
1.01839e-06
1.83832e-05
1.02925e-06
1.82908e-05
1.0408e-06
1.81973e-05
1.05306e-06
1.81028e-05
1.06604e-06
1.80069e-05
1.07975e-06
1.79099e-05
1.09421e-06
1.78114e-05
1.10942e-06
1.77116e-05
1.12541e-06
1.76103e-05
1.14218e-06
1.75075e-05
1.15976e-06
1.7403e-05
1.17815e-06
1.72968e-05
1.19739e-06
1.71889e-05
1.21748e-06
1.70791e-05
1.23844e-06
1.69674e-05
1.2603e-06
1.68537e-05
1.28307e-06
1.67379e-05
1.30677e-06
1.66199e-05
1.33143e-06
1.64996e-05
1.35706e-06
1.6377e-05
1.38368e-06
1.6252e-05
1.41133e-06
1.61244e-05
1.44001e-06
1.59942e-05
1.46976e-06
1.58612e-05
1.5006e-06
1.57254e-05
1.53254e-06
1.55866e-05
1.56561e-06
1.54449e-05
1.59983e-06
1.52999e-05
1.63522e-06
1.51517e-05
1.67181e-06
1.50001e-05
1.70961e-06
1.4845e-05
1.74865e-06
1.46863e-05
1.78894e-06
1.45238e-05
1.8305e-06
1.43575e-05
1.87335e-06
1.41872e-05
1.91749e-06
1.40128e-05
1.96295e-06
1.38341e-05
2.00972e-06
1.3651e-05
2.05783e-06
1.34635e-05
2.10726e-06
1.32713e-05
2.15802e-06
1.30743e-05
2.21011e-06
1.28724e-05
2.26351e-06
1.26655e-05
2.31822e-06
1.24534e-05
2.37421e-06
1.22359e-05
2.43146e-06
1.2013e-05
2.48994e-06
1.17845e-05
2.5496e-06
1.15503e-05
2.61041e-06
1.13102e-05
2.67231e-06
1.10642e-05
2.73523e-06
1.08121e-05
2.7991e-06
1.05538e-05
2.86384e-06
1.02892e-05
2.92935e-06
1.00182e-05
2.99553e-06
9.74066e-06
3.06226e-06
9.4566e-06
3.12942e-06
9.16592e-06
3.19685e-06
8.86857e-06
3.26442e-06
8.56452e-06
3.33194e-06
8.25375e-06
3.39925e-06
7.93626e-06
3.46614e-06
7.61208e-06
3.53242e-06
7.28126e-06
3.59786e-06
6.94387e-06
3.66225e-06
6.6e-06
3.72534e-06
6.24978e-06
3.78688e-06
5.89336e-06
3.84663e-06
5.53092e-06
3.90432e-06
5.16267e-06
3.9597e-06
4.78886e-06
4.01251e-06
4.40976e-06
4.06247e-06
4.02567e-06
4.10934e-06
3.63693e-06
4.15287e-06
3.24391e-06
4.19281e-06
2.84701e-06
4.22894e-06
2.44664e-06
4.26105e-06
2.04324e-06
4.28895e-06
1.6373e-06
4.31247e-06
1.22929e-06
4.33145e-06
8.19716e-07
4.3458e-06
4.09099e-07
4.35537e-06
4.33852e-06
1.99248e-05
9.37809e-07
1.98418e-05
1.03337e-06
1.97602e-05
1.01613e-06
1.96785e-05
1.01668e-06
1.95965e-05
1.019e-06
1.95141e-05
1.02185e-06
1.94315e-05
1.02533e-06
1.93484e-05
1.02945e-06
1.92649e-05
1.03421e-06
1.91809e-05
1.03965e-06
1.90963e-05
1.04575e-06
1.90112e-05
1.05254e-06
1.89255e-05
1.06003e-06
1.8839e-05
1.06821e-06
1.87518e-05
1.07709e-06
1.86639e-05
1.0867e-06
1.85751e-05
1.09703e-06
1.84854e-05
1.10809e-06
1.83947e-05
1.1199e-06
1.83031e-05
1.13246e-06
1.82103e-05
1.14579e-06
1.81165e-05
1.15991e-06
1.80214e-05
1.17481e-06
1.79251e-05
1.19053e-06
1.78274e-05
1.20707e-06
1.77284e-05
1.22445e-06
1.76279e-05
1.24268e-06
1.75259e-05
1.26179e-06
1.74222e-05
1.28179e-06
1.73169e-05
1.3027e-06
1.72099e-05
1.32454e-06
1.7101e-05
1.34733e-06
1.69902e-05
1.37109e-06
1.68774e-05
1.39585e-06
1.67625e-05
1.42162e-06
1.66455e-05
1.44844e-06
1.65263e-05
1.47631e-06
1.64047e-05
1.50527e-06
1.62807e-05
1.53534e-06
1.61541e-05
1.56654e-06
1.6025e-05
1.59891e-06
1.58931e-05
1.63245e-06
1.57585e-05
1.66721e-06
1.56209e-05
1.7032e-06
1.54803e-05
1.74045e-06
1.53365e-05
1.77898e-06
1.51895e-05
1.81882e-06
1.50391e-05
1.85998e-06
1.48853e-05
1.9025e-06
1.47278e-05
1.94639e-06
1.45667e-05
1.99167e-06
1.44016e-05
2.03837e-06
1.42326e-05
2.08649e-06
1.40595e-05
2.13605e-06
1.38822e-05
2.18706e-06
1.37005e-05
2.23954e-06
1.35143e-05
2.29348e-06
1.33234e-05
2.34889e-06
1.31277e-05
2.40577e-06
1.29271e-05
2.4641e-06
1.27215e-05
2.52387e-06
1.25106e-05
2.58508e-06
1.22944e-05
2.64768e-06
1.20727e-05
2.71165e-06
1.18453e-05
2.77696e-06
1.16122e-05
2.84354e-06
1.13732e-05
2.91134e-06
1.11281e-05
2.98031e-06
1.08768e-05
3.05035e-06
1.06193e-05
3.12138e-06
1.03554e-05
3.1933e-06
1.00849e-05
3.26599e-06
9.80782e-06
3.33934e-06
9.52404e-06
3.41319e-06
9.23349e-06
3.48741e-06
8.9361e-06
3.56181e-06
8.63182e-06
3.63622e-06
8.32064e-06
3.71043e-06
8.00254e-06
3.78425e-06
7.67753e-06
3.85743e-06
7.34565e-06
3.92974e-06
7.00696e-06
4.00094e-06
6.66155e-06
4.07075e-06
6.30953e-06
4.1389e-06
5.95105e-06
4.2051e-06
5.5863e-06
4.26908e-06
5.21547e-06
4.33053e-06
4.83882e-06
4.38916e-06
4.45663e-06
4.44467e-06
4.06919e-06
4.49677e-06
3.67688e-06
4.54518e-06
3.28005e-06
4.58964e-06
2.87912e-06
4.62987e-06
2.47454e-06
4.66563e-06
2.06676e-06
4.69672e-06
1.65629e-06
4.72294e-06
1.24363e-06
4.74411e-06
8.29322e-07
4.76011e-06
4.13906e-07
4.77079e-06
4.75243e-06
1.99253e-05
1.01254e-06
1.98429e-05
1.11575e-06
1.97619e-05
1.09718e-06
1.96807e-05
1.09782e-06
1.95993e-05
1.10039e-06
1.95176e-05
1.10354e-06
1.94356e-05
1.10736e-06
1.93532e-05
1.11186e-06
1.92703e-05
1.11707e-06
1.9187e-05
1.12298e-06
1.91031e-05
1.12962e-06
1.90187e-05
1.13698e-06
1.89336e-05
1.14509e-06
1.88479e-05
1.15394e-06
1.87614e-05
1.16355e-06
1.86742e-05
1.17393e-06
1.85861e-05
1.18509e-06
1.84972e-05
1.19704e-06
1.84073e-05
1.20979e-06
1.83164e-05
1.22336e-06
1.82244e-05
1.23775e-06
1.81314e-05
1.25298e-06
1.80371e-05
1.26907e-06
1.79416e-05
1.28603e-06
1.78448e-05
1.30388e-06
1.77466e-05
1.32263e-06
1.7647e-05
1.34231e-06
1.75459e-05
1.36293e-06
1.74431e-05
1.38451e-06
1.73388e-05
1.40708e-06
1.72327e-05
1.43065e-06