# vtk DataFile Version 2.0
sampleSurface
ASCII
DATASET POLYDATA
POINTS 652 double
0 0 0
0.02 0 0
0.02 0 0.1
0 0 0.1
0.04 0 0
0.04 0 0.1
0.06 0 0
0.06 0 0.1
0.08 0 0
0.08 0 0.1
0.1 0 0
0.1 0 0.1
0.12 0 0
0.12 0 0.1
0.14 0 0
0.14 0 0.1
0.16 0 0
0.16 0 0.1
0.18 0 0
0.18 0 0.1
0.2 0 0
0.2 0 0.1
0.22 0 0
0.22 0 0.1
0.24 0 0
0.24 0 0.1
0.26 0 0
0.26 0 0.1
0.28 0 0
0.28 0 0.1
0.3 0 0
0.3 0 0.1
0.32 0 0
0.32 0 0.1
0.34 0 0
0.34 0 0.1
0.36 0 0
0.36 0 0.1
0.38 0 0
0.38 0 0.1
0.4 0 0
0.4 0 0.1
0.42 0 0
0.42 0 0.1
0.44 0 0
0.44 0 0.1
0.46 0 0
0.46 0 0.1
0.48 0 0
0.48 0 0.1
0.5 0 0
0.5 0 0.1
0.52 0 0
0.52 0 0.1
0.54 0 0
0.54 0 0.1
0.56 0 0
0.56 0 0.1
0.58 0 0
0.58 0 0.1
0.6 0 0
0.6 0 0.1
0.62 0 0
0.62 0 0.1
0.64 0 0
0.64 0 0.1
0.66 0 0
0.66 0 0.1
0.68 0 0
0.68 0 0.1
0.7 0 0
0.7 0 0.1
0.72 0 0
0.72 0 0.1
0.74 0 0
0.74 0 0.1
0.76 0 0
0.76 0 0.1
0.78 0 0
0.78 0 0.1
0.8 0 0
0.8 0 0.1
0.82 0 0
0.82 0 0.1
0.84 0 0
0.84 0 0.1
0.86 0 0
0.86 0 0.1
0.88 0 0
0.88 0 0.1
0.9 0 0
0.9 0 0.1
0.92 0 0
0.92 0 0.1
0.94 0 0
0.94 0 0.1
0.96 0 0
0.96 0 0.1
0.98 0 0
0.98 0 0.1
1 0 0
1 0 0.1
1.02 0 0
1.02 0 0.1
1.04 0 0
1.04 0 0.1
1.06 0 0
1.06 0 0.1
1.08 0 0
1.08 0 0.1
1.1 0 0
1.1 0 0.1
1.12 0 0
1.12 0 0.1
1.14 0 0
1.14 0 0.1
1.16 0 0
1.16 0 0.1
1.18 0 0
1.18 0 0.1
1.2 0 0
1.2 0 0.1
1.22 0 0
1.22 0 0.1
1.24 0 0
1.24 0 0.1
1.26 0 0
1.26 0 0.1
1.28 0 0
1.28 0 0.1
1.3 0 0
1.3 0 0.1
1.32 0 0
1.32 0 0.1
1.34 0 0
1.34 0 0.1
1.36 0 0
1.36 0 0.1
1.38 0 0
1.38 0 0.1
1.4 0 0
1.4 0 0.1
1.42 0 0
1.42 0 0.1
1.44 0 0
1.44 0 0.1
1.46 0 0
1.46 0 0.1
1.48 0 0
1.48 0 0.1
1.5 0 0
1.5 0 0.1
1.52 0 0
1.52 0 0.1
1.54 0 0
1.54 0 0.1
1.56 0 0
1.56 0 0.1
1.58 0 0
1.58 0 0.1
1.6 0 0
1.6 0 0.1
1.62 0 0
1.62 0 0.1
1.64 0 0
1.64 0 0.1
1.66 0 0
1.66 0 0.1
1.68 0 0
1.68 0 0.1
1.7 0 0
1.7 0 0.1
1.72 0 0
1.72 0 0.1
1.74 0 0
1.74 0 0.1
1.76 0 0
1.76 0 0.1
1.78 0 0
1.78 0 0.1
1.8 0 0
1.8 0 0.1
1.82 0 0
1.82 0 0.1
1.84 0 0
1.84 0 0.1
1.86 0 0
1.86 0 0.1
1.88 0 0
1.88 0 0.1
1.9 0 0
1.9 0 0.1
1.92 0 0
1.92 0 0.1
1.94 0 0
1.94 0 0.1
1.96 0 0
1.96 0 0.1
1.98 0 0
1.98 0 0.1
2 0 0
2 0 0.1
2 0.02 0
2 0.02 0.1
2 0.04 0
2 0.04 0.1
2 0.06 0
2 0.06 0.1
2 0.08 0
2 0.08 0.1
2 0.1 0
2 0.1 0.1
2 0.12 0
2 0.12 0.1
2 0.14 0
2 0.14 0.1
2 0.16 0
2 0.16 0.1
2 0.18 0
2 0.18 0.1
2 0.2 0
2 0.2 0.1
2 0.22 0
2 0.22 0.1
2 0.24 0
2 0.24 0.1
2 0.26 0
2 0.26 0.1
2 0.28 0
2 0.28 0.1
2 0.3 0
2 0.3 0.1
2 0.32 0
2 0.32 0.1
2 0.34 0
2 0.34 0.1
2 0.36 0
2 0.36 0.1
2 0.38 0
2 0.38 0.1
2 0.4 0
2 0.4 0.1
2 0.42 0
2 0.42 0.1
2 0.44 0
2 0.44 0.1
2 0.46 0
2 0.46 0.1
2 0.48 0
2 0.48 0.1
2 0.5 0
2 0.5 0.1
2 0.52 0
2 0.52 0.1
2 0.54 0
2 0.54 0.1
2 0.56 0
2 0.56 0.1
2 0.58 0
2 0.58 0.1
2 0.6 0
2 0.6 0.1
2 0.62 0
2 0.62 0.1
2 0.64 0
2 0.64 0.1
2 0.66 0
2 0.66 0.1
2 0.68 0
2 0.68 0.1
2 0.7 0
2 0.7 0.1
2 0.72 0
2 0.72 0.1
2 0.74 0
2 0.74 0.1
2 0.76 0
2 0.76 0.1
2 0.78 0
2 0.78 0.1
2 0.8 0
2 0.8 0.1
2 0.82 0
2 0.82 0.1
2 0.84 0
2 0.84 0.1
2 0.86 0
2 0.86 0.1
2 0.88 0
2 0.88 0.1
2 0.9 0
2 0.9 0.1
2 0.92 0
2 0.92 0.1
2 0.94 0
2 0.94 0.1
2 0.96 0
2 0.96 0.1
2 0.98 0
2 0.98 0.1
2 1 0
2 1 0.1
2.02 1 0
2.02 1 0.1
2.04 1 0
2.04 1 0.1
2.06 1 0
2.06 1 0.1
2.08 1 0
2.08 1 0.1
2.1 1 0
2.1 1 0.1
2.12 1 0
2.12 1 0.1
2.14 1 0
2.14 1 0.1
2.16 1 0
2.16 1 0.1
2.18 1 0
2.18 1 0.1
2.2 1 0
2.2 1 0.1
2.22 1 0
2.22 1 0.1
2.24 1 0
2.24 1 0.1
2.26 1 0
2.26 1 0.1
2.28 1 0
2.28 1 0.1
2.3 1 0
2.3 1 0.1
2.32 1 0
2.32 1 0.1
2.34 1 0
2.34 1 0.1
2.36 1 0
2.36 1 0.1
2.38 1 0
2.38 1 0.1
2.4 1 0
2.4 1 0.1
2.42 1 0
2.42 1 0.1
2.44 1 0
2.44 1 0.1
2.46 1 0
2.46 1 0.1
2.48 1 0
2.48 1 0.1
2.5 1 0
2.5 1 0.1
2.5 0 0
2.5 0 0.1
2.5 0.02 0.1
2.5 0.02 0
2.5 0.04 0.1
2.5 0.04 0
2.5 0.06 0.1
2.5 0.06 0
2.5 0.08 0.1
2.5 0.08 0
2.5 0.1 0.1
2.5 0.1 0
2.5 0.12 0.1
2.5 0.12 0
2.5 0.14 0.1
2.5 0.14 0
2.5 0.16 0.1
2.5 0.16 0
2.5 0.18 0.1
2.5 0.18 0
2.5 0.2 0.1
2.5 0.2 0
2.5 0.22 0.1
2.5 0.22 0
2.5 0.24 0.1
2.5 0.24 0
2.5 0.26 0.1
2.5 0.26 0
2.5 0.28 0.1
2.5 0.28 0
2.5 0.3 0.1
2.5 0.3 0
2.5 0.32 0.1
2.5 0.32 0
2.5 0.34 0.1
2.5 0.34 0
2.5 0.36 0.1
2.5 0.36 0
2.5 0.38 0.1
2.5 0.38 0
2.5 0.4 0.1
2.5 0.4 0
2.5 0.42 0.1
2.5 0.42 0
2.5 0.44 0.1
2.5 0.44 0
2.5 0.46 0.1
2.5 0.46 0
2.5 0.48 0.1
2.5 0.48 0
2.5 0.5 0.1
2.5 0.5 0
2.5 0.52 0.1
2.5 0.52 0
2.5 0.54 0.1
2.5 0.54 0
2.5 0.56 0.1
2.5 0.56 0
2.5 0.58 0.1
2.5 0.58 0
2.5 0.6 0.1
2.5 0.6 0
2.5 0.62 0.1
2.5 0.62 0
2.5 0.64 0.1
2.5 0.64 0
2.5 0.66 0.1
2.5 0.66 0
2.5 0.68 0.1
2.5 0.68 0
2.5 0.7 0.1
2.5 0.7 0
2.5 0.72 0.1
2.5 0.72 0
2.5 0.74 0.1
2.5 0.74 0
2.5 0.76 0.1
2.5 0.76 0
2.5 0.78 0.1
2.5 0.78 0
2.5 0.8 0.1
2.5 0.8 0
2.5 0.82 0.1
2.5 0.82 0
2.5 0.84 0.1
2.5 0.84 0
2.5 0.86 0.1
2.5 0.86 0
2.5 0.88 0.1
2.5 0.88 0
2.5 0.9 0.1
2.5 0.9 0
2.5 0.92 0.1
2.5 0.92 0
2.5 0.94 0.1
2.5 0.94 0
2.5 0.96 0.1
2.5 0.96 0
2.5 0.98 0.1
2.5 0.98 0
2.52 0 0
2.52 0 0.1
2.54 0 0
2.54 0 0.1
2.56 0 0
2.56 0 0.1
2.58 0 0
2.58 0 0.1
2.6 0 0
2.6 0 0.1
2.62 0 0
2.62 0 0.1
2.64 0 0
2.64 0 0.1
2.66 0 0
2.66 0 0.1
2.68 0 0
2.68 0 0.1
2.7 0 0
2.7 0 0.1
2.72 0 0
2.72 0 0.1
2.74 0 0
2.74 0 0.1
2.76 0 0
2.76 0 0.1
2.78 0 0
2.78 0 0.1
2.8 0 0
2.8 0 0.1
2.82 0 0
2.82 0 0.1
2.84 0 0
2.84 0 0.1
2.86 0 0
2.86 0 0.1
2.88 0 0
2.88 0 0.1
2.9 0 0
2.9 0 0.1
2.92 0 0
2.92 0 0.1
2.94 0 0
2.94 0 0.1
2.96 0 0
2.96 0 0.1
2.98 0 0
2.98 0 0.1
3 0 0
3 0 0.1
3.02 0 0
3.02 0 0.1
3.04 0 0
3.04 0 0.1
3.06 0 0
3.06 0 0.1
3.08 0 0
3.08 0 0.1
3.1 0 0
3.1 0 0.1
3.12 0 0
3.12 0 0.1
3.14 0 0
3.14 0 0.1
3.16 0 0
3.16 0 0.1
3.18 0 0
3.18 0 0.1
3.2 0 0
3.2 0 0.1
3.22 0 0
3.22 0 0.1
3.24 0 0
3.24 0 0.1
3.26 0 0
3.26 0 0.1
3.28 0 0
3.28 0 0.1
3.3 0 0
3.3 0 0.1
3.32 0 0
3.32 0 0.1
3.34 0 0
3.34 0 0.1
3.36 0 0
3.36 0 0.1
3.38 0 0
3.38 0 0.1
3.4 0 0
3.4 0 0.1
3.42 0 0
3.42 0 0.1
3.44 0 0
3.44 0 0.1
3.46 0 0
3.46 0 0.1
3.48 0 0
3.48 0 0.1
3.5 0 0
3.5 0 0.1
3.52 0 0
3.52 0 0.1
3.54 0 0
3.54 0 0.1
3.56 0 0
3.56 0 0.1
3.58 0 0
3.58 0 0.1
3.6 0 0
3.6 0 0.1
3.62 0 0
3.62 0 0.1
3.64 0 0
3.64 0 0.1
3.66 0 0
3.66 0 0.1
3.68 0 0
3.68 0 0.1
3.7 0 0
3.7 0 0.1
3.72 0 0
3.72 0 0.1
3.74 0 0
3.74 0 0.1
3.76 0 0
3.76 0 0.1
3.78 0 0
3.78 0 0.1
3.8 0 0
3.8 0 0.1
3.82 0 0
3.82 0 0.1
3.84 0 0
3.84 0 0.1
3.86 0 0
3.86 0 0.1
3.88 0 0
3.88 0 0.1
3.9 0 0
3.9 0 0.1
3.92 0 0
3.92 0 0.1
3.94 0 0
3.94 0 0.1
3.96 0 0
3.96 0 0.1
3.98 0 0
3.98 0 0.1
4 0 0
4 0 0.1
4.02 0 0
4.02 0 0.1
4.04 0 0
4.04 0 0.1
4.06 0 0
4.06 0 0.1
4.08 0 0
4.08 0 0.1
4.1 0 0
4.1 0 0.1
4.12 0 0
4.12 0 0.1
4.14 0 0
4.14 0 0.1
4.16 0 0
4.16 0 0.1
4.18 0 0
4.18 0 0.1
4.2 0 0
4.2 0 0.1
4.22 0 0
4.22 0 0.1
4.24 0 0
4.24 0 0.1
4.26 0 0
4.26 0 0.1
4.28 0 0
4.28 0 0.1
4.3 0 0
4.3 0 0.1
4.32 0 0
4.32 0 0.1
4.34 0 0
4.34 0 0.1
4.36 0 0
4.36 0 0.1
4.38 0 0
4.38 0 0.1
4.4 0 0
4.4 0 0.1
4.42 0 0
4.42 0 0.1
4.44 0 0
4.44 0 0.1
4.46 0 0
4.46 0 0.1
4.48 0 0
4.48 0 0.1
4.5 0 0
4.5 0 0.1

POLYGONS 325 1625
4 0 1 2 3
4 1 4 5 2
4 4 6 7 5
4 6 8 9 7
4 8 10 11 9
4 10 12 13 11
4 12 14 15 13
4 14 16 17 15
4 16 18 19 17
4 18 20 21 19
4 20 22 23 21
4 22 24 25 23
4 24 26 27 25
4 26 28 29 27
4 28 30 31 29
4 30 32 33 31
4 32 34 35 33
4 34 36 37 35
4 36 38 39 37
4 38 40 41 39
4 40 42 43 41
4 42 44 45 43
4 44 46 47 45
4 46 48 49 47
4 48 50 51 49
4 50 52 53 51
4 52 54 55 53
4 54 56 57 55
4 56 58 59 57
4 58 60 61 59
4 60 62 63 61
4 62 64 65 63
4 64 66 67 65
4 66 68 69 67
4 68 70 71 69
4 70 72 73 71
4 72 74 75 73
4 74 76 77 75
4 76 78 79 77
4 78 80 81 79
4 80 82 83 81
4 82 84 85 83
4 84 86 87 85
4 86 88 89 87
4 88 90 91 89
4 90 92 93 91
4 92 94 95 93
4 94 96 97 95
4 96 98 99 97
4 98 100 101 99
4 100 102 103 101
4 102 104 105 103
4 104 106 107 105
4 106 108 109 107
4 108 110 111 109
4 110 112 113 111
4 112 114 115 113
4 114 116 117 115
4 116 118 119 117
4 118 120 121 119
4 120 122 123 121
4 122 124 125 123
4 124 126 127 125
4 126 128 129 127
4 128 130 131 129
4 130 132 133 131
4 132 134 135 133
4 134 136 137 135
4 136 138 139 137
4 138 140 141 139
4 140 142 143 141
4 142 144 145 143
4 144 146 147 145
4 146 148 149 147
4 148 150 151 149
4 150 152 153 151
4 152 154 155 153
4 154 156 157 155
4 156 158 159 157
4 158 160 161 159
4 160 162 163 161
4 162 164 165 163
4 164 166 167 165
4 166 168 169 167
4 168 170 171 169
4 170 172 173 171
4 172 174 175 173
4 174 176 177 175
4 176 178 179 177
4 178 180 181 179
4 180 182 183 181
4 182 184 185 183
4 184 186 187 185
4 186 188 189 187
4 188 190 191 189
4 190 192 193 191
4 192 194 195 193
4 194 196 197 195
4 196 198 199 197
4 198 200 201 199
4 200 202 203 201
4 202 204 205 203
4 204 206 207 205
4 206 208 209 207
4 208 210 211 209
4 210 212 213 211
4 212 214 215 213
4 214 216 217 215
4 216 218 219 217
4 218 220 221 219
4 220 222 223 221
4 222 224 225 223
4 224 226 227 225
4 226 228 229 227
4 228 230 231 229
4 230 232 233 231
4 232 234 235 233
4 234 236 237 235
4 236 238 239 237
4 238 240 241 239
4 240 242 243 241
4 242 244 245 243
4 244 246 247 245
4 246 248 249 247
4 248 250 251 249
4 250 252 253 251
4 252 254 255 253
4 254 256 257 255
4 256 258 259 257
4 258 260 261 259
4 260 262 263 261
4 262 264 265 263
4 264 266 267 265
4 266 268 269 267
4 268 270 271 269
4 270 272 273 271
4 272 274 275 273
4 274 276 277 275
4 276 278 279 277
4 278 280 281 279
4 280 282 283 281
4 282 284 285 283
4 284 286 287 285
4 286 288 289 287
4 288 290 291 289
4 290 292 293 291
4 292 294 295 293
4 294 296 297 295
4 296 298 299 297
4 298 300 301 299
4 300 302 303 301
4 302 304 305 303
4 304 306 307 305
4 306 308 309 307
4 308 310 311 309
4 310 312 313 311
4 312 314 315 313
4 314 316 317 315
4 316 318 319 317
4 318 320 321 319
4 320 322 323 321
4 322 324 325 323
4 324 326 327 325
4 326 328 329 327
4 328 330 331 329
4 330 332 333 331
4 332 334 335 333
4 334 336 337 335
4 336 338 339 337
4 338 340 341 339
4 340 342 343 341
4 342 344 345 343
4 344 346 347 345
4 346 348 349 347
4 348 350 351 349
4 352 353 354 355
4 355 354 356 357
4 357 356 358 359
4 359 358 360 361
4 361 360 362 363
4 363 362 364 365
4 365 364 366 367
4 367 366 368 369
4 369 368 370 371
4 371 370 372 373
4 373 372 374 375
4 375 374 376 377
4 377 376 378 379
4 379 378 380 381
4 381 380 382 383
4 383 382 384 385
4 385 384 386 387
4 387 386 388 389
4 389 388 390 391
4 391 390 392 393
4 393 392 394 395
4 395 394 396 397
4 397 396 398 399
4 399 398 400 401
4 401 400 402 403
4 403 402 404 405
4 405 404 406 407
4 407 406 408 409
4 409 408 410 411
4 411 410 412 413
4 413 412 414 415
4 415 414 416 417
4 417 416 418 419
4 419 418 420 421
4 421 420 422 423
4 423 422 424 425
4 425 424 426 427
4 427 426 428 429
4 429 428 430 431
4 431 430 432 433
4 433 432 434 435
4 435 434 436 437
4 437 436 438 439
4 439 438 440 441
4 441 440 442 443
4 443 442 444 445
4 445 444 446 447
4 447 446 448 449
4 449 448 450 451
4 451 450 351 350
4 352 452 453 353
4 452 454 455 453
4 454 456 457 455
4 456 458 459 457
4 458 460 461 459
4 460 462 463 461
4 462 464 465 463
4 464 466 467 465
4 466 468 469 467
4 468 470 471 469
4 470 472 473 471
4 472 474 475 473
4 474 476 477 475
4 476 478 479 477
4 478 480 481 479
4 480 482 483 481
4 482 484 485 483
4 484 486 487 485
4 486 488 489 487
4 488 490 491 489
4 490 492 493 491
4 492 494 495 493
4 494 496 497 495
4 496 498 499 497
4 498 500 501 499
4 500 502 503 501
4 502 504 505 503
4 504 506 507 505
4 506 508 509 507
4 508 510 511 509
4 510 512 513 511
4 512 514 515 513
4 514 516 517 515
4 516 518 519 517
4 518 520 521 519
4 520 522 523 521
4 522 524 525 523
4 524 526 527 525
4 526 528 529 527
4 528 530 531 529
4 530 532 533 531
4 532 534 535 533
4 534 536 537 535
4 536 538 539 537
4 538 540 541 539
4 540 542 543 541
4 542 544 545 543
4 544 546 547 545
4 546 548 549 547
4 548 550 551 549
4 550 552 553 551
4 552 554 555 553
4 554 556 557 555
4 556 558 559 557
4 558 560 561 559
4 560 562 563 561
4 562 564 565 563
4 564 566 567 565
4 566 568 569 567
4 568 570 571 569
4 570 572 573 571
4 572 574 575 573
4 574 576 577 575
4 576 578 579 577
4 578 580 581 579
4 580 582 583 581
4 582 584 585 583
4 584 586 587 585
4 586 588 589 587
4 588 590 591 589
4 590 592 593 591
4 592 594 595 593
4 594 596 597 595
4 596 598 599 597
4 598 600 601 599
4 600 602 603 601
4 602 604 605 603
4 604 606 607 605
4 606 608 609 607
4 608 610 611 609
4 610 612 613 611
4 612 614 615 613
4 614 616 617 615
4 616 618 619 617
4 618 620 621 619
4 620 622 623 621
4 622 624 625 623
4 624 626 627 625
4 626 628 629 627
4 628 630 631 629
4 630 632 633 631
4 632 634 635 633
4 634 636 637 635
4 636 638 639 637
4 638 640 641 639
4 640 642 643 641
4 642 644 645 643
4 644 646 647 645
4 646 648 649 647
4 648 650 651 649
POINT_DATA 652
FIELD attributes 1
U 3 652 float
2.51166 0.00433127 0.0436471
1.25633 0.00216716 0.0218235
1.25633 0.00216716 0.0218235
2.51166 0.00433127 0.0436471
0.00100683 1.9878e-06 0
0.00100683 1.9878e-06 0
0.00100577 -2.06125e-07 0
0.00100577 -2.06125e-07 0
0.00100376 -1.40537e-06 0
0.00100376 -1.40537e-06 0
0.00100055 -7.50547e-07 0
0.00100055 -7.50547e-07 0
0.000997024 1.57364e-07 0
0.000997024 1.57364e-07 0
0.000994637 -2.38267e-07 0
0.000994637 -2.38267e-07 0
0.000993639 -1.30006e-06 0
0.000993639 -1.30006e-06 0
0.000992986 -1.43925e-06 0
0.000992986 -1.43925e-06 0
0.000991477 -2.1258e-07 0
0.000991477 -2.1258e-07 0
0.000988918 1.34268e-06 0
0.000988918 1.34268e-06 0
0.000986193 2.08211e-06 0
0.000986193 2.08211e-06 0
0.000984187 2.00657e-06 0
0.000984187 2.00657e-06 0
0.000982819 2.02443e-06 0
0.000982819 2.02443e-06 0
0.000981218 2.72221e-06 0
0.000981218 2.72221e-06 0
0.000978659 3.66327e-06 0
0.000978659 3.66327e-06 0
0.000975231 3.90818e-06 0
0.000975231 3.90818e-06 0
0.00097166 3.08648e-06 0
0.00097166 3.08648e-06 0
0.000968576 1.93676e-06 0
0.000968576 1.93676e-06 0
0.000965924 1.73821e-06 0
0.000965924 1.73821e-06 0
0.000962985 3.08905e-06 0
0.000962985 3.08905e-06 0
0.000959 5.21742e-06 0
0.000959 5.21742e-06 0
0.000953894 6.5169e-06 0
0.000953894 6.5169e-06 0
0.000948429 5.84946e-06 0
0.000948429 5.84946e-06 0
0.000943591 3.51935e-06 0
0.000943591 3.51935e-06 0
0.000939777 1.08907e-06 0
0.000939777 1.08907e-06 0
0.000936453 2.10679e-07 0
0.000936453 2.10679e-07 0
0.000932472 1.46097e-06 0
0.000932472 1.46097e-06 0
0.000926811 3.99484e-06 0
0.000926811 3.99484e-06 0
0.000919235 6.13307e-06 0
0.000919235 6.13307e-06 0
0.000910465 6.4418e-06 0
0.000910465 6.4418e-06 0
0.000901774 4.67384e-06 0
0.000901774 4.67384e-06 0
0.000894303 2.02846e-06 0
0.000894303 2.02846e-06 0
0.000888494 4.09024e-07 0
0.000888494 4.09024e-07 0
0.000883824 1.06569e-06 0
0.000883824 1.06569e-06 0
0.000879091 3.64067e-06 0
0.000879091 3.64067e-06 0
0.000873199 6.38229e-06 0
0.000873199 6.38229e-06 0
0.000865887 7.51851e-06 0
0.000865887 7.51851e-06 0
0.000857753 6.67871e-06 0
0.000857753 6.67871e-06 0
0.00084957 5.0347e-06 0
0.00084957 5.0347e-06 0
0.000841583 4.11373e-06 0
0.000841583 4.11373e-06 0
0.000833432 4.52117e-06 0
0.000833432 4.52117e-06 0
0.000824619 5.74717e-06 0
0.000824619 5.74717e-06 0
0.000814923 6.96231e-06 0
0.000814923 6.96231e-06 0
0.000804395 7.73232e-06 0
0.000804395 7.73232e-06 0
0.000793185 7.98107e-06 0
0.000793185 7.98107e-06 0
0.000781535 7.62174e-06 0
0.000781535 7.62174e-06 0
0.000769864 6.57656e-06 0
0.000769864 6.57656e-06 0
0.000758587 5.14381e-06 0
0.000758587 5.14381e-06 0
0.00074773 4.03614e-06 0
0.00074773 4.03614e-06 0
0.000736828 3.83693e-06 0
0.000736828 3.83693e-06 0
0.000725342 4.49793e-06 0
0.000725342 4.49793e-06 0
0.000713176 5.553e-06 0
0.000713176 5.553e-06 0
0.000700606 6.78891e-06 0
0.000700606 6.78891e-06 0
0.000687651 8.42815e-06 0
0.000687651 8.42815e-06 0
0.00067371 1.0499e-05 0
0.00067371 1.0499e-05 0
0.000658065 1.22943e-05 0
0.000658065 1.22943e-05 0
0.000640743 1.2914e-05 0
0.000640743 1.2914e-05 0
0.000622607 1.24878e-05 0
0.000622607 1.24878e-05 0
0.000604329 1.25115e-05 0
0.000604329 1.25115e-05 0
0.000585303 1.45119e-05 0
0.000585303 1.45119e-05 0
0.000563847 1.82766e-05 0
0.000563847 1.82766e-05 0
0.000538711 2.16671e-05 0
0.000538711 2.16671e-05 0
0.000510404 2.24425e-05 0
0.000510404 2.24425e-05 0
0.000480994 2.01803e-05 0
0.000480994 2.01803e-05 0
0.000452715 1.63068e-05 0
0.000452715 1.63068e-05 0
0.000426835 1.26628e-05 0
0.000426835 1.26628e-05 0
0.00040351 1.0313e-05 0
0.00040351 1.0313e-05 0
0.000382205 9.32476e-06 0
0.000382205 9.32476e-06 0
0.000362149 9.21427e-06 0
0.000362149 9.21427e-06 0
0.000342637 9.46958e-06 0
0.000342637 9.46958e-06 0
0.000323184 9.77119e-06 0
0.000323184 9.77119e-06 0
0.000303536 9.98056e-06 0
0.000303536 9.98056e-06 0
0.000283601 1.00728e-05 0
0.000283601 1.00728e-05 0
0.000263388 1.00652e-05 0
0.000263388 1.00652e-05 0
0.000242964 9.97428e-06 0
0.000242964 9.97428e-06 0
0.000222421 9.80417e-06 0
0.000222421 9.80417e-06 0
0.000201869 9.54889e-06 0
0.000201869 9.54889e-06 0
0.000181429 9.1982e-06 0
0.000181429 9.1982e-06 0
0.000161239 8.74159e-06 0
0.000161239 8.74159e-06 0
0.00014145 8.17076e-06 0
0.00014145 8.17076e-06 0
0.00012223 7.48063e-06 0
0.00012223 7.48063e-06 0
0.000103752 6.66995e-06 0
0.000103752 6.66995e-06 0
8.61967e-05 5.74247e-06 0
8.61967e-05 5.74247e-06 0
6.97436e-05 4.70788e-06 0
6.97436e-05 4.70788e-06 0
5.45601e-05 3.58328e-06 0
5.45601e-05 3.58328e-06 0
4.07941e-05 2.3976e-06 0
4.07941e-05 2.3976e-06 0
2.85663e-05 1.18425e-06 0
2.85663e-05 1.18425e-06 0
1.79675e-05 -2.78456e-08 0
1.79675e-05 -2.78456e-08 0
9.05634e-06 -1.21163e-06 0
9.05634e-06 -1.21163e-06 0
1.85483e-06 -2.3413e-06 0
1.85483e-06 -2.3413e-06 0
-3.64704e-06 -3.39199e-06 0
-3.64704e-06 -3.39199e-06 0
-7.49647e-06 -4.34705e-06 0
-7.49647e-06 -4.34705e-06 0
-9.78643e-06 -5.1927e-06 0
-9.78643e-06 -5.1927e-06 0
-1.06478e-05 -5.91479e-06 0
-1.06478e-05 -5.91479e-06 0
-1.02247e-05 -6.49698e-06 0
-1.02247e-05 -6.49698e-06 0
-8.70541e-06 -6.93966e-06 0
-8.70541e-06 -6.93966e-06 0
-6.31086e-06 -7.26655e-06 0
-6.31086e-06 -7.26655e-06 0
-3.30645e-06 -7.44985e-06 0
-3.30645e-06 -7.44985e-06 0
-1.69233e-06 -7.49576e-06 0
-1.69233e-06 -7.49576e-06 0
3.23617e-06 -3.27447e-06 0
3.23617e-06 -3.27447e-06 0
1.07516e-05 1.32379e-05 0
1.07516e-05 1.32379e-05 0
1.41535e-05 3.99919e-05 0
1.41535e-05 3.99919e-05 0
1.48755e-05 6.97173e-05 0
1.48755e-05 6.97173e-05 0
1.43054e-05 9.92853e-05 0
1.43054e-05 9.92853e-05 0
1.32792e-05 0.000126865 0
1.32792e-05 0.000126865 0
1.22552e-05 0.00015236 0
1.22552e-05 0.00015236 0
1.14313e-05 0.000175988 0
1.14313e-05 0.000175988 0
1.08624e-05 0.000198263 0
1.08624e-05 0.000198263 0
1.05328e-05 0.000219678 0
1.05328e-05 0.000219678 0
1.03967e-05 0.000240645 0
1.03967e-05 0.000240645 0
1.04019e-05 0.000261501 0
1.04019e-05 0.000261501 0
1.05033e-05 0.000282482 0
1.05033e-05 0.000282482 0
1.06657e-05 0.00030374 0
1.06657e-05 0.00030374 0
1.08645e-05 0.000325364 0
1.08645e-05 0.000325364 0
1.10843e-05 0.000347408 0
1.10843e-05 0.000347408 0
1.13161e-05 0.000369901 0
1.13161e-05 0.000369901 0
1.15561e-05 0.000392863 0
1.15561e-05 0.000392863 0
1.18032e-05 0.000416308 0
1.18032e-05 0.000416308 0
1.20588e-05 0.000440251 0
1.20588e-05 0.000440251 0
1.2325e-05 0.000464712 0
1.2325e-05 0.000464712 0
1.26054e-05 0.000489716 0
1.26054e-05 0.000489716 0
1.29026e-05 0.000515293 0
1.29026e-05 0.000515293 0
1.32214e-05 0.000541483 0
1.32214e-05 0.000541483 0
1.35642e-05 0.000568329 0
1.35642e-05 0.000568329 0
1.3937e-05 0.000595889 0
1.3937e-05 0.000595889 0
1.43416e-05 0.00062422 0
1.43416e-05 0.00062422 0
1.47875e-05 0.000653401 0
1.47875e-05 0.000653401 0
1.52733e-05 0.000683505 0
1.52733e-05 0.000683505 0
1.58179e-05 0.000714641 0
1.58179e-05 0.000714641 0
1.64095e-05 0.000746896 0
1.64095e-05 0.000746896 0
1.70892e-05 0.000780434 0
1.70892e-05 0.000780434 0
1.78201e-05 0.000815347 0
1.78201e-05 0.000815347 0
1.86934e-05 0.000851896 0
1.86934e-05 0.000851896 0
1.96028e-05 0.000890154 0
1.96028e-05 0.000890154 0
2.07806e-05 0.000930569 0
2.07806e-05 0.000930569 0
2.19123e-05 0.000973145 0
2.19123e-05 0.000973145 0
2.35951e-05 0.00101869 0
2.35951e-05 0.00101869 0
2.50116e-05 0.001067 0
2.50116e-05 0.001067 0
2.7599e-05 0.00111966 0
2.7599e-05 0.00111966 0
2.93034e-05 0.00117588 0
2.93034e-05 0.00117588 0
3.38484e-05 0.00123902 0
3.38484e-05 0.00123902 0
3.55214e-05 0.0013069 0
3.55214e-05 0.0013069 0
4.48319e-05 0.00138672 0
4.48319e-05 0.00138672 0
4.59871e-05 0.00147439 0
4.59871e-05 0.00147439 0
6.82083e-05 0.00158437 0
6.82083e-05 0.00158437 0
7.09002e-05 0.00171453 0
7.09002e-05 0.00171453 0
0.000135996 0.00189087 0
0.000135996 0.00189087 0
0.000162872 0.00213225 0
0.000162872 0.00213225 0
0.000246168 0.00140226 0
0.000246168 0.00140226 0
-0.000168889 0.000232333 0
-0.000168889 0.000232333 0
-0.000358131 -4.23453e-05 0
-0.000358131 -4.23453e-05 0
-0.000468773 0.000161128 0
-0.000468773 0.000161128 0
-0.00108777 0.000308756 0
-0.00108777 0.000308756 0
-0.00152978 0.000260655 0
-0.00152978 0.000260655 0
-0.00193228 0.000183582 0
-0.00193228 0.000183582 0
-0.00212702 0.00010121 0
-0.00212702 0.00010121 0
-0.00221253 3.01155e-05 0
-0.00221253 3.01155e-05 0
-0.00215708 -3.95927e-05 0
-0.00215708 -3.95927e-05 0
-0.00199722 -0.000112911 0
-0.00199722 -0.000112911 0
-0.00169825 -0.00019219 0
-0.00169825 -0.00019219 0
-0.00126145 -0.000267813 0
-0.00126145 -0.000267813 0
-0.000695546 -0.000316277 0
-0.000695546 -0.000316277 0
-6.79441e-05 -0.000337317 0
-6.79441e-05 -0.000337317 0
0.000611801 -0.000362801 0
0.000611801 -0.000362801 0
0.00133486 -0.000390548 0
0.00133486 -0.000390548 0
0.00208036 -0.000372332 0
0.00208036 -0.000372332 0
0.00272034 -0.000287235 0
0.00272034 -0.000287235 0
0.00315372 -0.000125504 0
0.00315372 -0.000125504 0
0.00326945 5.33468e-05 0
0.00326945 5.33468e-05 0
0.00307558 0.000269608 0
0.00307558 0.000269608 0
0.00241202 0.000538144 0
0.00241202 0.000538144 0
0.00130982 0.000465485 0
0.00130982 0.000465485 0
0.000533667 0.000156883 0
0.000533667 0.000156883 0
0.000124465 0.000473049 0
0.000124465 0.000473049 0
-8.12336e-06 6.41464e-06 0
-8.12336e-06 6.41464e-06 0
-9.23834e-06 1.57838e-05 0
-9.23834e-06 1.57838e-05 0
-1.02119e-05 3.55802e-05 0
-1.02119e-05 3.55802e-05 0
-9.86832e-06 5.52344e-05 0
-9.86832e-06 5.52344e-05 0
-9.55208e-06 7.37112e-05 0
-9.55208e-06 7.37112e-05 0
-9.36736e-06 9.20009e-05 0
-9.36736e-06 9.20009e-05 0
-9.23384e-06 0.00010996 0
-9.23384e-06 0.00010996 0
-9.09991e-06 0.000127684 0
-9.09991e-06 0.000127684 0
-8.94438e-06 0.000145147 0
-8.94438e-06 0.000145147 0
-8.75983e-06 0.000162291 0
-8.75983e-06 0.000162291 0
-8.54326e-06 0.000179054 0
-8.54326e-06 0.000179054 0
-8.29283e-06 0.000195372 0
-8.29283e-06 0.000195372 0
-8.00664e-06 0.000211177 0
-8.00664e-06 0.000211177 0
-7.68258e-06 0.000226395 0
-7.68258e-06 0.000226395 0
-7.31924e-06 0.00024095 0
-7.31924e-06 0.00024095 0
-6.91555e-06 0.000254763 0
-6.91555e-06 0.000254763 0
-6.47065e-06 0.000267753 0
-6.47065e-06 0.000267753 0
-5.98582e-06 0.000279839 0
-5.98582e-06 0.000279839 0
-5.46425e-06 0.000290942 0
-5.46425e-06 0.000290942 0
-4.90839e-06 0.000300986 0
-4.90839e-06 0.000300986 0
-4.32196e-06 0.000309899 0
-4.32196e-06 0.000309899 0
-3.71022e-06 0.000317624 0
-3.71022e-06 0.000317624 0
-3.08044e-06 0.000324108 0
-3.08044e-06 0.000324108 0
-2.44093e-06 0.000329327 0
-2.44093e-06 0.000329327 0
-1.7932e-06 0.000333248 0
-1.7932e-06 0.000333248 0
-1.14903e-06 0.0003359 0
-1.14903e-06 0.0003359 0
-5.06012e-07 0.000337242 0
-5.06012e-07 0.000337242 0
1.51294e-07 0.000337433 0
1.51294e-07 0.000337433 0
8.21528e-07 0.000336243 0
8.21528e-07 0.000336243 0
1.44882e-06 0.000334173 0
1.44882e-06 0.000334173 0
2.03167e-06 0.000330716 0
2.03167e-06 0.000330716 0
2.50296e-06 0.000327109 0
2.50296e-06 0.000327109 0
2.8796e-06 0.000322053 0
2.8796e-06 0.000322053 0
3.04469e-06 0.000317937 0
3.04469e-06 0.000317937 0
3.04618e-06 0.000312523 0
3.04618e-06 0.000312523 0
2.64915e-06 0.00030931 0
2.64915e-06 0.00030931 0
2.12115e-06 0.000305386 0
2.12115e-06 0.000305386 0
1.00844e-06 0.000304827 0
1.00844e-06 0.000304827 0
-6.81257e-07 0.000304477 0
-6.81257e-07 0.000304477 0
-8.5239e-07 0.00031039 0
-8.5239e-07 0.00031039 0
-6.93894e-06 0.000313362 0
-6.93894e-06 0.000313362 0
-7.30335e-06 0.000334778 0
-7.30335e-06 0.000334778 0
-7.21129e-06 0.000348516 0
-7.21129e-06 0.000348516 0
-2.07879e-05 0.000369512 0
-2.07879e-05 0.000369512 0
-3.61419e-05 0.000426715 0
-3.61419e-05 0.000426715 0
-2.44539e-05 0.000470056 0
-2.44539e-05 0.000470056 0
-4.04022e-05 0.000547698 0
-4.04022e-05 0.000547698 0
-4.93508e-05 0.00063918 0
-4.93508e-05 0.00063918 0
-3.57356e-05 0.000720398 0
-3.57356e-05 0.000720398 0
-6.64833e-05 0.000831039 0
-6.64833e-05 0.000831039 0
-1.57058e-05 6.41525e-06 0
-1.57058e-05 6.41525e-06 0
-3.12919e-05 6.56027e-06 0
-3.12919e-05 6.56027e-06 0
-4.73883e-05 6.85942e-06 0
-4.73883e-05 6.85942e-06 0
-6.37736e-05 7.20665e-06 0
-6.37736e-05 7.20665e-06 0
-8.06428e-05 7.62095e-06 0
-8.06428e-05 7.62095e-06 0
-9.80363e-05 8.07721e-06 0
-9.80363e-05 8.07721e-06 0
-0.000115979 8.54918e-06 0
-0.000115979 8.54918e-06 0
-0.000134485 9.01567e-06 0
-0.000134485 9.01567e-06 0
-0.000153523 9.45661e-06 0
-0.000153523 9.45661e-06 0
-0.000173061 9.85762e-06 0
-0.000173061 9.85762e-06 0
-0.000193038 1.02095e-05 0
-0.000193038 1.02095e-05 0
-0.000213401 1.05078e-05 0
-0.000213401 1.05078e-05 0
-0.000234076 1.07495e-05 0
-0.000234076 1.07495e-05 0
-0.000254993 1.09319e-05 0
-0.000254993 1.09319e-05 0
-0.00027607 1.10522e-05 0
-0.00027607 1.10522e-05 0
-0.000297215 1.11098e-05 0
-0.000297215 1.11098e-05 0
-0.00031831 1.1101e-05 0
-0.00031831 1.1101e-05 0
-0.000339225 1.10154e-05 0
-0.000339225 1.10154e-05 0
-0.000359807 1.08399e-05 0
-0.000359807 1.08399e-05 0
-0.000379888 1.05617e-05 0
-0.000379888 1.05617e-05 0
-0.000399274 1.01688e-05 0
-0.000399274 1.01688e-05 0
-0.000417756 9.65035e-06 0
-0.000417756 9.65035e-06 0
-0.000435106 8.99756e-06 0
-0.000435106 8.99756e-06 0
-0.000451082 8.20466e-06 0
-0.000451082 8.20466e-06 0
-0.000465432 7.26953e-06 0
-0.000465432 7.26953e-06 0
-0.000477904 6.19391e-06 0
-0.000477904 6.19391e-06 0
-0.000488249 4.98482e-06 0
-0.000488249 4.98482e-06 0
-0.000496238 3.65629e-06 0
-0.000496238 3.65629e-06 0
-0.000501666 2.23462e-06 0
-0.000501666 2.23462e-06 0
-0.000504349 7.62841e-07 0
-0.000504349 7.62841e-07 0
-0.000504175 -7.22163e-07 0
-0.000504175 -7.22163e-07 0
-0.000501124 -2.19387e-06 0
-0.000501124 -2.19387e-06 0
-0.000495179 -3.6461e-06 0
-0.000495179 -3.6461e-06 0
-0.000486327 -5.08196e-06 0
-0.000486327 -5.08196e-06 0
-0.000474617 -6.4857e-06 0
-0.000474617 -6.4857e-06 0
-0.000460134 -7.83752e-06 0
-0.000460134 -7.83752e-06 0
-0.000443003 -9.1179e-06 0
-0.000443003 -9.1179e-06 0
-0.000423389 -1.03095e-05 0
-0.000423389 -1.03095e-05 0
-0.000401486 -1.1398e-05 0
-0.000401486 -1.1398e-05 0
-0.000377515 -1.23726e-05 0
-0.000377515 -1.23726e-05 0
-0.000351715 -1.32261e-05 0
-0.000351715 -1.32261e-05 0
-0.000324333 -1.39548e-05 0
-0.000324333 -1.39548e-05 0
-0.000295622 -1.45583e-05 0
-0.000295622 -1.45583e-05 0
-0.000265832 -1.50391e-05 0
-0.000265832 -1.50391e-05 0
-0.000235205 -1.54021e-05 0
-0.000235205 -1.54021e-05 0
-0.000203971 -1.56541e-05 0
-0.000203971 -1.56541e-05 0
-0.000172345 -1.58027e-05 0
-0.000172345 -1.58027e-05 0
-0.000140524 -1.58569e-05 0
-0.000140524 -1.58569e-05 0
-0.000108684 -1.58287e-05 0
-0.000108684 -1.58287e-05 0
-7.69753e-05 -1.57247e-05 0
-7.69753e-05 -1.57247e-05 0
-4.55291e-05 -1.55561e-05 0
-4.55291e-05 -1.55561e-05 0
-1.44868e-05 -1.53335e-05 0
-1.44868e-05 -1.53335e-05 0
1.60341e-05 -1.50643e-05 0
1.60341e-05 -1.50643e-05 0
4.59743e-05 -1.4759e-05 0
4.59743e-05 -1.4759e-05 0
7.52766e-05 -1.44239e-05 0
7.52766e-05 -1.44239e-05 0
0.000103883 -1.40664e-05 0
0.000103883 -1.40664e-05 0
0.000131756 -1.36927e-05 0
0.000131756 -1.36927e-05 0
0.000158868 -1.33083e-05 0
0.000158868 -1.33083e-05 0
0.000185203 -1.2918e-05 0
0.000185203 -1.2918e-05 0
0.000210754 -1.25256e-05 0
0.000210754 -1.25256e-05 0
0.00023552 -1.21345e-05 0
0.00023552 -1.21345e-05 0
0.000259507 -1.17474e-05 0
0.000259507 -1.17474e-05 0
0.000282724 -1.13664e-05 0
0.000282724 -1.13664e-05 0
0.000305186 -1.09934e-05 0
0.000305186 -1.09934e-05 0
0.00032691 -1.06297e-05 0
0.00032691 -1.06297e-05 0
0.000347917 -1.02762e-05 0
0.000347917 -1.02762e-05 0
0.000368226 -9.93367e-06 0
0.000368226 -9.93367e-06 0
0.000387862 -9.60258e-06 0
0.000387862 -9.60258e-06 0
0.000406846 -9.28325e-06 0
0.000406846 -9.28325e-06 0
0.000425203 -8.97585e-06 0
0.000425203 -8.97585e-06 0
0.000442956 -8.68043e-06 0
0.000442956 -8.68043e-06 0
0.00046013 -8.39693e-06 0
0.00046013 -8.39693e-06 0
0.000476748 -8.12516e-06 0
0.000476748 -8.12516e-06 0
0.000492833 -7.8649e-06 0
0.000492833 -7.8649e-06 0
0.000508409 -7.61595e-06 0
0.000508409 -7.61595e-06 0
0.000523497 -7.37811e-06 0
0.000523497 -7.37811e-06 0
0.00053812 -7.15115e-06 0
0.00053812 -7.15115e-06 0
0.000552299 -6.93478e-06 0
0.000552299 -6.93478e-06 0
0.000566055 -6.7287e-06 0
0.000566055 -6.7287e-06 0
0.000579407 -6.53256e-06 0
0.000579407 -6.53256e-06 0
0.000592377 -6.34604e-06 0
0.000592377 -6.34604e-06 0
0.000604981 -6.16884e-06 0
0.000604981 -6.16884e-06 0
0.000617241 -6.00066e-06 0
0.000617241 -6.00066e-06 0
0.00062917 -5.84125e-06 0
0.00062917 -5.84125e-06 0
0.000640793 -5.6903e-06 0
0.000640793 -5.6903e-06 0
0.000652112 -5.54764e-06 0
0.000652112 -5.54764e-06 0
0.000663168 -5.41289e-06 0
0.000663168 -5.41289e-06 0
0.000673939 -5.28605e-06 0
0.000673939 -5.28605e-06 0
0.000684497 -5.16658e-06 0
0.000684497 -5.16658e-06 0
0.000694771 -5.05473e-06 0
0.000694771 -5.05473e-06 0
0.000704905 -4.94961e-06 0
0.000704905 -4.94961e-06 0
0.000714718 -4.85204e-06 0
0.000714718 -4.85204e-06 0
0.000724517 -4.7603e-06 0
0.000724517 -4.7603e-06 0
0.000733871 -4.67658e-06 0
0.000733871 -4.67658e-06 0
0.000743468 -4.59736e-06 0
0.000743468 -4.59736e-06 0
0.000752299 -4.52764e-06 0
0.000752299 -4.52764e-06 0
0.000761915 -4.45971e-06 0
0.000761915 -4.45971e-06 0
0.000770008 -4.40488e-06 0
0.000770008 -4.40488e-06 0
0.985736 -0.00538186 0
0.985736 -0.00538186 0
1.9707 -0.0107593 0
1.9707 -0.0107593 0
