# vtk DataFile Version 2.0
sampleSurface
ASCII
DATASET POLYDATA
POINTS 652 double
0 0 0
0.02 0 0
0.02 0 0.1
0 0 0.1
0.04 0 0
0.04 0 0.1
0.06 0 0
0.06 0 0.1
0.08 0 0
0.08 0 0.1
0.1 0 0
0.1 0 0.1
0.12 0 0
0.12 0 0.1
0.14 0 0
0.14 0 0.1
0.16 0 0
0.16 0 0.1
0.18 0 0
0.18 0 0.1
0.2 0 0
0.2 0 0.1
0.22 0 0
0.22 0 0.1
0.24 0 0
0.24 0 0.1
0.26 0 0
0.26 0 0.1
0.28 0 0
0.28 0 0.1
0.3 0 0
0.3 0 0.1
0.32 0 0
0.32 0 0.1
0.34 0 0
0.34 0 0.1
0.36 0 0
0.36 0 0.1
0.38 0 0
0.38 0 0.1
0.4 0 0
0.4 0 0.1
0.42 0 0
0.42 0 0.1
0.44 0 0
0.44 0 0.1
0.46 0 0
0.46 0 0.1
0.48 0 0
0.48 0 0.1
0.5 0 0
0.5 0 0.1
0.52 0 0
0.52 0 0.1
0.54 0 0
0.54 0 0.1
0.56 0 0
0.56 0 0.1
0.58 0 0
0.58 0 0.1
0.6 0 0
0.6 0 0.1
0.62 0 0
0.62 0 0.1
0.64 0 0
0.64 0 0.1
0.66 0 0
0.66 0 0.1
0.68 0 0
0.68 0 0.1
0.7 0 0
0.7 0 0.1
0.72 0 0
0.72 0 0.1
0.74 0 0
0.74 0 0.1
0.76 0 0
0.76 0 0.1
0.78 0 0
0.78 0 0.1
0.8 0 0
0.8 0 0.1
0.82 0 0
0.82 0 0.1
0.84 0 0
0.84 0 0.1
0.86 0 0
0.86 0 0.1
0.88 0 0
0.88 0 0.1
0.9 0 0
0.9 0 0.1
0.92 0 0
0.92 0 0.1
0.94 0 0
0.94 0 0.1
0.96 0 0
0.96 0 0.1
0.98 0 0
0.98 0 0.1
1 0 0
1 0 0.1
1.02 0 0
1.02 0 0.1
1.04 0 0
1.04 0 0.1
1.06 0 0
1.06 0 0.1
1.08 0 0
1.08 0 0.1
1.1 0 0
1.1 0 0.1
1.12 0 0
1.12 0 0.1
1.14 0 0
1.14 0 0.1
1.16 0 0
1.16 0 0.1
1.18 0 0
1.18 0 0.1
1.2 0 0
1.2 0 0.1
1.22 0 0
1.22 0 0.1
1.24 0 0
1.24 0 0.1
1.26 0 0
1.26 0 0.1
1.28 0 0
1.28 0 0.1
1.3 0 0
1.3 0 0.1
1.32 0 0
1.32 0 0.1
1.34 0 0
1.34 0 0.1
1.36 0 0
1.36 0 0.1
1.38 0 0
1.38 0 0.1
1.4 0 0
1.4 0 0.1
1.42 0 0
1.42 0 0.1
1.44 0 0
1.44 0 0.1
1.46 0 0
1.46 0 0.1
1.48 0 0
1.48 0 0.1
1.5 0 0
1.5 0 0.1
1.52 0 0
1.52 0 0.1
1.54 0 0
1.54 0 0.1
1.56 0 0
1.56 0 0.1
1.58 0 0
1.58 0 0.1
1.6 0 0
1.6 0 0.1
1.62 0 0
1.62 0 0.1
1.64 0 0
1.64 0 0.1
1.66 0 0
1.66 0 0.1
1.68 0 0
1.68 0 0.1
1.7 0 0
1.7 0 0.1
1.72 0 0
1.72 0 0.1
1.74 0 0
1.74 0 0.1
1.76 0 0
1.76 0 0.1
1.78 0 0
1.78 0 0.1
1.8 0 0
1.8 0 0.1
1.82 0 0
1.82 0 0.1
1.84 0 0
1.84 0 0.1
1.86 0 0
1.86 0 0.1
1.88 0 0
1.88 0 0.1
1.9 0 0
1.9 0 0.1
1.92 0 0
1.92 0 0.1
1.94 0 0
1.94 0 0.1
1.96 0 0
1.96 0 0.1
1.98 0 0
1.98 0 0.1
2 0 0
2 0 0.1
2 0.02 0
2 0.02 0.1
2 0.04 0
2 0.04 0.1
2 0.06 0
2 0.06 0.1
2 0.08 0
2 0.08 0.1
2 0.1 0
2 0.1 0.1
2 0.12 0
2 0.12 0.1
2 0.14 0
2 0.14 0.1
2 0.16 0
2 0.16 0.1
2 0.18 0
2 0.18 0.1
2 0.2 0
2 0.2 0.1
2 0.22 0
2 0.22 0.1
2 0.24 0
2 0.24 0.1
2 0.26 0
2 0.26 0.1
2 0.28 0
2 0.28 0.1
2 0.3 0
2 0.3 0.1
2 0.32 0
2 0.32 0.1
2 0.34 0
2 0.34 0.1
2 0.36 0
2 0.36 0.1
2 0.38 0
2 0.38 0.1
2 0.4 0
2 0.4 0.1
2 0.42 0
2 0.42 0.1
2 0.44 0
2 0.44 0.1
2 0.46 0
2 0.46 0.1
2 0.48 0
2 0.48 0.1
2 0.5 0
2 0.5 0.1
2 0.52 0
2 0.52 0.1
2 0.54 0
2 0.54 0.1
2 0.56 0
2 0.56 0.1
2 0.58 0
2 0.58 0.1
2 0.6 0
2 0.6 0.1
2 0.62 0
2 0.62 0.1
2 0.64 0
2 0.64 0.1
2 0.66 0
2 0.66 0.1
2 0.68 0
2 0.68 0.1
2 0.7 0
2 0.7 0.1
2 0.72 0
2 0.72 0.1
2 0.74 0
2 0.74 0.1
2 0.76 0
2 0.76 0.1
2 0.78 0
2 0.78 0.1
2 0.8 0
2 0.8 0.1
2 0.82 0
2 0.82 0.1
2 0.84 0
2 0.84 0.1
2 0.86 0
2 0.86 0.1
2 0.88 0
2 0.88 0.1
2 0.9 0
2 0.9 0.1
2 0.92 0
2 0.92 0.1
2 0.94 0
2 0.94 0.1
2 0.96 0
2 0.96 0.1
2 0.98 0
2 0.98 0.1
2 1 0
2 1 0.1
2.02 1 0
2.02 1 0.1
2.04 1 0
2.04 1 0.1
2.06 1 0
2.06 1 0.1
2.08 1 0
2.08 1 0.1
2.1 1 0
2.1 1 0.1
2.12 1 0
2.12 1 0.1
2.14 1 0
2.14 1 0.1
2.16 1 0
2.16 1 0.1
2.18 1 0
2.18 1 0.1
2.2 1 0
2.2 1 0.1
2.22 1 0
2.22 1 0.1
2.24 1 0
2.24 1 0.1
2.26 1 0
2.26 1 0.1
2.28 1 0
2.28 1 0.1
2.3 1 0
2.3 1 0.1
2.32 1 0
2.32 1 0.1
2.34 1 0
2.34 1 0.1
2.36 1 0
2.36 1 0.1
2.38 1 0
2.38 1 0.1
2.4 1 0
2.4 1 0.1
2.42 1 0
2.42 1 0.1
2.44 1 0
2.44 1 0.1
2.46 1 0
2.46 1 0.1
2.48 1 0
2.48 1 0.1
2.5 1 0
2.5 1 0.1
2.5 0 0
2.5 0 0.1
2.5 0.02 0.1
2.5 0.02 0
2.5 0.04 0.1
2.5 0.04 0
2.5 0.06 0.1
2.5 0.06 0
2.5 0.08 0.1
2.5 0.08 0
2.5 0.1 0.1
2.5 0.1 0
2.5 0.12 0.1
2.5 0.12 0
2.5 0.14 0.1
2.5 0.14 0
2.5 0.16 0.1
2.5 0.16 0
2.5 0.18 0.1
2.5 0.18 0
2.5 0.2 0.1
2.5 0.2 0
2.5 0.22 0.1
2.5 0.22 0
2.5 0.24 0.1
2.5 0.24 0
2.5 0.26 0.1
2.5 0.26 0
2.5 0.28 0.1
2.5 0.28 0
2.5 0.3 0.1
2.5 0.3 0
2.5 0.32 0.1
2.5 0.32 0
2.5 0.34 0.1
2.5 0.34 0
2.5 0.36 0.1
2.5 0.36 0
2.5 0.38 0.1
2.5 0.38 0
2.5 0.4 0.1
2.5 0.4 0
2.5 0.42 0.1
2.5 0.42 0
2.5 0.44 0.1
2.5 0.44 0
2.5 0.46 0.1
2.5 0.46 0
2.5 0.48 0.1
2.5 0.48 0
2.5 0.5 0.1
2.5 0.5 0
2.5 0.52 0.1
2.5 0.52 0
2.5 0.54 0.1
2.5 0.54 0
2.5 0.56 0.1
2.5 0.56 0
2.5 0.58 0.1
2.5 0.58 0
2.5 0.6 0.1
2.5 0.6 0
2.5 0.62 0.1
2.5 0.62 0
2.5 0.64 0.1
2.5 0.64 0
2.5 0.66 0.1
2.5 0.66 0
2.5 0.68 0.1
2.5 0.68 0
2.5 0.7 0.1
2.5 0.7 0
2.5 0.72 0.1
2.5 0.72 0
2.5 0.74 0.1
2.5 0.74 0
2.5 0.76 0.1
2.5 0.76 0
2.5 0.78 0.1
2.5 0.78 0
2.5 0.8 0.1
2.5 0.8 0
2.5 0.82 0.1
2.5 0.82 0
2.5 0.84 0.1
2.5 0.84 0
2.5 0.86 0.1
2.5 0.86 0
2.5 0.88 0.1
2.5 0.88 0
2.5 0.9 0.1
2.5 0.9 0
2.5 0.92 0.1
2.5 0.92 0
2.5 0.94 0.1
2.5 0.94 0
2.5 0.96 0.1
2.5 0.96 0
2.5 0.98 0.1
2.5 0.98 0
2.52 0 0
2.52 0 0.1
2.54 0 0
2.54 0 0.1
2.56 0 0
2.56 0 0.1
2.58 0 0
2.58 0 0.1
2.6 0 0
2.6 0 0.1
2.62 0 0
2.62 0 0.1
2.64 0 0
2.64 0 0.1
2.66 0 0
2.66 0 0.1
2.68 0 0
2.68 0 0.1
2.7 0 0
2.7 0 0.1
2.72 0 0
2.72 0 0.1
2.74 0 0
2.74 0 0.1
2.76 0 0
2.76 0 0.1
2.78 0 0
2.78 0 0.1
2.8 0 0
2.8 0 0.1
2.82 0 0
2.82 0 0.1
2.84 0 0
2.84 0 0.1
2.86 0 0
2.86 0 0.1
2.88 0 0
2.88 0 0.1
2.9 0 0
2.9 0 0.1
2.92 0 0
2.92 0 0.1
2.94 0 0
2.94 0 0.1
2.96 0 0
2.96 0 0.1
2.98 0 0
2.98 0 0.1
3 0 0
3 0 0.1
3.02 0 0
3.02 0 0.1
3.04 0 0
3.04 0 0.1
3.06 0 0
3.06 0 0.1
3.08 0 0
3.08 0 0.1
3.1 0 0
3.1 0 0.1
3.12 0 0
3.12 0 0.1
3.14 0 0
3.14 0 0.1
3.16 0 0
3.16 0 0.1
3.18 0 0
3.18 0 0.1
3.2 0 0
3.2 0 0.1
3.22 0 0
3.22 0 0.1
3.24 0 0
3.24 0 0.1
3.26 0 0
3.26 0 0.1
3.28 0 0
3.28 0 0.1
3.3 0 0
3.3 0 0.1
3.32 0 0
3.32 0 0.1
3.34 0 0
3.34 0 0.1
3.36 0 0
3.36 0 0.1
3.38 0 0
3.38 0 0.1
3.4 0 0
3.4 0 0.1
3.42 0 0
3.42 0 0.1
3.44 0 0
3.44 0 0.1
3.46 0 0
3.46 0 0.1
3.48 0 0
3.48 0 0.1
3.5 0 0
3.5 0 0.1
3.52 0 0
3.52 0 0.1
3.54 0 0
3.54 0 0.1
3.56 0 0
3.56 0 0.1
3.58 0 0
3.58 0 0.1
3.6 0 0
3.6 0 0.1
3.62 0 0
3.62 0 0.1
3.64 0 0
3.64 0 0.1
3.66 0 0
3.66 0 0.1
3.68 0 0
3.68 0 0.1
3.7 0 0
3.7 0 0.1
3.72 0 0
3.72 0 0.1
3.74 0 0
3.74 0 0.1
3.76 0 0
3.76 0 0.1
3.78 0 0
3.78 0 0.1
3.8 0 0
3.8 0 0.1
3.82 0 0
3.82 0 0.1
3.84 0 0
3.84 0 0.1
3.86 0 0
3.86 0 0.1
3.88 0 0
3.88 0 0.1
3.9 0 0
3.9 0 0.1
3.92 0 0
3.92 0 0.1
3.94 0 0
3.94 0 0.1
3.96 0 0
3.96 0 0.1
3.98 0 0
3.98 0 0.1
4 0 0
4 0 0.1
4.02 0 0
4.02 0 0.1
4.04 0 0
4.04 0 0.1
4.06 0 0
4.06 0 0.1
4.08 0 0
4.08 0 0.1
4.1 0 0
4.1 0 0.1
4.12 0 0
4.12 0 0.1
4.14 0 0
4.14 0 0.1
4.16 0 0
4.16 0 0.1
4.18 0 0
4.18 0 0.1
4.2 0 0
4.2 0 0.1
4.22 0 0
4.22 0 0.1
4.24 0 0
4.24 0 0.1
4.26 0 0
4.26 0 0.1
4.28 0 0
4.28 0 0.1
4.3 0 0
4.3 0 0.1
4.32 0 0
4.32 0 0.1
4.34 0 0
4.34 0 0.1
4.36 0 0
4.36 0 0.1
4.38 0 0
4.38 0 0.1
4.4 0 0
4.4 0 0.1
4.42 0 0
4.42 0 0.1
4.44 0 0
4.44 0 0.1
4.46 0 0
4.46 0 0.1
4.48 0 0
4.48 0 0.1
4.5 0 0
4.5 0 0.1

POLYGONS 325 1625
4 0 1 2 3
4 1 4 5 2
4 4 6 7 5
4 6 8 9 7
4 8 10 11 9
4 10 12 13 11
4 12 14 15 13
4 14 16 17 15
4 16 18 19 17
4 18 20 21 19
4 20 22 23 21
4 22 24 25 23
4 24 26 27 25
4 26 28 29 27
4 28 30 31 29
4 30 32 33 31
4 32 34 35 33
4 34 36 37 35
4 36 38 39 37
4 38 40 41 39
4 40 42 43 41
4 42 44 45 43
4 44 46 47 45
4 46 48 49 47
4 48 50 51 49
4 50 52 53 51
4 52 54 55 53
4 54 56 57 55
4 56 58 59 57
4 58 60 61 59
4 60 62 63 61
4 62 64 65 63
4 64 66 67 65
4 66 68 69 67
4 68 70 71 69
4 70 72 73 71
4 72 74 75 73
4 74 76 77 75
4 76 78 79 77
4 78 80 81 79
4 80 82 83 81
4 82 84 85 83
4 84 86 87 85
4 86 88 89 87
4 88 90 91 89
4 90 92 93 91
4 92 94 95 93
4 94 96 97 95
4 96 98 99 97
4 98 100 101 99
4 100 102 103 101
4 102 104 105 103
4 104 106 107 105
4 106 108 109 107
4 108 110 111 109
4 110 112 113 111
4 112 114 115 113
4 114 116 117 115
4 116 118 119 117
4 118 120 121 119
4 120 122 123 121
4 122 124 125 123
4 124 126 127 125
4 126 128 129 127
4 128 130 131 129
4 130 132 133 131
4 132 134 135 133
4 134 136 137 135
4 136 138 139 137
4 138 140 141 139
4 140 142 143 141
4 142 144 145 143
4 144 146 147 145
4 146 148 149 147
4 148 150 151 149
4 150 152 153 151
4 152 154 155 153
4 154 156 157 155
4 156 158 159 157
4 158 160 161 159
4 160 162 163 161
4 162 164 165 163
4 164 166 167 165
4 166 168 169 167
4 168 170 171 169
4 170 172 173 171
4 172 174 175 173
4 174 176 177 175
4 176 178 179 177
4 178 180 181 179
4 180 182 183 181
4 182 184 185 183
4 184 186 187 185
4 186 188 189 187
4 188 190 191 189
4 190 192 193 191
4 192 194 195 193
4 194 196 197 195
4 196 198 199 197
4 198 200 201 199
4 200 202 203 201
4 202 204 205 203
4 204 206 207 205
4 206 208 209 207
4 208 210 211 209
4 210 212 213 211
4 212 214 215 213
4 214 216 217 215
4 216 218 219 217
4 218 220 221 219
4 220 222 223 221
4 222 224 225 223
4 224 226 227 225
4 226 228 229 227
4 228 230 231 229
4 230 232 233 231
4 232 234 235 233
4 234 236 237 235
4 236 238 239 237
4 238 240 241 239
4 240 242 243 241
4 242 244 245 243
4 244 246 247 245
4 246 248 249 247
4 248 250 251 249
4 250 252 253 251
4 252 254 255 253
4 254 256 257 255
4 256 258 259 257
4 258 260 261 259
4 260 262 263 261
4 262 264 265 263
4 264 266 267 265
4 266 268 269 267
4 268 270 271 269
4 270 272 273 271
4 272 274 275 273
4 274 276 277 275
4 276 278 279 277
4 278 280 281 279
4 280 282 283 281
4 282 284 285 283
4 284 286 287 285
4 286 288 289 287
4 288 290 291 289
4 290 292 293 291
4 292 294 295 293
4 294 296 297 295
4 296 298 299 297
4 298 300 301 299
4 300 302 303 301
4 302 304 305 303
4 304 306 307 305
4 306 308 309 307
4 308 310 311 309
4 310 312 313 311
4 312 314 315 313
4 314 316 317 315
4 316 318 319 317
4 318 320 321 319
4 320 322 323 321
4 322 324 325 323
4 324 326 327 325
4 326 328 329 327
4 328 330 331 329
4 330 332 333 331
4 332 334 335 333
4 334 336 337 335
4 336 338 339 337
4 338 340 341 339
4 340 342 343 341
4 342 344 345 343
4 344 346 347 345
4 346 348 349 347
4 348 350 351 349
4 352 353 354 355
4 355 354 356 357
4 357 356 358 359
4 359 358 360 361
4 361 360 362 363
4 363 362 364 365
4 365 364 366 367
4 367 366 368 369
4 369 368 370 371
4 371 370 372 373
4 373 372 374 375
4 375 374 376 377
4 377 376 378 379
4 379 378 380 381
4 381 380 382 383
4 383 382 384 385
4 385 384 386 387
4 387 386 388 389
4 389 388 390 391
4 391 390 392 393
4 393 392 394 395
4 395 394 396 397
4 397 396 398 399
4 399 398 400 401
4 401 400 402 403
4 403 402 404 405
4 405 404 406 407
4 407 406 408 409
4 409 408 410 411
4 411 410 412 413
4 413 412 414 415
4 415 414 416 417
4 417 416 418 419
4 419 418 420 421
4 421 420 422 423
4 423 422 424 425
4 425 424 426 427
4 427 426 428 429
4 429 428 430 431
4 431 430 432 433
4 433 432 434 435
4 435 434 436 437
4 437 436 438 439
4 439 438 440 441
4 441 440 442 443
4 443 442 444 445
4 445 444 446 447
4 447 446 448 449
4 449 448 450 451
4 451 450 351 350
4 352 452 453 353
4 452 454 455 453
4 454 456 457 455
4 456 458 459 457
4 458 460 461 459
4 460 462 463 461
4 462 464 465 463
4 464 466 467 465
4 466 468 469 467
4 468 470 471 469
4 470 472 473 471
4 472 474 475 473
4 474 476 477 475
4 476 478 479 477
4 478 480 481 479
4 480 482 483 481
4 482 484 485 483
4 484 486 487 485
4 486 488 489 487
4 488 490 491 489
4 490 492 493 491
4 492 494 495 493
4 494 496 497 495
4 496 498 499 497
4 498 500 501 499
4 500 502 503 501
4 502 504 505 503
4 504 506 507 505
4 506 508 509 507
4 508 510 511 509
4 510 512 513 511
4 512 514 515 513
4 514 516 517 515
4 516 518 519 517
4 518 520 521 519
4 520 522 523 521
4 522 524 525 523
4 524 526 527 525
4 526 528 529 527
4 528 530 531 529
4 530 532 533 531
4 532 534 535 533
4 534 536 537 535
4 536 538 539 537
4 538 540 541 539
4 540 542 543 541
4 542 544 545 543
4 544 546 547 545
4 546 548 549 547
4 548 550 551 549
4 550 552 553 551
4 552 554 555 553
4 554 556 557 555
4 556 558 559 557
4 558 560 561 559
4 560 562 563 561
4 562 564 565 563
4 564 566 567 565
4 566 568 569 567
4 568 570 571 569
4 570 572 573 571
4 572 574 575 573
4 574 576 577 575
4 576 578 579 577
4 578 580 581 579
4 580 582 583 581
4 582 584 585 583
4 584 586 587 585
4 586 588 589 587
4 588 590 591 589
4 590 592 593 591
4 592 594 595 593
4 594 596 597 595
4 596 598 599 597
4 598 600 601 599
4 600 602 603 601
4 602 604 605 603
4 604 606 607 605
4 606 608 609 607
4 608 610 611 609
4 610 612 613 611
4 612 614 615 613
4 614 616 617 615
4 616 618 619 617
4 618 620 621 619
4 620 622 623 621
4 622 624 625 623
4 624 626 627 625
4 626 628 629 627
4 628 630 631 629
4 630 632 633 631
4 632 634 635 633
4 634 636 637 635
4 636 638 639 637
4 638 640 641 639
4 640 642 643 641
4 642 644 645 643
4 644 646 647 645
4 646 648 649 647
4 648 650 651 649
POINT_DATA 652
FIELD attributes 1
U 3 652 float
2.48814 0.00307048 -0.0419565
1.24456 0.00153332 -0.0209782
1.24456 0.00153332 -0.0209782
2.48814 0.00307048 -0.0419565
0.000982044 -4.4069e-06 0
0.000982044 -4.4069e-06 0
0.000985159 -3.16636e-06 0
0.000985159 -3.16636e-06 0
0.000987943 -6.51735e-07 0
0.000987943 -6.51735e-07 0
0.000989752 -2.49774e-07 0
0.000989752 -2.49774e-07 0
0.0009907 -9.66098e-07 0
0.0009907 -9.66098e-07 0
0.000990487 -1.44329e-06 0
0.000990487 -1.44329e-06 0
0.000988974 -1.18933e-06 0
0.000988974 -1.18933e-06 0
0.000986747 -3.81047e-07 0
0.000986747 -3.81047e-07 0
0.00098488 5.22069e-07 0
0.00098488 5.22069e-07 0
0.000984046 1.11778e-06 0
0.000984046 1.11778e-06 0
0.00098383 1.33516e-06 0
0.00098383 1.33516e-06 0
0.000983032 1.38586e-06 0
0.000983032 1.38586e-06 0
0.000980704 1.40372e-06 0
0.000980704 1.40372e-06 0
0.000976992 1.23126e-06 0
0.000976992 1.23126e-06 0
0.000972968 6.7931e-07 0
0.000972968 6.7931e-07 0
0.000969596 -4.58629e-08 0
0.000969596 -4.58629e-08 0
0.000966908 -4.06834e-07 0
0.000966908 -4.06834e-07 0
0.000964174 -1.16428e-07 0
0.000964174 -1.16428e-07 0
0.000960804 5.21025e-07 0
0.000960804 5.21025e-07 0
0.000956951 9.71405e-07 0
0.000956951 9.71405e-07 0
0.000953233 1.13999e-06 0
0.000953233 1.13999e-06 0
0.000949959 1.52703e-06 0
0.000949959 1.52703e-06 0
0.000946772 2.59832e-06 0
0.000946772 2.59832e-06 0
0.000943021 4.08369e-06 0
0.000943021 4.08369e-06 0
0.000938456 5.0717e-06 0
0.000938456 5.0717e-06 0
0.000933461 4.88099e-06 0
0.000933461 4.88099e-06 0
0.000928602 3.8268e-06 0
0.000928602 3.8268e-06 0
0.000924 3.05341e-06 0
0.000924 3.05341e-06 0
0.000919175 3.523e-06 0
0.000919175 3.523e-06 0
0.000913499 5.12295e-06 0
0.000913499 5.12295e-06 0
0.000906816 6.73702e-06 0
0.000906816 6.73702e-06 0
0.000899629 7.19147e-06 0
0.000899629 7.19147e-06 0
0.000892691 6.22627e-06 0
0.000892691 6.22627e-06 0
0.000886375 4.68065e-06 0
0.000886375 4.68065e-06 0
0.000880339 3.80458e-06 0
0.000880339 3.80458e-06 0
0.000873698 4.34136e-06 0
0.000873698 4.34136e-06 0
0.000865528 6.09076e-06 0
0.000865528 6.09076e-06 0
0.000855389 8.16208e-06 0
0.000855389 8.16208e-06 0
0.000843527 9.61465e-06 0
0.000843527 9.61465e-06 0
0.000830685 9.9859e-06 0
0.000830685 9.9859e-06 0
0.000817692 9.40078e-06 0
0.000817692 9.40078e-06 0
0.000805127 8.32408e-06 0
0.000805127 8.32408e-06 0
0.000793203 7.22847e-06 0
0.000793203 7.22847e-06 0
0.000781844 6.39674e-06 0
0.000781844 6.39674e-06 0
0.000770836 5.90132e-06 0
0.000770836 5.90132e-06 0
0.000759959 5.68373e-06 0
0.000759959 5.68373e-06 0
0.000749048 5.6446e-06 0
0.000749048 5.6446e-06 0
0.000738008 5.69903e-06 0
0.000738008 5.69903e-06 0
0.000726794 5.79387e-06 0
0.000726794 5.79387e-06 0
0.000715386 5.903e-06 0
0.000715386 5.903e-06 0
0.00070378 6.01636e-06 0
0.00070378 6.01636e-06 0
0.000691973 6.13106e-06 0
0.000691973 6.13106e-06 0
0.000679962 6.24665e-06 0
0.000679962 6.24665e-06 0
0.000667746 6.36308e-06 0
0.000667746 6.36308e-06 0
0.000655321 6.48026e-06 0
0.000655321 6.48026e-06 0
0.000642685 6.59796e-06 0
0.000642685 6.59796e-06 0
0.000629834 6.71589e-06 0
0.000629834 6.71589e-06 0
0.000616768 6.83374e-06 0
0.000616768 6.83374e-06 0
0.000603482 6.95118e-06 0
0.000603482 6.95118e-06 0
0.000589976 7.06788e-06 0
0.000589976 7.06788e-06 0
0.000576249 7.18352e-06 0
0.000576249 7.18352e-06 0
0.0005623 7.29768e-06 0
0.0005623 7.29768e-06 0
0.00054813 7.40956e-06 0
0.00054813 7.40956e-06 0
0.000533739 7.51791e-06 0
0.000533739 7.51791e-06 0
0.000519131 7.62143e-06 0
0.000519131 7.62143e-06 0
0.000504306 7.71891e-06 0
0.000504306 7.71891e-06 0
0.00048927 7.80924e-06 0
0.00048927 7.80924e-06 0
0.000474027 7.8913e-06 0
0.000474027 7.8913e-06 0
0.000458585 7.96389e-06 0
0.000458585 7.96389e-06 0
0.000442952 8.02573e-06 0
0.000442952 8.02573e-06 0
0.000427138 8.07545e-06 0
0.000427138 8.07545e-06 0
0.000411155 8.11155e-06 0
0.000411155 8.11155e-06 0
0.000395017 8.13248e-06 0
0.000395017 8.13248e-06 0
0.000378742 8.13662e-06 0
0.000378742 8.13662e-06 0
0.000362347 8.12229e-06 0
0.000362347 8.12229e-06 0
0.000345855 8.08783e-06 0
0.000345855 8.08783e-06 0
0.000329288 8.03163e-06 0
0.000329288 8.03163e-06 0
0.000312673 7.95226e-06 0
0.000312673 7.95226e-06 0
0.000296038 7.84847e-06 0
0.000296038 7.84847e-06 0
0.000279413 7.71928e-06 0
0.000279413 7.71928e-06 0
0.000262831 7.56402e-06 0
0.000262831 7.56402e-06 0
0.000246326 7.38253e-06 0
0.000246326 7.38253e-06 0
0.000229932 7.17528e-06 0
0.000229932 7.17528e-06 0
0.000213684 6.94344e-06 0
0.000213684 6.94344e-06 0
0.000197617 6.68896e-06 0
0.000197617 6.68896e-06 0
0.000181761 6.41465e-06 0
0.000181761 6.41465e-06 0
0.000166147 6.12418e-06 0
0.000166147 6.12418e-06 0
0.000150801 5.82212e-06 0
0.000150801 5.82212e-06 0
0.000135742 5.51386e-06 0
0.000135742 5.51386e-06 0
0.000120985 5.20552e-06 0
0.000120985 5.20552e-06 0
0.000106536 4.9038e-06 0
0.000106536 4.9038e-06 0
9.23934e-05 4.61574e-06 0
9.23934e-05 4.61574e-06 0
7.85465e-05 4.34853e-06 0
7.85465e-05 4.34853e-06 0
6.49755e-05 4.10906e-06 0
6.49755e-05 4.10906e-06 0
5.1652e-05 3.90374e-06 0
5.1652e-05 3.90374e-06 0
3.85378e-05 3.73719e-06 0
3.85378e-05 3.73719e-06 0
2.55919e-05 3.60989e-06 0
2.55919e-05 3.60989e-06 0
1.276e-05 3.53579e-06 0
1.276e-05 3.53579e-06 0
6.36381e-06 3.51577e-06 0
6.36381e-06 3.51577e-06 0
8.54618e-06 1.28654e-05 0
8.54618e-06 1.28654e-05 0
1.08806e-05 3.41475e-05 0
1.08806e-05 3.41475e-05 0
1.07629e-05 5.64944e-05 0
1.07629e-05 5.64944e-05 0
1.02752e-05 7.72992e-05 0
1.02752e-05 7.72992e-05 0
9.95041e-06 9.76206e-05 0
9.95041e-06 9.76206e-05 0
9.81415e-06 0.000117356 0
9.81415e-06 0.000117356 0
9.79552e-06 0.000136974 0
9.79552e-06 0.000136974 0
9.83591e-06 0.00015665 0
9.83591e-06 0.00015665 0
9.90315e-06 0.000176442 0
9.90315e-06 0.000176442 0
9.98333e-06 0.000196382 0
9.98333e-06 0.000196382 0
1.00718e-05 0.00021649 0
1.00718e-05 0.00021649 0
1.0168e-05 0.000236783 0
1.0168e-05 0.000236783 0
1.02724e-05 0.000257275 0
1.02724e-05 0.000257275 0
1.03861e-05 0.000277985 0
1.03861e-05 0.000277985 0
1.051e-05 0.000298932 0
1.051e-05 0.000298932 0
1.0645e-05 0.000320137 0
1.0645e-05 0.000320137 0
1.07922e-05 0.000341624 0
1.07922e-05 0.000341624 0
1.09528e-05 0.000363417 0
1.09528e-05 0.000363417 0
1.11276e-05 0.000385545 0
1.11276e-05 0.000385545 0
1.13182e-05 0.000408037 0
1.13182e-05 0.000408037 0
1.15259e-05 0.000430926 0
1.15259e-05 0.000430926 0
1.17527e-05 0.000454249 0
1.17527e-05 0.000454249 0
1.19995e-05 0.000478043 0
1.19995e-05 0.000478043 0
1.227e-05 0.000502355 0
1.227e-05 0.000502355 0
1.25653e-05 0.000527228 0
1.25653e-05 0.000527228 0
1.28899e-05 0.000552721 0
1.28899e-05 0.000552721 0
1.32436e-05 0.000578887 0
1.32436e-05 0.000578887 0
1.36374e-05 0.000605803 0
1.36374e-05 0.000605803 0
1.40654e-05 0.000633531 0
1.40654e-05 0.000633531 0
1.45488e-05 0.000662174 0
1.45488e-05 0.000662174 0
1.50713e-05 0.000691808 0
1.50713e-05 0.000691808 0
1.56736e-05 0.000722577 0
1.56736e-05 0.000722577 0
1.63189e-05 0.000754567 0
1.63189e-05 0.000754567 0
1.70963e-05 0.000787998 0
1.70963e-05 0.000787998 0
1.78944e-05 0.000822953 0
1.78944e-05 0.000822953 0
1.89289e-05 0.000859783 0
1.89289e-05 0.000859783 0
1.99326e-05 0.000898554 0
1.99326e-05 0.000898554 0
2.13889e-05 0.000939873 0
2.13889e-05 0.000939873 0
2.26476e-05 0.0009837 0
2.26476e-05 0.0009837 0
2.48592e-05 0.00103118 0
2.48592e-05 0.00103118 0
2.63973e-05 0.00108198 0
2.63973e-05 0.00108198 0
3.0134e-05 0.0011384 0
3.0134e-05 0.0011384 0
3.18712e-05 0.00119941 0
3.18712e-05 0.00119941 0
3.91236e-05 0.00126985 0
3.91236e-05 0.00126985 0
4.09723e-05 0.00134766 0
4.09723e-05 0.00134766 0
5.74968e-05 0.00144309 0
5.74968e-05 0.00144309 0
6.14503e-05 0.00155541 0
6.14503e-05 0.00155541 0
0.0001085 0.00170438 0
0.0001085 0.00170438 0
0.000132171 0.00190294 0
0.000132171 0.00190294 0
0.000130152 0.00120398 0
0.000130152 0.00120398 0
-0.000331375 0.000168625 0
-0.000331375 0.000168625 0
-0.000449808 -0.000144403 0
-0.000449808 -0.000144403 0
-5.31468e-05 -0.000231346 0
-5.31468e-05 -0.000231346 0
0.000414846 -0.000274668 0
0.000414846 -0.000274668 0
0.000950962 -0.000131999 0
0.000950962 -0.000131999 0
0.000875568 0.000107044 0
0.000875568 0.000107044 0
0.000567965 0.000118016 0
0.000567965 0.000118016 0
0.000115209 0.000209955 0
0.000115209 0.000209955 0
-0.000644504 0.000414073 0
-0.000644504 0.000414073 0
-0.00147942 0.000441903 0
-0.00147942 0.000441903 0
-0.00217349 0.000366174 0
-0.00217349 0.000366174 0
-0.00273259 0.000280642 0
-0.00273259 0.000280642 0
-0.00313954 0.000191403 0
-0.00313954 0.000191403 0
-0.00339285 0.000105934 0
-0.00339285 0.000105934 0
-0.00349538 2.66018e-05 0
-0.00349538 2.66018e-05 0
-0.00346144 -4.24547e-05 0
-0.00346144 -4.24547e-05 0
-0.003312 -9.93221e-05 0
-0.003312 -9.93221e-05 0
-0.00306852 -0.000143521 0
-0.00306852 -0.000143521 0
-0.00275222 -0.00017529 0
-0.00275222 -0.00017529 0
-0.00238699 -0.000195769 0
-0.00238699 -0.000195769 0
-0.00199137 -0.00020743 0
-0.00199137 -0.00020743 0
-0.00158115 -0.000212784 0
-0.00158115 -0.000212784 0
-0.00116596 -0.000215259 0
-0.00116596 -0.000215259 0
-0.000748915 -0.000221749 0
-0.000748915 -0.000221749 0
-0.000240654 -8.32853e-05 0
-0.000240654 -8.32853e-05 0
-6.16497e-06 5.44606e-06 0
-6.16497e-06 5.44606e-06 0
-6.23427e-06 1.0967e-05 0
-6.23427e-06 1.0967e-05 0
-6.31479e-06 2.20981e-05 0
-6.31479e-06 2.20981e-05 0
-6.37893e-06 3.33858e-05 0
-6.37893e-06 3.33858e-05 0
-6.50526e-06 4.48844e-05 0
-6.50526e-06 4.48844e-05 0
-6.67034e-06 5.67104e-05 0
-6.67034e-06 5.67104e-05 0
-6.87286e-06 6.89454e-05 0
-6.87286e-06 6.89454e-05 0
-7.11285e-06 8.16726e-05 0
-7.11285e-06 8.16726e-05 0
-7.39054e-06 9.49766e-05 0
-7.39054e-06 9.49766e-05 0
-7.70601e-06 0.000108942 0
-7.70601e-06 0.000108942 0
-8.05869e-06 0.000123654 0
-8.05869e-06 0.000123654 0
-8.44837e-06 0.000139197 0
-8.44837e-06 0.000139197 0
-8.87376e-06 0.000155653 0
-8.87376e-06 0.000155653 0
-9.33288e-06 0.000173101 0
-9.33288e-06 0.000173101 0
-9.82302e-06 0.000191618 0
-9.82302e-06 0.000191618 0
-1.03399e-05 0.000211267 0
-1.03399e-05 0.000211267 0
-1.08776e-05 0.000232107 0
-1.08776e-05 0.000232107 0
-1.14284e-05 0.000254174 0
-1.14284e-05 0.000254174 0
-1.19807e-05 0.000277494 0
-1.19807e-05 0.000277494 0
-1.2522e-05 0.000302049 0
-1.2522e-05 0.000302049 0
-1.30304e-05 0.000327809 0
-1.30304e-05 0.000327809 0
-1.3491e-05 0.000354674 0
-1.3491e-05 0.000354674 0
-1.3867e-05 0.000382529 0
-1.3867e-05 0.000382529 0
-1.41302e-05 0.000411171 0
-1.41302e-05 0.000411171 0
-1.4257e-05 0.00044034 0
-1.4257e-05 0.00044034 0
-1.41817e-05 0.000469725 0
-1.41817e-05 0.000469725 0
-1.38662e-05 0.000498867 0
-1.38662e-05 0.000498867 0
-1.32975e-05 0.000527236 0
-1.32975e-05 0.000527236 0
-1.24225e-05 0.000554279 0
-1.24225e-05 0.000554279 0
-1.11536e-05 0.000579243 0
-1.11536e-05 0.000579243 0
-9.45642e-06 0.000601315 0
-9.45642e-06 0.000601315 0
-7.3594e-06 0.000619584 0
-7.3594e-06 0.000619584 0
-4.84037e-06 0.000633272 0
-4.84037e-06 0.000633272 0
-1.78011e-06 0.000641369 0
-1.78011e-06 0.000641369 0
1.9539e-06 0.000642992 0
1.9539e-06 0.000642992 0
6.35189e-06 0.000636843 0
6.35189e-06 0.000636843 0
1.13305e-05 0.000622387 0
1.13305e-05 0.000622387 0
1.67986e-05 0.000598382 0
1.67986e-05 0.000598382 0
2.28643e-05 0.000564713 0
2.28643e-05 0.000564713 0
2.96337e-05 0.000519726 0
2.96337e-05 0.000519726 0
3.7315e-05 0.000463797 0
3.7315e-05 0.000463797 0
4.52835e-05 0.000394331 0
4.52835e-05 0.000394331 0
5.47321e-05 0.000313568 0
5.47321e-05 0.000313568 0
6.40893e-05 0.000215559 0
6.40893e-05 0.000215559 0
7.54949e-05 0.000106274 0
7.54949e-05 0.000106274 0
7.21294e-05 -2.00712e-05 0
7.21294e-05 -2.00712e-05 0
1.12846e-05 -0.000127088 0
1.12846e-05 -0.000127088 0
-0.000118245 -0.000143412 0
-0.000118245 -0.000143412 0
-0.000191993 -3.48083e-05 0
-0.000191993 -3.48083e-05 0
-6.3694e-05 5.8899e-05 0
-6.3694e-05 5.8899e-05 0
-1.0968e-05 5.1234e-06 0
-1.0968e-05 5.1234e-06 0
-2.05811e-05 4.86542e-06 0
-2.05811e-05 4.86542e-06 0
-3.04711e-05 4.90243e-06 0
-3.04711e-05 4.90243e-06 0
-4.02761e-05 4.79504e-06 0
-4.02761e-05 4.79504e-06 0
-4.97053e-05 4.6119e-06 0
-4.97053e-05 4.6119e-06 0
-5.87457e-05 4.38292e-06 0
-5.87457e-05 4.38292e-06 0
-6.72333e-05 4.11146e-06 0
-6.72333e-05 4.11146e-06 0
-7.5158e-05 3.79772e-06 0
-7.5158e-05 3.79772e-06 0
-8.23787e-05 3.44263e-06 0
-8.23787e-05 3.44263e-06 0
-8.88556e-05 3.04776e-06 0
-8.88556e-05 3.04776e-06 0
-9.44856e-05 2.61351e-06 0
-9.44856e-05 2.61351e-06 0
-9.92083e-05 2.14181e-06 0
-9.92083e-05 2.14181e-06 0
-0.000102947 1.6347e-06 0
-0.000102947 1.6347e-06 0
-0.000105643 1.09604e-06 0
-0.000105643 1.09604e-06 0
-0.000107239 5.31566e-07 0
-0.000107239 5.31566e-07 0
-0.000107688 -5.1233e-08 0
-0.000107688 -5.1233e-08 0
-0.000106961 -6.44376e-07 0
-0.000106961 -6.44376e-07 0
-0.000105042 -1.24335e-06 0
-0.000105042 -1.24335e-06 0
-0.000101917 -1.84493e-06 0
-0.000101917 -1.84493e-06 0
-9.75846e-05 -2.44519e-06 0
-9.75846e-05 -2.44519e-06 0
-9.20528e-05 -3.03887e-06 0
-9.20528e-05 -3.03887e-06 0
-8.53392e-05 -3.62103e-06 0
-8.53392e-05 -3.62103e-06 0
-7.7473e-05 -4.18748e-06 0
-7.7473e-05 -4.18748e-06 0
-6.84924e-05 -4.73245e-06 0
-6.84924e-05 -4.73245e-06 0
-5.84427e-05 -5.25228e-06 0
-5.84427e-05 -5.25228e-06 0
-4.73789e-05 -5.74332e-06 0
-4.73789e-05 -5.74332e-06 0
-3.53644e-05 -6.20225e-06 0
-3.53644e-05 -6.20225e-06 0
-2.2468e-05 -6.62683e-06 0
-2.2468e-05 -6.62683e-06 0
-8.74665e-06 -7.01505e-06 0
-8.74665e-06 -7.01505e-06 0
5.73484e-06 -7.36582e-06 0
5.73484e-06 -7.36582e-06 0
2.08803e-05 -7.67807e-06 0
2.08803e-05 -7.67807e-06 0
3.66029e-05 -7.9514e-06 0
3.66029e-05 -7.9514e-06 0
5.28299e-05 -8.18615e-06 0
5.28299e-05 -8.18615e-06 0
6.94843e-05 -8.38314e-06 0
6.94843e-05 -8.38314e-06 0
8.64919e-05 -8.54351e-06 0
8.64919e-05 -8.54351e-06 0
0.000103781 -8.66874e-06 0
0.000103781 -8.66874e-06 0
0.000121284 -8.76054e-06 0
0.000121284 -8.76054e-06 0
0.000138937 -8.82084e-06 0
0.000138937 -8.82084e-06 0
0.00015668 -8.8517e-06 0
0.00015668 -8.8517e-06 0
0.000174458 -8.85533e-06 0
0.000174458 -8.85533e-06 0
0.000192218 -8.83399e-06 0
0.000192218 -8.83399e-06 0
0.000209911 -8.78994e-06 0
0.000209911 -8.78994e-06 0
0.000227496 -8.72543e-06 0
0.000227496 -8.72543e-06 0
0.000244932 -8.64264e-06 0
0.000244932 -8.64264e-06 0
0.000262185 -8.54365e-06 0
0.000262185 -8.54365e-06 0
0.000279225 -8.43049e-06 0
0.000279225 -8.43049e-06 0
0.000296025 -8.30505e-06 0
0.000296025 -8.30505e-06 0
0.000312562 -8.16909e-06 0
0.000312562 -8.16909e-06 0
0.000328817 -8.02426e-06 0
0.000328817 -8.02426e-06 0
0.000344775 -7.8721e-06 0
0.000344775 -7.8721e-06 0
0.00036042 -7.71398e-06 0
0.00036042 -7.71398e-06 0
0.000375744 -7.55119e-06 0
0.000375744 -7.55119e-06 0
0.000390737 -7.38487e-06 0
0.000390737 -7.38487e-06 0
0.000405394 -7.21604e-06 0
0.000405394 -7.21604e-06 0
0.000419711 -7.04563e-06 0
0.000419711 -7.04563e-06 0
0.000433685 -6.87445e-06 0
0.000433685 -6.87445e-06 0
0.000447316 -6.70324e-06 0
0.000447316 -6.70324e-06 0
0.000460604 -6.53261e-06 0
0.000460604 -6.53261e-06 0
0.000473551 -6.36311e-06 0
0.000473551 -6.36311e-06 0
0.000486159 -6.19523e-06 0
0.000486159 -6.19523e-06 0
0.000498433 -6.02937e-06 0
0.000498433 -6.02937e-06 0
0.000510377 -5.86587e-06 0
0.000510377 -5.86587e-06 0
0.000521995 -5.70502e-06 0
0.000521995 -5.70502e-06 0
0.000533294 -5.54706e-06 0
0.000533294 -5.54706e-06 0
0.000544279 -5.39218e-06 0
0.000544279 -5.39218e-06 0
0.000554957 -5.24055e-06 0
0.000554957 -5.24055e-06 0
0.000565334 -5.09227e-06 0
0.000565334 -5.09227e-06 0
0.000575417 -4.94744e-06 0
0.000575417 -4.94744e-06 0
0.000585213 -4.80613e-06 0
0.000585213 -4.80613e-06 0
0.000594729 -4.66836e-06 0
0.000594729 -4.66836e-06 0
0.000603973 -4.53417e-06 0
0.000603973 -4.53417e-06 0
0.000612951 -4.40354e-06 0
0.000612951 -4.40354e-06 0
0.000621671 -4.27646e-06 0
0.000621671 -4.27646e-06 0
0.000630139 -4.15291e-06 0
0.000630139 -4.15291e-06 0
0.000638363 -4.03284e-06 0
0.000638363 -4.03284e-06 0
0.00064635 -3.91621e-06 0
0.00064635 -3.91621e-06 0
0.000654106 -3.80296e-06 0
0.000654106 -3.80296e-06 0
0.000661638 -3.69304e-06 0
0.000661638 -3.69304e-06 0
0.000668953 -3.58635e-06 0
0.000668953 -3.58635e-06 0
0.000676057 -3.48285e-06 0
0.000676057 -3.48285e-06 0
0.000682957 -3.38245e-06 0
0.000682957 -3.38245e-06 0
0.000689658 -3.28507e-06 0
0.000689658 -3.28507e-06 0
0.000696167 -3.19063e-06 0
0.000696167 -3.19063e-06 0
0.000702488 -3.09907e-06 0
0.000702488 -3.09907e-06 0
0.00070863 -3.01025e-06 0
0.00070863 -3.01025e-06 0
0.000714594 -2.92418e-06 0
0.000714594 -2.92418e-06 0
0.000720392 -2.84064e-06 0
0.000720392 -2.84064e-06 0
0.000726018 -2.75977e-06 0
0.000726018 -2.75977e-06 0
0.000731495 -2.68114e-06 0
0.000731495 -2.68114e-06 0
0.000736799 -2.60519e-06 0
0.000736799 -2.60519e-06 0
0.000741981 -2.53105e-06 0
0.000741981 -2.53105e-06 0
0.000746971 -2.45983e-06 0
0.000746971 -2.45983e-06 0
0.000751891 -2.38968e-06 0
0.000751891 -2.38968e-06 0
0.000756563 -2.32319e-06 0
0.000756563 -2.32319e-06 0
0.000761272 -2.25622e-06 0
0.000761272 -2.25622e-06 0
0.000765587 -2.19488e-06 0
0.000765587 -2.19488e-06 0
0.00077018 -2.1297e-06 0
0.00077018 -2.1297e-06 0
0.000774022 -2.07488e-06 0
0.000774022 -2.07488e-06 0
0.978592 -0.00244769 0
0.978592 -0.00244769 0
1.95641 -0.00489331 0
1.95641 -0.00489331 0
