/*--------------------------------*- C++ -*----------------------------------*\
| =========                 |                                                 |
| \\      /  F ield         | OpenFOAM: The Open Source CFD Toolbox           |
|  \\    /   O peration     | Version:  4.1                                   |
|   \\  /    A nd           | Web:      www.OpenFOAM.org                      |
|    \\/     M anipulation  |                                                 |
\*---------------------------------------------------------------------------*/
FoamFile
{
    version     2.0;
    format      ascii;
    class       surfaceScalarField;
    location    "0.4";
    object      phi;
}
// * * * * * * * * * * * * * * * * * * * * * * * * * * * * * * * * * * * * * //

dimensions      [0 3 -1 0 0 0 0];

internalField   nonuniform List<scalar> 
87025
(
0.0199633
3.67118e-05
0.0199045
5.87855e-05
0.0198334
7.11226e-05
0.0197516
8.17332e-05
0.0196599
9.17035e-05
0.019559
0.000100925
0.0194495
0.000109505
0.0193318
0.000117712
0.0192061
0.000125741
0.0190724
0.000133679
0.0189308
0.000141572
0.0187813
0.000149464
0.0186239
0.000157401
0.0184585
0.000165427
0.0182849
0.000173581
0.018103
0.000181899
0.0179126
0.000190419
0.0177134
0.000199179
0.0175052
0.000208219
0.0172876
0.000217583
0.0170603
0.000227314
0.0168229
0.000237461
0.0165748
0.000248075
0.0163156
0.000259213
0.0160446
0.000270935
0.0157613
0.000283307
0.0154649
0.0002964
0.0151546
0.000310289
0.0148296
0.000325054
0.0144888
0.000340779
0.0141313
0.000357548
0.0137558
0.000375444
0.0133613
0.000394542
0.0129464
0.000414905
0.0125098
0.000436569
0.0120503
0.000459538
0.0115665
0.000483767
0.0110574
0.000509135
0.0105219
0.000535434
0.0099596
0.000562338
0.00937021
0.00058938
0.00875428
0.000615936
0.00811308
0.000641204
0.00744887
0.000664209
0.00676505
0.00068382
0.00606626
0.000698785
0.00535845
0.000707808
0.00464881
0.000709641
0.0039456
0.000703216
0.00325781
0.000687789
0.0025947
0.000663105
0.00196516
0.000629546
0.00137691
0.000588247
0.000835792
0.00054112
0.000345102
0.000490689
-9.47153e-05
0.000439817
-0.000486974
0.000392259
-0.000837062
0.000350088
-0.00115097
0.000313904
-0.0014347
0.000283736
-0.0016931
0.000258399
-0.00192972
0.000236616
-0.00214738
0.00021766
-0.00234881
0.000201432
-0.00253712
0.000188308
-0.00271519
0.000178069
-0.00288514
0.000169949
-0.00304678
0.000161647
-0.00319424
0.000147458
-0.00331349
0.000119253
-0.00338414
7.06484e-05
-0.00338999
5.84754e-06
-0.00333781
-5.21823e-05
-0.0032612
-7.66025e-05
-0.00321772
-4.34816e-05
-0.00326641
4.86861e-05
-0.00344491
0.000178497
-0.00377686
0.000331955
-0.00424971
0.000472853
-0.00482747
0.000577757
-0.00546648
0.000639011
-0.00612583
0.000659346
-0.00677037
0.000644545
-0.00736895
0.000598576
-0.00789552
0.000526575
-0.00832651
0.000430987
-0.00863908
0.000312573
-0.00881253
0.000173449
-0.0088226
1.00701e-05
-0.00869649
-0.000126112
-0.00842413
-0.000272363
-0.00799338
-0.000430751
-0.00738916
-0.000604215
-0.00659432
-0.000794838
-0.00559252
-0.0010018
-0.00437087
-0.00122165
-0.00294046
-0.00143042
-0.00142485
-0.00151561
-0.000236115
-0.00118873
-0.000236115
0.0200266
1.01543e-05
0.0200563
2.90514e-05
0.0200852
4.21987e-05
0.0201134
5.35183e-05
0.0201404
6.47345e-05
0.0201655
7.58164e-05
0.0201884
8.66407e-05
0.0202087
9.73487e-05
0.0202264
0.000108117
0.020241
0.000119039
0.0202524
0.00013016
0.0202604
0.000141518
0.0202646
0.000153162
0.0202649
0.000165137
0.020261
0.000177488
0.0202526
0.000190261
0.0202395
0.000203504
0.0202214
0.00021727
0.020198
0.000231619
0.020169
0.000246615
0.020134
0.000262332
0.0200926
0.000278851
0.0200444
0.000296263
0.019989
0.000314671
0.0199257
0.000334192
0.019854
0.000354956
0.0197733
0.00037711
0.0196828
0.000400821
0.0195816
0.000426272
0.0194687
0.000453669
0.019343
0.000483239
0.0192032
0.000515229
0.0190479
0.000549904
0.0188752
0.000587544
0.0186834
0.000628433
0.01847
0.000672848
0.0182328
0.00072104
0.0179687
0.000773209
0.0176747
0.000829468
0.0173472
0.000889801
0.0169826
0.000954013
0.0165768
0.00102167
0.016126
0.00109205
0.0156261
0.00116407
0.0150737
0.00123626
0.0144657
0.00130676
0.0138002
0.00137331
0.0130765
0.00143336
0.0122955
0.00148418
0.0114603
0.00152303
0.010576
0.0015474
0.00965033
0.0015552
0.00869356
0.00154501
0.00771845
0.00151623
0.00673988
0.00146926
0.00577399
0.00140571
0.00483802
0.00132823
0.00394794
0.00124017
0.00311614
0.0011457
0.00235036
0.00104952
0.00165274
0.000956012
0.00102066
0.000868702
0.000448466
0.000789851
-7.04769e-05
0.000720376
-0.000542385
0.000660217
-0.000972367
0.000608051
-0.00136401
0.000561588
-0.00171892
0.000516561
-0.0020375
0.000466039
-0.0023215
0.000403255
-0.00257897
0.000328116
-0.00282901
0.000255892
-0.00309535
0.000214153
-0.00340432
0.000232367
-0.00377887
0.000331066
-0.00423262
0.000502436
-0.00476343
0.000709317
-0.00533813
0.00090665
-0.00591815
0.00105287
-0.0064663
0.00112591
-0.0069535
0.00112621
-0.00736228
0.00106812
-0.00768645
0.000968714
-0.00792918
0.000841309
-0.00809813
0.000695526
-0.0082038
0.000536656
-0.00825765
0.000366419
-0.00826692
0.00018272
-0.00824197
-1.48764e-05
-0.00812342
-0.000244664
-0.00789451
-0.000501275
-0.0075368
-0.000788464
-0.00703835
-0.00110266
-0.00639187
-0.00144133
-0.00558993
-0.00180374
-0.00462179
-0.00218978
-0.00347489
-0.00257731
-0.0021583
-0.0028322
-0.000808474
-0.00253856
-0.00104459
0.0200002
9.90593e-06
0.0199993
3.00442e-05
0.0199942
4.72087e-05
0.0199853
6.24547e-05
0.0199729
7.71554e-05
0.0199571
9.16251e-05
0.0199379
0.000105799
0.0199155
0.000119743
0.01989
0.000133608
0.0198616
0.000147506
0.0198302
0.000161493
0.0197961
0.000175612
0.0197594
0.000189912
0.0197201
0.000204441
0.0196783
0.000219246
0.0196342
0.000234377
0.0195878
0.000249882
0.0195393
0.000265818
0.0194887
0.000282244
0.0194361
0.000299226
0.0193815
0.000316838
0.0193252
0.000335164
0.0192672
0.000354295
0.0192075
0.000374337
0.0191463
0.000395409
0.0190836
0.000417646
0.0190195
0.000441202
0.0189541
0.000466252
0.0188874
0.000492994
0.0188194
0.000521654
0.0187501
0.000552488
0.0186796
0.000585785
0.0186076
0.00062187
0.0185341
0.000661102
0.0184586
0.000703881
0.0183808
0.000750637
0.0183
0.000801832
0.0182153
0.000857943
0.0181253
0.000919445
0.0180283
0.000986789
0.017922
0.00106036
0.0178032
0.00114042
0.0176682
0.00122708
0.0175121
0.00132019
0.0173291
0.00141926
0.0171124
0.00152343
0.0168544
0.00163133
0.0165466
0.00174113
0.0161804
0.00185045
0.0157469
0.00195646
0.0152384
0.00205595
0.0146481
0.00214547
0.0139717
0.00222145
0.0132075
0.00228039
0.0123578
0.00231903
0.0114289
0.00233453
0.0104325
0.00232466
0.00938467
0.002288
0.00830602
0.00222435
0.0072204
0.00213515
0.00615274
0.00202367
0.00512636
0.00189509
0.0041601
0.00175611
0.00326641
0.00161407
0.00245085
0.00147578
0.00171276
0.00134614
0.00104711
0.00122723
0.000446132
0.00111754
-0.000100318
0.00101249
-0.00060412
0.000907057
-0.00107798
0.000801977
-0.00153248
0.000710394
-0.00197743
0.000659094
-0.00242463
0.00067957
-0.00288758
0.000794014
-0.00337431
0.000989167
-0.00387981
0.00121482
-0.00437946
0.0014063
-0.00484304
0.00151645
-0.00525047
0.00153334
-0.00559846
0.0014742
-0.00589713
0.00136679
-0.00616199
0.00123357
-0.00640653
0.00108585
-0.00663601
0.000925004
-0.00684521
0.000745856
-0.00701921
0.000540424
-0.00713787
0.000301378
-0.00716813
1.5385e-05
-0.00710755
-0.00030524
-0.00693339
-0.000675435
-0.00663757
-0.00108429
-0.00621557
-0.00152466
-0.00567035
-0.00198654
-0.00501351
-0.00246059
-0.00425993
-0.00294336
-0.00340635
-0.0034309
-0.00238866
-0.00384988
-0.0011192
-0.00380802
-0.00216379
0.019999
1.09146e-05
0.0199963
3.2782e-05
0.0199901
5.33621e-05
0.0199799
7.26464e-05
0.0199658
9.13031e-05
0.0199477
0.0001097
0.0199256
0.000127876
0.0198995
0.000145861
0.0198693
0.000163757
0.0198352
0.000181665
0.019797
0.00019965
0.0197549
0.000217761
0.0197087
0.000236043
0.0196586
0.000254546
0.0196046
0.000273317
0.0195465
0.000292402
0.0194846
0.000311849
0.0194187
0.000331709
0.0193489
0.000352035
0.0192752
0.000372888
0.0191977
0.000394331
0.0191165
0.000416435
0.0190315
0.00043928
0.0189429
0.000462952
0.0188507
0.000487549
0.0187552
0.000513182
0.0186564
0.000539974
0.0185546
0.000568062
0.01845
0.000597603
0.0183429
0.000628772
0.0182336
0.000661765
0.0181226
0.000696801
0.0180103
0.000734125
0.0178974
0.000774012
0.0177845
0.000816761
0.0176725
0.000862707
0.0175621
0.00091221
0.0174544
0.000965663
0.0173503
0.00102348
0.017251
0.00108611
0.0171574
0.00115401
0.0170702
0.00122763
0.0169898
0.00130741
0.0169162
0.00139377
0.0168485
0.00148704
0.0167845
0.00158742
0.0167208
0.00169497
0.0166525
0.00180948
0.0165725
0.00193046
0.0164719
0.00205701
0.0163401
0.0021878
0.0161646
0.00232095
0.015932
0.00245403
0.0156284
0.00258397
0.0152403
0.00270708
0.0147559
0.00281903
0.0141656
0.0029149
0.0134642
0.00298936
0.0126517
0.00303694
0.0117342
0.00305256
0.0107257
0.00303222
0.00964705
0.00297374
0.0085257
0.00287746
0.00739304
0.00274673
0.00628094
0.00258787
0.00521748
0.0024096
0.00422307
0.00222164
0.00330782
0.00203279
0.00247103
0.00184929
0.00170331
0.00167477
0.000992039
0.00151325
0.000328093
0.00137434
-0.000289739
0.00127693
-0.000858842
0.00124867
-0.0013764
0.00131157
-0.00184936
0.00146213
-0.00229063
0.00165609
-0.0027081
0.00182377
-0.00310139
0.00190974
-0.00346812
0.00190006
-0.00381087
0.00181696
-0.00413767
0.00169359
-0.00445655
0.00155245
-0.00476965
0.00139896
-0.00507044
0.00122579
-0.005345
0.00102042
-0.00557591
0.000771337
-0.00574489
0.000470358
-0.00584058
0.000111071
-0.00584362
-0.000302201
-0.00574769
-0.000771366
-0.00554041
-0.00129156
-0.00521345
-0.00185162
-0.00476669
-0.0024333
-0.00421511
-0.00301216
-0.0035933
-0.00356518
-0.00293774
-0.00408645
-0.00221095
-0.00457668
-0.00120944
-0.00480953
-0.00337323
0.0199987
1.22088e-05
0.0199949
3.6606e-05
0.0199878
6.04039e-05
0.0199771
8.34123e-05
0.0199625
0.000105864
0.0199442
0.000128028
0.0199221
0.000150007
0.0198961
0.000171842
0.0198662
0.000193605
0.0198325
0.000215383
0.0197949
0.00023725
0.0197534
0.000259262
0.019708
0.000281469
0.0196586
0.000303924
0.0196052
0.000326678
0.0195479
0.000349783
0.0194864
0.000373293
0.0194209
0.00039726
0.0193512
0.000421743
0.0192772
0.000446804
0.0191991
0.000472509
0.0191166
0.000498929
0.0190297
0.000526144
0.0189384
0.000554237
0.0188427
0.000583303
0.0187424
0.000613443
0.0186376
0.000644769
0.0185283
0.000677404
0.0184144
0.000711482
0.018296
0.000747149
0.0181732
0.000784564
0.0180461
0.000823899
0.0179149
0.000865338
0.0177798
0.00090908
0.0176413
0.000955333
0.0174997
0.00100431
0.0173556
0.00105625
0.0172099
0.00111137
0.0170635
0.00116991
0.0169175
0.0012321
0.0167733
0.00129818
0.0166326
0.00136836
0.0164971
0.00144288
0.0163689
0.00152197
0.0162501
0.00160588
0.0161426
0.00169488
0.0160483
0.00178927
0.0159684
0.00188942
0.0159031
0.00199572
0.0158516
0.00210858
0.0158109
0.00222842
0.0157764
0.00235553
0.0157404
0.00248998
0.015693
0.00263141
0.0156212
0.00277888
0.0155097
0.00293056
0.015341
0.00308354
0.0150968
0.00323361
0.0147585
0.00337521
0.0143096
0.00350148
0.0137372
0.00360464
0.0130344
0.00367652
0.0122024
0.00370939
0.0112522
0.00369696
0.0102046
0.00363547
0.0090895
0.00352472
0.00794248
0.00336866
0.00679988
0.00317539
0.0056928
0.00295637
0.00464245
0.00272512
0.00365947
0.00249623
0.00274823
0.00228558
0.00191368
0.00211148
0.00116697
0.00199539
0.00052082
0.00195772
-2.16279e-05
0.00200457
-0.000477919
0.00211238
-0.000880976
0.00222683
-0.00126139
0.00229015
-0.00163552
0.0022742
-0.00200677
0.00218821
-0.00237313
0.00205995
-0.00273124
0.00191056
-0.00307636
0.00174407
-0.00340107
0.0015505
-0.00369577
0.00131512
-0.00395013
0.00102569
-0.00415423
0.000674459
-0.00430012
0.00025696
-0.00437432
-0.000228003
-0.00436705
-0.000778628
-0.00426651
-0.0013921
-0.00406185
-0.00205629
-0.00374629
-0.00274886
-0.0033241
-0.00343435
-0.00282194
-0.00406734
-0.00229383
-0.00461456
-0.00177477
-0.00509573
-0.00110471
-0.0054796
-0.00447794
0.0199985
1.36856e-05
0.0199941
4.10246e-05
0.0199865
6.80213e-05
0.0199754
9.45322e-05
0.0199606
0.000120622
0.0199422
0.000146453
0.0199201
0.000172132
0.0198942
0.000197714
0.0198645
0.000223256
0.0198311
0.000248829
0.0197938
0.000274504
0.0197528
0.000300338
0.0197078
0.000326386
0.0196591
0.0003527
0.0196064
0.000379336
0.0195498
0.000406349
0.0194893
0.000433794
0.0194249
0.00046173
0.0193564
0.000490219
0.0192839
0.000519326
0.0192073
0.000549121
0.0191265
0.000579679
0.0190416
0.000611081
0.0189524
0.000643415
0.0188589
0.000676776
0.0187611
0.000711267
0.0186589
0.000746999
0.0185522
0.000784093
0.018441
0.00082268
0.0183252
0.000862897
0.0182049
0.000904895
0.01808
0.000948831
0.0179504
0.000994869
0.0178163
0.00104318
0.0176777
0.00109394
0.0175347
0.00114732
0.0173875
0.0012035
0.0172362
0.00126262
0.0170813
0.00132484
0.0169231
0.00139027
0.0167623
0.00145902
0.0165995
0.00153114
0.0164357
0.00160666
0.0162721
0.00168558
0.0161101
0.00176787
0.0159515
0.0018535
0.0157983
0.00194245
0.015653
0.00203478
0.015518
0.00213064
0.0153963
0.00223033
0.0152904
0.00233433
0.0152026
0.00244336
0.0151342
0.00255833
0.0150853
0.00268032
0.0150538
0.00281041
0.0150348
0.00294954
0.0150201
0.00309819
0.0149977
0.00325602
0.0149514
0.00342148
0.0148615
0.00359146
0.0147052
0.00376093
0.0144588
0.00392292
0.0140996
0.00406858
0.0136089
0.00418768
0.0129748
0.00426951
0.0121955
0.00430404
0.0112807
0.00428351
0.010252
0.004204
0.00914158
0.00406683
0.00798729
0.00387941
0.00682826
0.00365527
0.00570072
0.00341311
0.00463679
0.0031754
0.00366567
0.00296651
0.00281372
0.00280967
0.00209785
0.00272044
0.00151402
0.00269621
0.00103164
0.00270921
0.000606028
0.00271576
0.000200448
0.00267978
-0.000201213
0.00258987
-0.000597134
0.00245587
-0.000979292
0.00229272
-0.00134006
0.00210484
-0.00167425
0.00188469
-0.0019779
0.00161878
-0.00224711
0.0012949
-0.00247693
0.000904273
-0.00266212
0.000442156
-0.00279347
-9.66556e-05
-0.00286348
-0.000708616
-0.00286141
-0.00139418
-0.00277768
-0.00214002
-0.00260411
-0.00292243
-0.0023379
-0.00370056
-0.00198966
-0.00441558
-0.00159667
-0.00500755
-0.00122671
-0.00546569
-0.000850036
-0.00585628
-0.00532798
0.0199984
1.52605e-05
0.0199937
4.57285e-05
0.0199858
7.59693e-05
0.0199744
0.000105903
0.0199595
0.000135544
0.019941
0.000164982
0.0199188
0.000194301
0.0198929
0.00022356
0.0198634
0.00025281
0.0198301
0.000282112
0.0197931
0.000311529
0.0197523
0.000341122
0.0197077
0.000370945
0.0196594
0.000401053
0.0196072
0.000431502
0.0195512
0.000462349
0.0194914
0.000493653
0.0194276
0.000525473
0.01936
0.000557875
0.0192884
0.000590924
0.0192128
0.000624693
0.0191332
0.000659257
0.0190496
0.000694698
0.0189619
0.000731104
0.0188701
0.00076857
0.0187742
0.000807196
0.0186741
0.000847093
0.0185698
0.000888376
0.0184613
0.000931172
0.0183486
0.000975613
0.0182317
0.00102184
0.0181105
0.00107
0.0179851
0.00112026
0.0178555
0.00117275
0.0177218
0.00122766
0.017584
0.00128513
0.0174422
0.00134532
0.0172964
0.00140836
0.0171469
0.00147438
0.0169937
0.00154347
0.016837
0.00161571
0.016677
0.00169112
0.016514
0.00176968
0.0163483
0.00185132
0.0161802
0.00193593
0.0160103
0.00202335
0.0158394
0.00211339
0.0156684
0.00220583
0.0154985
0.00230049
0.0153316
0.00239725
0.0151698
0.00249611
0.015016
0.00259721
0.0148733
0.00270098
0.0147456
0.00280807
0.0146365
0.00291951
0.0145494
0.00303659
0.0144868
0.00316085
0.0144488
0.00329395
0.0144329
0.00343737
0.0144323
0.00359209
0.0144352
0.00375808
0.0144243
0.00393379
0.0143773
0.00411558
0.0142677
0.00429729
0.014067
0.00447017
0.013748
0.00462312
0.0132879
0.0047436
0.0126728
0.00481903
0.011901
0.00483869
0.0109846
0.00479584
0.00995016
0.00468966
0.00883682
0.00452645
0.0076924
0.00431983
0.0065692
0.00408971
0.00551885
0.00386002
0.00458477
0.00365452
0.00379139
0.0034896
0.00313451
0.00336609
0.00258335
0.00326693
0.00209715
0.00316597
0.00164484
0.00304218
0.00121353
0.00288718
0.000804542
0.00270171
0.000423262
0.00248612
7.30995e-05
0.00223485
-0.00024534
0.00193721
-0.000531671
0.00158124
-0.000785067
0.00115767
-0.00100259
0.000659676
-0.00118143
8.21902e-05
-0.00131413
-0.000575915
-0.0013951
-0.00131321
-0.00141774
-0.00211737
-0.00137635
-0.00296382
-0.00126756
-0.00380935
-0.00109587
-0.00458727
-0.000877463
-0.00522595
-0.000660707
-0.00568245
-0.000512909
-0.00600407
-0.00584088
0.0199984
1.68832e-05
0.0199935
5.05811e-05
0.0199854
8.41118e-05
0.0199738
0.000117439
0.0199588
0.000150567
0.0199403
0.000183546
0.0199181
0.000216442
0.0198924
0.000249308
0.019863
0.000282195
0.0198299
0.000315158
0.0197932
0.000348256
0.0197528
0.000381547
0.0197086
0.000415086
0.0196608
0.00044893
0.0196091
0.000483134
0.0195537
0.000517757
0.0194945
0.000552858
0.0194315
0.000588501
0.0193646
0.000624748
0.0192939
0.000661668
0.0192192
0.000699334
0.0191407
0.00073782
0.0190582
0.000777209
0.0189717
0.000817587
0.0188812
0.000859045
0.0187867
0.000901682
0.0186882
0.000945603
0.0185857
0.000990919
0.0184791
0.00103775
0.0183685
0.00108621
0.0182539
0.00113645
0.0181353
0.00118859
0.0180128
0.00124277
0.0178864
0.00129914
0.0177562
0.00135783
0.0176224
0.001419
0.0174849
0.00148278
0.017344
0.00154929
0.0171997
0.00161863
0.0170523
0.00169091
0.0169018
0.00176619
0.0167484
0.00184449
0.0165923
0.00192581
0.0164335
0.00201012
0.0162721
0.0020973
0.0161082
0.00218724
0.0159419
0.00227973
0.0157732
0.00237456
0.0156022
0.00247148
0.0154292
0.00257021
0.0152548
0.0026705
0.0150799
0.00277214
0.0149059
0.00287499
0.0147349
0.00297906
0.0145699
0.00308455
0.0144145
0.00319192
0.0142734
0.00330196
0.0141515
0.00341584
0.0140538
0.00353514
0.0139841
0.00366174
0.0139445
0.00379773
0.0139332
0.00394507
0.0139437
0.00410507
0.0139632
0.00427778
0.0139722
0.00446119
0.0139447
0.0046506
0.0138501
0.00483816
0.0136562
0.00501298
0.013333
0.00516189
0.012858
0.00527087
0.0122205
0.00532707
0.011426
0.00532104
0.0104971
0.00524872
0.00947383
0.00511295
0.00840978
0.00492406
0.00736503
0.00469927
0.00639481
0.00445982
0.0055358
0.0042251
0.00479701
0.00400572
0.00416273
0.00380025
0.00360641
0.0035985
0.00310532
0.00338827
0.00264724
0.00315979
0.00222806
0.0029053
0.00184642
0.00261649
0.00150041
0.00228323
0.0011872
0.00189444
0.000904893
0.00143998
0.000653058
0.000911512
0.000432164
0.000303084
0.000244159
-0.00038791
9.11894e-05
-0.00116024
-2.34923e-05
-0.00200269
-9.83988e-05
-0.00288892
-0.000138118
-0.00376963
-0.000146782
-0.00457861
-0.000132168
-0.00524057
-0.000119384
-0.00569523
-0.000143676
-0.00597978
-0.00598456
0.0199984
1.85296e-05
0.0199934
5.55091e-05
0.0199852
9.23532e-05
0.0199736
0.000129054
0.0199585
0.00016562
0.01994
0.000202085
0.0199179
0.0002385
0.0198923
0.000274915
0.0198631
0.000311379
0.0198303
0.000347942
0.0197939
0.000384661
0.0197539
0.00042159
0.0197102
0.000458785
0.0196628
0.000496302
0.0196118
0.000534199
0.019557
0.000572534
0.0194985
0.000611368
0.0194362
0.000650762
0.0193702
0.000690783
0.0193003
0.0007315
0.0192267
0.000772983
0.0191492
0.000815309
0.0190679
0.000858557
0.0189826
0.000902813
0.0188935
0.000948166
0.0188005
0.00099471
0.0187035
0.00104255
0.0186027
0.00109178
0.0184979
0.00114252
0.0183892
0.00119488
0.0182767
0.00124898
0.0181603
0.00130495
0.0180402
0.00136291
0.0179164
0.00142298
0.0177889
0.0014853
0.0176579
0.00154999
0.0175235
0.00161715
0.0173859
0.0016869
0.0172452
0.00175934
0.0171016
0.00183453
0.0169553
0.00191253
0.0168064
0.00199338
0.0166551
0.00207707
0.0165016
0.00216358
0.0163461
0.00225285
0.0161885
0.00234479
0.016029
0.00243925
0.0158675
0.0025361
0.0157039
0.00263512
0.015538
0.00273611
0.0153696
0.00283882
0.0151988
0.002943
0.0150254
0.00304837
0.0148498
0.00315467
0.0146727
0.00326168
0.0144954
0.00336923
0.01432
0.00347728
0.0141499
0.00358601
0.0139891
0.00369588
0.0138431
0.00380776
0.0137178
0.00392301
0.0136194
0.00404353
0.0135527
0.00417171
0.0135204
0.00431013
0.0135204
0.00446118
0.0135447
0.00462631
0.0135777
0.00480517
0.013596
0.00499465
0.0135697
0.00518822
0.0134649
0.00537567
0.0132484
0.00554357
0.0128929
0.00567652
0.0123826
0.00575902
0.0117177
0.00577779
0.0109175
0.00572425
0.0100198
0.00559697
0.0090765
0.00540317
0.00814336
0.00515824
0.00726715
0.00488192
0.00647523
0.00459217
0.00577398
0.00429975
0.00515569
0.00400656
0.00460799
0.00370749
0.0041198
0.00339348
0.00368268
0.00305361
0.00328976
0.00267615
0.00293492
0.00224928
0.00261292
0.00176197
0.00231975
0.00120468
0.00205258
0.00057025
0.00180889
-0.000144219
0.00158579
-0.000937141
0.00137938
-0.00179628
0.0011845
-0.00269403
0.000996106
-0.00358124
0.000807275
-0.00438978
0.000612134
-0.00504543
0.000410053
-0.00549315
0.000175408
-0.00574514
-0.00580915
0.0199983
2.01853e-05
0.0199934
6.04661e-05
0.0199851
0.000100629
0.0199735
0.000140685
0.0199585
0.000180649
0.01994
0.000220552
0.0199181
0.000260435
0.0198926
0.000300344
0.0198637
0.000340325
0.0198312
0.000380429
0.0197951
0.000420706
0.0197555
0.000461212
0.0197123
0.000502002
0.0196655
0.000543131
0.019615
0.000584657
0.0195609
0.000626638
0.0195031
0.000669136
0.0194417
0.000712213
0.0193765
0.000755936
0.0193077
0.000800372
0.0192351
0.000845594
0.0191587
0.000891675
0.0190786
0.000938696
0.0189946
0.000986738
0.0189069
0.00103589
0.0188154
0.00108624
0.01872
0.00113788
0.0186209
0.00119092
0.018518
0.00124545
0.0184113
0.00130159
0.0183008
0.00135944
0.0181866
0.00141911
0.0180688
0.00148073
0.0179474
0.00154439
0.0178225
0.00161022
0.0176942
0.00167831
0.0175626
0.00174876
0.0174278
0.00182167
0.01729
0.00189711
0.0171494
0.00197513
0.0170062
0.00205579
0.0168604
0.00213911
0.0167124
0.00222508
0.0165623
0.00231367
0.0164103
0.00240485
0.0162566
0.00249853
0.0161012
0.00259462
0.0159443
0.002693
0.0157859
0.00279353
0.0156259
0.00289607
0.0154643
0.00300044
0.0153009
0.00310646
0.0151353
0.00321392
0.0149674
0.00332259
0.0147969
0.0034322
0.0146236
0.00354245
0.0144479
0.00365303
0.0142703
0.00376361
0.0140922
0.00387395
0.0139161
0.00398391
0.0137454
0.00409365
0.0135852
0.00420371
0.0134418
0.00431518
0.0133221
0.00442984
0.0132331
0.00455016
0.0131802
0.00467916
0.0131654
0.00482
0.0131848
0.00497527
0.013227
0.00514595
0.0132725
0.00533024
0.0132935
0.00552254
0.0132572
0.00571278
0.0131297
0.00588659
0.0128811
0.00602634
0.0124921
0.0061133
0.0119584
0.00613061
0.0112947
0.00606686
0.0105336
0.00591935
0.00972012
0.00569544
0.00890157
0.00541072
0.0081173
0.00508402
0.00739235
0.00473151
0.00673735
0.00436249
0.00615244
0.00397839
0.00563191
0.00357414
0.00516754
0.00314052
0.00475041
0.00266642
0.00437185
0.00214053
0.00402386
0.00155268
0.00369905
0.000895059
0.00339066
0.00016417
0.00308984
-0.000636317
0.00278761
-0.00149406
0.00247205
-0.00237847
0.00213216
-0.00324134
0.00175997
-0.00401759
0.00135376
-0.00463922
0.000918365
-0.00505775
0.000456411
-0.00528318
-0.00535274
0.0199983
2.18403e-05
0.0199934
6.5422e-05
0.0199851
0.000108894
0.0199735
0.000152283
0.0199586
0.00019561
0.0199402
0.000238906
0.0199184
0.000282206
0.0198932
0.000325555
0.0198646
0.000368998
0.0198324
0.000412582
0.0197967
0.00045636
0.0197576
0.000500382
0.0197149
0.000544704
0.0196686
0.000589382
0.0196188
0.000634472
0.0195654
0.000680034
0.0195084
0.000726128
0.0194478
0.000772818
0.0193836
0.00082017
0.0193157
0.00086825
0.0192442
0.00091713
0.019169
0.000966884
0.0190901
0.00101759
0.0190075
0.00106933
0.0189212
0.00112218
0.0188312
0.00117623
0.0187375
0.00123158
0.0186401
0.00128831
0.018539
0.00134653
0.0184343
0.00140633
0.0183259
0.00146781
0.0182139
0.00153108
0.0180984
0.00159624
0.0179794
0.00166338
0.017857
0.00173261
0.0177313
0.00180401
0.0176024
0.00187767
0.0174704
0.00195366
0.0173355
0.00203205
0.0171977
0.00211289
0.0170573
0.0021962
0.0169144
0.002282
0.0167692
0.00237028
0.0166219
0.00246101
0.0164726
0.00255415
0.0163215
0.00264962
0.0161688
0.00274733
0.0160146
0.0028472
0.0158591
0.00294909
0.0157023
0.00305288
0.0155442
0.00315846
0.015385
0.00326567
0.0152246
0.00337438
0.0150627
0.00348442
0.0148993
0.00359561
0.0147341
0.00370773
0.0145666
0.00382049
0.0143966
0.00393358
0.014224
0.00404658
0.0140488
0.00415906
0.0138719
0.00427057
0.0136949
0.00438075
0.0135206
0.00448947
0.0133535
0.00459697
0.0131995
0.00470406
0.0130663
0.00481236
0.012962
0.00492431
0.0128942
0.00504314
0.0128676
0.00517249
0.0128823
0.00531556
0.0129309
0.00547399
0.0129972
0.00564644
0.0130566
0.00582716
0.0130778
0.00600518
0.0130267
0.00616444
0.0128721
0.00628519
0.0125921
0.00634685
0.0121795
0.0063319
0.0116451
0.00622988
0.011016
0.00603985
0.0103298
0.00577017
0.0096262
0.00543513
0.00893861
0.00505008
0.00829004
0.00462696
0.00769233
0.00417186
0.00714806
0.00368479
0.00665345
0.00316103
0.00620085
0.00259313
0.00578048
0.00197305
0.00538134
0.0012942
0.0049915
0.00055401
0.00459627
-0.000241087
0.00418246
-0.00108025
0.00373229
-0.00192831
0.00323121
-0.00274026
0.00267149
-0.00345787
0.00205564
-0.00402337
0.00139582
-0.00439793
0.000705511
-0.00459288
-0.00464723
0.0199984
2.3488e-05
0.0199934
7.03563e-05
0.0199852
0.000117119
0.0199737
0.000163813
0.0199588
0.000210466
0.0199406
0.000257109
0.019919
0.000303778
0.0198941
0.000350515
0.0198657
0.000397364
0.0198339
0.000444373
0.0197987
0.00049159
0.01976
0.000539068
0.0197178
0.000586861
0.0196722
0.000635024
0.0196231
0.000683614
0.0195704
0.000732689
0.0195142
0.000782312
0.0194545
0.000832544
0.0193912
0.00088345
0.0193244
0.000935099
0.0192539
0.00098756
0.0191799
0.0010409
0.0191023
0.00109521
0.0190211
0.00115055
0.0189362
0.00120701
0.0188478
0.00126468
0.0187557
0.00132363
0.0186601
0.00138396
0.0185609
0.00144576
0.0184581
0.00150912
0.0183518
0.00157413
0.018242
0.00164088
0.0181287
0.00170948
0.0180121
0.00177999
0.0178922
0.00185253
0.017769
0.00192715
0.0176428
0.00200393
0.0175135
0.00208295
0.0173813
0.00216424
0.0172463
0.00224785
0.0171087
0.0023338
0.0169686
0.0024221
0.0168262
0.00251273
0.0166815
0.00260567
0.0165348
0.00270085
0.0163862
0.00279822
0.0162358
0.00289769
0.0160839
0.00299917
0.0159304
0.00310253
0.0157757
0.00320767
0.0156197
0.00331445
0.0154626
0.00342276
0.0153045
0.00353246
0.0151455
0.00364343
0.0149856
0.00375551
0.0148248
0.00386856
0.0146629
0.00398239
0.0144997
0.00409676
0.0143349
0.00421138
0.0141681
0.00432588
0.0139988
0.00443978
0.0138271
0.00455255
0.013653
0.00466358
0.0134776
0.00477231
0.0133033
0.00487836
0.013134
0.00498169
0.0129755
0.00508283
0.0128354
0.00518315
0.012723
0.00528492
0.0126473
0.00539131
0.0126153
0.00550591
0.0126299
0.00563186
0.0126865
0.00577055
0.0127717
0.00591998
0.0128628
0.00607338
0.0129295
0.00621846
0.0129384
0.00633798
0.0128584
0.00641182
0.0126679
0.00642045
0.012359
0.00634874
0.0119401
0.00618901
0.0114334
0.0059419
0.0108687
0.00561479
0.010277
0.00521863
0.00968462
0.00476425
0.00910964
0.00425977
0.0085613
0.00370937
0.0080408
0.00311363
0.00754287
0.00247098
0.00705715
0.00177991
0.0065693
0.00104187
0.00606349
0.000264719
0.00551816
-0.000534917
0.00491776
-0.0013279
0.00424679
-0.00206929
0.00350011
-0.0027112
0.00268485
-0.00320811
0.00181868
-0.00353176
0.000919199
-0.00369339
-0.00372803
0.0199984
2.51233e-05
0.0199935
7.52541e-05
0.0199853
0.000125281
0.0199739
0.000175247
0.0199592
0.000225187
0.0199411
0.000275133
0.0199198
0.000325122
0.0198951
0.000375194
0.0198671
0.000425394
0.0198357
0.000475769
0.0198009
0.000526368
0.0197627
0.000577241
0.0197211
0.000628443
0.0196761
0.000680027
0.0196277
0.000732051
0.0195758
0.000784574
0.0195205
0.000837656
0.0194617
0.00089136
0.0193994
0.000945749
0.0193336
0.00100089
0.0192643
0.00105685
0.0191915
0.00111371
0.0191151
0.00117153
0.0190353
0.0012304
0.0189519
0.00129038
0.0188651
0.00135156
0.0187747
0.00141403
0.0186808
0.00147786
0.0185834
0.00154314
0.0184825
0.00160996
0.0183783
0.0016784
0.0182706
0.00174854
0.0181596
0.00182048
0.0180453
0.00189428
0.0179278
0.00197003
0.0178072
0.0020478
0.0176835
0.00212764
0.0175568
0.00220962
0.0174273
0.00229377
0.017295
0.00238012
0.0171601
0.0024687
0.0170227
0.0025595
0.0168829
0.0026525
0.0167409
0.00274768
0.0165968
0.00284499
0.0164506
0.00294435
0.0163027
0.00304569
0.0161529
0.0031489
0.0160016
0.00325389
0.0158487
0.00336053
0.0156944
0.0034687
0.015539
0.00357826
0.0153823
0.00368908
0.0152247
0.00380102
0.0150663
0.00391394
0.0149072
0.00402769
0.0147474
0.00414212
0.0145871
0.00425706
0.0144262
0.00437228
0.0142646
0.00448753
0.0141019
0.00460249
0.0139377
0.00471672
0.0137716
0.0048297
0.0136031
0.00494077
0.0134323
0.00504919
0.0132598
0.00515419
0.0130875
0.00525512
0.012919
0.00535163
0.0127601
0.00544389
0.0126185
0.00553288
0.0125039
0.00562047
0.0124264
0.00570937
0.0123944
0.0058026
0.0124118
0.00590257
0.0124755
0.00600967
0.0125732
0.00612073
0.0126834
0.00622785
0.0127771
0.00631809
0.0128229
0.00637459
0.0127927
0.006379
0.0126669
0.00631477
0.0124387
0.00617007
0.012114
0.0059395
0.0117087
0.00562401
0.0112436
0.00522928
0.01074
0.00476336
0.0102149
0.00423454
0.00967852
0.00364998
0.00913385
0.00301565
0.00857636
0.00233739
0.00799526
0.00162298
0.00737502
0.000884959
0.00669675
0.000143352
0.00594472
-0.000575875
0.00511043
-0.001235
0.00419307
-0.00179384
0.00320373
-0.00221876
0.00216339
-0.00249142
0.00109095
-0.00262095
-0.00263708
0.0199984
2.67425e-05
0.0199935
8.01041e-05
0.0199855
0.00013336
0.0199741
0.000186562
0.0199596
0.000239747
0.0199418
0.00029295
0.0199207
0.000346209
0.0198963
0.000399565
0.0198686
0.000453062
0.0198377
0.000506746
0.0198034
0.000560667
0.0197657
0.000614874
0.0197247
0.000669422
0.0196804
0.000724365
0.0196327
0.000779758
0.0195816
0.000835662
0.0195271
0.000892134
0.0194693
0.000949239
0.019408
0.00100704
0.0193433
0.0010656
0.0192751
0.00112499
0.0192036
0.00118528
0.0191286
0.00124654
0.0190501
0.00130884
0.0189682
0.00137226
0.0188829
0.00143687
0.0187942
0.00150276
0.018702
0.00157001
0.0186065
0.00163868
0.0185076
0.00170887
0.0184053
0.00178064
0.0182998
0.00185409
0.018191
0.00192928
0.018079
0.00200629
0.0179638
0.00208518
0.0178456
0.00216602
0.0177244
0.00224886
0.0176002
0.00233375
0.0174733
0.00242072
0.0173436
0.00250979
0.0172113
0.00260098
0.0170766
0.00269429
0.0169394
0.00278969
0.0167999