/*--------------------------------*- C++ -*----------------------------------*\
| =========                 |                                                 |
| \\      /  F ield         | OpenFOAM: The Open Source CFD Toolbox           |
|  \\    /   O peration     | Version:  4.1                                   |
|   \\  /    A nd           | Web:      www.OpenFOAM.org                      |
|    \\/     M anipulation  |                                                 |
\*---------------------------------------------------------------------------*/
FoamFile
{
    version     2.0;
    format      ascii;
    class       volVectorField;
    location    "0.4";
    object      U;
}
// * * * * * * * * * * * * * * * * * * * * * * * * * * * * * * * * * * * * * //

dimensions      [0 1 -1 0 0 0 0];

internalField   nonuniform List<vector> 
43750
(
(9.9894 0.0211153 0)
(9.96677 0.0355633 0)
(9.93672 0.0421135 0)
(9.89842 0.0466999 0)
(9.85419 0.0508893 0)
(9.80567 0.0548595 0)
(9.7531 0.0585788 0)
(9.69637 0.062082 0)
(9.6355 0.0654262 0)
(9.57061 0.0686462 0)
(9.50178 0.0717597 0)
(9.42902 0.0747812 0)
(9.35232 0.0777266 0)
(9.27163 0.0806119 0)
(9.18689 0.0834515 0)
(9.09804 0.0862593 0)
(9.00499 0.089049 0)
(8.90762 0.0918344 0)
(8.80581 0.0946297 0)
(8.6994 0.0974494 0)
(8.58822 0.100308 0)
(8.47208 0.103222 0)
(8.35076 0.106207 0)
(8.22401 0.109278 0)
(8.09155 0.112455 0)
(7.95307 0.115753 0)
(7.80824 0.119193 0)
(7.65667 0.122794 0)
(7.49795 0.126574 0)
(7.33162 0.130552 0)
(7.15718 0.134745 0)
(6.97408 0.139168 0)
(6.78175 0.14383 0)
(6.57956 0.148731 0)
(6.36687 0.153863 0)
(6.14302 0.159195 0)
(5.90737 0.164678 0)
(5.6593 0.170226 0)
(5.39829 0.175718 0)
(5.12394 0.180982 0)
(4.83603 0.185792 0)
(4.53464 0.189861 0)
(4.22018 0.192839 0)
(3.8935 0.194326 0)
(3.55601 0.19389 0)
(3.20968 0.1911 0)
(2.85716 0.185575 0)
(2.50173 0.177052 0)
(2.1473 0.165452 0)
(1.79823 0.150956 0)
(1.45918 0.134058 0)
(1.13482 0.115585 0)
(0.829463 0.0966776 0)
(0.546684 0.0786946 0)
(0.28891 0.0630489 0)
(0.0568956 0.0510143 0)
(-0.150062 0.0432807 0)
(-0.334494 0.0397259 0)
(-0.49977 0.0396536 0)
(-0.648904 0.041455 0)
(-0.784359 0.0429991 0)
(-0.908043 0.0429678 0)
(-1.02145 0.0413764 0)
(-1.12598 0.0391476 0)
(-1.22308 0.0372727 0)
(-1.31438 0.0362826 0)
(-1.40136 0.0359243 0)
(-1.48472 0.0347503 0)
(-1.56333 0.0298457 0)
(-1.63202 0.0174144 0)
(-1.68141 -0.00514382 0)
(-1.70116 -0.035455 0)
(-1.68475 -0.0639026 0)
(-1.64619 -0.0800673 0)
(-1.61238 -0.077009 0)
(-1.60836 -0.0478241 0)
(-1.66006 0.00636799 0)
(-1.78685 0.0706526 0)
(-1.99159 0.130231 0)
(-2.26009 0.175316 0)
(-2.57025 0.202637 0)
(-2.89997 0.213085 0)
(-3.23012 0.209007 0)
(-3.54433 0.192517 0)
(-3.82846 0.165009 0)
(-4.07056 0.12798 0)
(-4.2595 0.0835221 0)
(-4.38398 0.0348181 0)
(-4.43232 -0.0144918 0)
(-4.39691 -0.0619836 0)
(-4.29858 -0.106448 0)
(-4.12288 -0.154667 0)
(-3.86494 -0.207832 0)
(-3.51561 -0.266401 0)
(-3.063 -0.329387 0)
(-2.49537 -0.39329 0)
(-1.81858 -0.443932 0)
(-1.08105 -0.437517 0)
(-0.383376 -0.292758 0)
(0.0675371 0.0151814 0)
(10.0046 0.00710566 0)
(10.0195 0.0174284 0)
(10.0355 0.0243595 0)
(10.0502 0.0301098 0)
(10.0638 0.0356747 0)
(10.0767 0.0410573 0)
(10.0887 0.0461741 0)
(10.0996 0.0511101 0)
(10.1092 0.05599 0)
(10.1172 0.0608874 0)
(10.1238 0.0658372 0)
(10.1286 0.0708666 0)
(10.1317 0.0760042 0)
(10.1329 0.0812781 0)
(10.132 0.0867133 0)
(10.129 0.0923339 0)
(10.1236 0.0981641 0)
(10.1159 0.104229 0)
(10.1055 0.110556 0)
(10.0925 0.117173 0)
(10.0765 0.124113 0)
(10.0575 0.131409 0)
(10.0351 0.139099 0)
(10.0093 0.147227 0)
(9.97967 0.155837 0)
(9.94602 0.164981 0)
(9.90802 0.174716 0)
(9.86531 0.185105 0)
(9.81749 0.196217 0)
(9.76409 0.208126 0)
(9.7046 0.220914 0)
(9.63841 0.234665 0)
(9.56482 0.249467 0)
(9.48305 0.26541 0)
(9.39219 0.282575 0)
(9.2912 0.301033 0)
(9.1789 0.320833 0)
(9.05396 0.341993 0)
(8.91486 0.364478 0)
(8.75996 0.388191 0)
(8.58744 0.412941 0)
(8.39536 0.438428 0)
(8.18174 0.464219 0)
(7.94455 0.489726 0)
(7.68189 0.514197 0)
(7.3921 0.536722 0)
(7.07389 0.556247 0)
(6.72654 0.571621 0)
(6.35008 0.58167 0)
(5.94547 0.585283 0)
(5.51474 0.581533 0)
(5.06111 0.569803 0)
(4.58908 0.54991 0)
(4.10441 0.522213 0)
(3.61408 0.48767 0)
(3.12601 0.44783 0)
(2.64853 0.40481 0)
(2.19013 0.361178 0)
(1.75828 0.319727 0)
(1.35823 0.282787 0)
(0.992437 0.251748 0)
(0.660618 0.226852 0)
(0.36042 0.207282 0)
(0.0884208 0.191675 0)
(-0.158626 0.17859 0)
(-0.383703 0.16694 0)
(-0.588994 0.156322 0)
(-0.775874 0.14551 0)
(-0.944693 0.131286 0)
(-1.09517 0.109591 0)
(-1.22833 0.0786361 0)
(-1.35013 0.0436058 0)
(-1.47542 0.0180803 0)
(-1.61594 0.0174027 0)
(-1.78317 0.0511925 0)
(-1.99085 0.120903 0)
(-2.24174 0.215983 0)
(-2.52358 0.314041 0)
(-2.81773 0.393872 0)
(-3.10428 0.443521 0)
(-3.3659 0.461419 0)
(-3.59099 0.452397 0)
(-3.7742 0.423101 0)
(-3.91528 0.379065 0)
(-4.01733 0.323653 0)
(-4.08489 0.258467 0)
(-4.12324 0.18399 0)
(-4.13786 0.100695 0)
(-4.13324 0.0099185 0)
(-4.10613 -0.0869409 0)
(-4.01983 -0.191089 0)
(-3.87354 -0.306147 0)
(-3.65876 -0.433509 0)
(-3.37165 -0.574295 0)
(-3.00832 -0.729285 0)
(-2.56284 -0.896915 0)
(-2.02785 -1.05725 0)
(-1.40705 -1.12726 0)
(-0.74692 -0.91618 0)
(-0.172995 -0.255217 0)
(10 0.00524363 0)
(9.99985 0.0141293 0)
(9.99867 0.0210889 0)
(9.99547 0.0271228 0)
(9.9901 0.0329531 0)
(9.98291 0.0387124 0)
(9.97413 0.0443838 0)
(9.96375 0.0500259 0)
(9.95178 0.0557248 0)
(9.93827 0.0615311 0)
(9.9233 0.0674651 0)
(9.90693 0.073542 0)
(9.88921 0.0797809 0)
(9.87018 0.0862027 0)
(9.8499 0.0928279 0)
(9.82842 0.0996781 0)
(9.80579 0.106777 0)
(9.78204 0.114151 0)
(9.75724 0.12183 0)
(9.73142 0.129849 0)
(9.70463 0.138245 0)
(9.67691 0.147063 0)
(9.64832 0.156352 0)
(9.61888 0.166169 0)
(9.58865 0.176578 0)
(9.55766 0.187651 0)
(9.52596 0.199473 0)
(9.49357 0.212137 0)
(9.46053 0.225749 0)
(9.42685 0.240429 0)
(9.39255 0.256312 0)
(9.35761 0.273546 0)
(9.322 0.292296 0)
(9.28565 0.312742 0)
(9.24845 0.335073 0)
(9.21021 0.359488 0)
(9.17067 0.386188 0)
(9.12944 0.41536 0)
(9.08596 0.447172 0)
(9.03948 0.481743 0)
(8.98899 0.519126 0)
(8.93315 0.559272 0)
(8.87025 0.601999 0)
(8.79813 0.646955 0)
(8.71414 0.693582 0)
(8.61512 0.741092 0)
(8.49746 0.788456 0)
(8.35708 0.834403 0)
(8.18966 0.877462 0)
(7.99079 0.916013 0)
(7.75622 0.948383 0)
(7.48223 0.97294 0)
(7.16597 0.988208 0)
(6.80584 0.992969 0)
(6.40188 0.986359 0)
(5.95617 0.967963 0)
(5.47314 0.937914 0)
(4.95971 0.896877 0)
(4.42523 0.846164 0)
(3.88099 0.787848 0)
(3.33952 0.724725 0)
(2.81325 0.660119 0)
(2.31308 0.597486 0)
(1.84701 0.539845 0)
(1.41944 0.489202 0)
(1.03138 0.446046 0)
(0.681165 0.409114 0)
(0.365338 0.375494 0)
(0.079422 0.341293 0)
(-0.181659 0.302971 0)
(-0.424 0.260798 0)
(-0.653529 0.223178 0)
(-0.876076 0.205018 0)
(-1.09675 0.22179 0)
(-1.32217 0.282221 0)
(-1.55981 0.378839 0)
(-1.81208 0.489064 0)
(-2.06978 0.58579 0)
(-2.31538 0.647852 0)
(-2.53431 0.667447 0)
(-2.72144 0.64905 0)
(-2.88029 0.603069 0)
(-3.01877 0.539729 0)
(-3.1449 0.466154 0)
(-3.2637 0.386057 0)
(-3.37528 0.300182 0)
(-3.47423 0.20694 0)
(-3.54985 0.102983 0)
(-3.58903 -0.0157534 0)
(-3.58323 -0.152745 0)
(-3.5248 -0.310281 0)
(-3.40692 -0.484317 0)
(-3.22588 -0.672583 0)
(-2.98122 -0.872772 0)
(-2.67777 -1.08435 0)
(-2.32397 -1.30976 0)
(-1.92126 -1.5443 0)
(-1.45179 -1.72573 0)
(-0.900134 -1.62136 0)
(-0.308549 -0.783284 0)
(9.99988 0.00525513 0)
(9.99898 0.0154493 0)
(9.9969 0.0249418 0)
(9.993 0.0338585 0)
(9.98698 0.0425038 0)
(9.97888 0.0510112 0)
(9.96881 0.0593872 0)
(9.95677 0.0676456 0)
(9.94272 0.0758307 0)
(9.92664 0.0839852 0)
(9.90855 0.0921375 0)
(9.88847 0.10031 0)
(9.8664 0.108525 0)
(9.84234 0.116808 0)
(9.8163 0.125183 0)
(9.78827 0.133675 0)
(9.75827 0.142308 0)
(9.7263 0.151109 0)
(9.69238 0.160109 0)
(9.65651 0.169339 0)
(9.61872 0.178835 0)
(9.57902 0.188634 0)
(9.53745 0.19878 0)
(9.49403 0.209322 0)
(9.44883 0.220316 0)
(9.4019 0.231822 0)
(9.3533 0.243911 0)
(9.30313 0.256664 0)
(9.25149 0.270172 0)
(9.19852 0.284538 0)
(9.14438 0.299881 0)
(9.08925 0.316334 0)
(9.03337 0.334049 0)
(8.977 0.353198 0)
(8.92047 0.373971 0)
(8.86413 0.396581 0)
(8.80841 0.421262 0)
(8.75377 0.448269 0)
(8.70071 0.47787 0)
(8.64974 0.510344 0)
(8.60139 0.545969 0)
(8.5561 0.585008 0)
(8.51419 0.627684 0)
(8.47576 0.674158 0)
(8.44059 0.724491 0)
(8.40797 0.778605 0)
(8.37657 0.836237 0)
(8.34431 0.896904 0)
(8.30819 0.959858 0)
(8.26427 1.02407 0)
(8.20762 1.08821 0)
(8.13243 1.15069 0)
(8.03217 1.20965 0)
(7.8999 1.26303 0)
(7.72866 1.3086 0)
(7.51193 1.34406 0)
(7.24425 1.36716 0)
(6.92176 1.37576 0)
(6.54293 1.3681 0)
(6.10918 1.34313 0)
(5.62546 1.30076 0)
(5.10053 1.24213 0)
(4.54669 1.16978 0)
(3.97902 1.08749 0)
(3.41386 0.999977 0)
(2.86674 0.912123 0)
(2.35022 0.828059 0)
(1.87214 0.750164 0)
(1.43479 0.678557 0)
(1.03526 0.611839 0)
(0.667545 0.549773 0)
(0.325531 0.496806 0)
(0.00554038 0.463997 0)
(-0.291081 0.466813 0)
(-0.562027 0.517435 0)
(-0.809098 0.610844 0)
(-1.03841 0.720623 0)
(-1.25541 0.811684 0)
(-1.45984 0.858825 0)
(-1.64924 0.857368 0)
(-1.82423 0.818869 0)
(-1.98925 0.759303 0)
(-2.14955 0.68989 0)
(-2.3081 0.614455 0)
(-2.46352 0.531054 0)
(-2.61007 0.434809 0)
(-2.73913 0.320544 0)
(-2.84134 0.184131 0)
(-2.9086 0.0223073 0)
(-2.93393 -0.166866 0)
(-2.91108 -0.379835 0)
(-2.8352 -0.614702 0)
(-2.7004 -0.866394 0)
(-2.50412 -1.12727 0)
(-2.25044 -1.38871 0)
(-1.95332 -1.646 0)
(-1.63163 -1.90341 0)
(-1.2875 -2.1502 0)
(-0.882175 -2.21183 0)
(-0.356867 -1.40307 0)
(9.99985 0.0058027 0)
(9.99865 0.0172934 0)
(9.99605 0.0283799 0)
(9.99169 0.0389793 0)
(9.98539 0.0492391 0)
(9.97716 0.0593094 0)
(9.96703 0.0692535 0)
(9.95501 0.0791051 0)
(9.94106 0.0889115 0)
(9.92517 0.0987249 0)
(9.90734 0.108587 0)
(9.88757 0.118529 0)
(9.86584 0.12858 0)
(9.84214 0.138764 0)
(9.81646 0.149109 0)
(9.78878 0.159638 0)
(9.75908 0.170377 0)
(9.72734 0.181351 0)
(9.69353 0.192586 0)
(9.65763 0.204111 0)
(9.61961 0.215957 0)
(9.57945 0.228156 0)
(9.53712 0.240747 0)
(9.49259 0.253768 0)
(9.44583 0.267265 0)
(9.39684 0.281287 0)
(9.34558 0.295889 0)
(9.29204 0.311131 0)
(9.23624 0.32708 0)
(9.17817 0.343811 0)
(9.11787 0.361405 0)
(9.05538 0.379954 0)
(8.99078 0.399557 0)
(8.92417 0.420321 0)
(8.85572 0.442364 0)
(8.78561 0.465814 0)
(8.71412 0.490807 0)
(8.64158 0.517488 0)
(8.56842 0.546011 0)
(8.49516 0.576542 0)
(8.42244 0.609253 0)
(8.351 0.644329 0)
(8.28171 0.681964 0)
(8.21554 0.722365 0)
(8.15351 0.76575 0)
(8.09668 0.812345 0)
(8.04603 0.862376 0)
(8.00235 0.916054 0)
(7.96606 0.973548 0)
(7.93706 1.03495 0)
(7.91447 1.10021 0)
(7.89642 1.16909 0)
(7.87989 1.24106 0)
(7.8605 1.31524 0)
(7.8325 1.39029 0)
(7.78877 1.46434 0)
(7.72104 1.53498 0)
(7.6202 1.5992 0)
(7.47685 1.65355 0)
(7.28199 1.69428 0)
(7.02798 1.71768 0)
(6.70961 1.72053 0)
(6.3252 1.70052 0)
(5.87762 1.6568 0)
(5.37484 1.59039 0)
(4.82981 1.50429 0)
(4.25944 1.40331 0)
(3.68249 1.2935 0)
(3.11663 1.18112 0)
(2.57546 1.0719 0)
(2.06682 0.970898 0)
(1.59366 0.883679 0)
(1.15713 0.818003 0)
(0.760645 0.784859 0)
(0.411124 0.794955 0)
(0.113787 0.849729 0)
(-0.134408 0.932108 0)
(-0.347201 1.00849 0)
(-0.541172 1.04837 0)
(-0.72799 1.04157 0)
(-0.912774 0.997964 0)
(-1.09634 0.93443 0)
(-1.27765 0.862153 0)
(-1.45464 0.782885 0)
(-1.62391 0.691477 0)
(-1.78069 0.580549 0)
(-1.9196 0.443997 0)
(-2.03558 0.278153 0)
(-2.12392 0.0813967 0)
(-2.17953 -0.146273 0)
(-2.19658 -0.404781 0)
(-2.16952 -0.691671 0)
(-2.09239 -1.00104 0)
(-1.96045 -1.32208 0)
(-1.77297 -1.6386 0)
(-1.53753 -1.93226 0)
(-1.27382 -2.1955 0)
(-1.01074 -2.44614 0)
(-0.743183 -2.62843 0)
(-0.326003 -2.00524 0)
(9.99983 0.00648934 0)
(9.99847 0.0193845 0)
(9.99556 0.032047 0)
(9.99091 0.0444153 0)
(9.98445 0.0565584 0)
(9.97616 0.068575 0)
(9.96602 0.0805199 0)
(9.95403 0.0924186 0)
(9.94015 0.1043 0)
(9.92438 0.1162 0)
(9.90671 0.128149 0)
(9.88713 0.140175 0)
(9.86563 0.152302 0)
(9.84221 0.164553 0)
(9.81685 0.176954 0)
(9.78955 0.189531 0)
(9.76029 0.202311 0)
(9.72905 0.215321 0)
(9.69582 0.228593 0)
(9.66057 0.242157 0)
(9.6233 0.256049 0)
(9.58396 0.270306 0)
(9.54255 0.284969 0)
(9.49903 0.300083 0)
(9.45337 0.315695 0)
(9.40556 0.331857 0)
(9.35555 0.348626 0)
(9.30333 0.366065 0)
(9.24886 0.384238 0)
(9.19213 0.403219 0)
(9.13312 0.423083 0)
(9.07181 0.443912 0)
(9.00819 0.465792 0)
(8.94228 0.488812 0)
(8.8741 0.513065 0)
(8.80369 0.538642 0)
(8.7311 0.565636 0)
(8.65645 0.594134 0)
(8.57987 0.624217 0)
(8.50153 0.655959 0)
(8.4217 0.689422 0)
(8.3407 0.724658 0)
(8.25893 0.761706 0)
(8.17691 0.8006 0)
(8.09531 0.841373 0)
(8.01491 0.884074 0)
(7.93668 0.928778 0)
(7.86172 0.975612 0)
(7.79129 1.02477 0)
(7.72677 1.07655 0)
(7.66953 1.13131 0)
(7.62084 1.18954 0)
(7.58169 1.25173 0)
(7.55248 1.31836 0)
(7.53279 1.38976 0)
(7.52097 1.46595 0)
(7.51383 1.54648 0)
(7.50634 1.63022 0)
(7.49146 1.7152 0)
(7.46011 1.79851 0)
(7.40154 1.87628 0)
(7.30388 1.94387 0)
(7.1552 1.9961 0)
(6.94474 2.02778 0)
(6.66449 2.03434 0)
(6.31067 2.01253 0)
(5.88507 1.96122 0)
(5.39565 1.88189 0)
(4.85629 1.77891 0)
(4.28515 1.6593 0)
(3.70223 1.53212 0)
(3.12675 1.40773 0)
(2.5756 1.29718 0)
(2.06362 1.21181 0)
(1.60475 1.16189 0)
(1.21097 1.15272 0)
(0.886991 1.17801 0)
(0.62421 1.21669 0)
(0.402002 1.24108 0)
(0.197948 1.23268 0)
(-0.00202059 1.19046 0)
(-0.201368 1.1251 0)
(-0.396842 1.04706 0)
(-0.583788 0.958773 0)
(-0.758771 0.855496 0)
(-0.919323 0.729794 0)
(-1.06352 0.575431 0)
(-1.18927 0.388348 0)
(-1.29362 0.166329 0)
(-1.37276 -0.091803 0)
(-1.42328 -0.38618 0)
(-1.43974 -0.71418 0)
(-1.41727 -1.07014 0)
(-1.35126 -1.44239 0)
(-1.23917 -1.81139 0)
(-1.08276 -2.14968 0)
(-0.891571 -2.43192 0)
(-0.695021 -2.66438 0)
(-0.540642 -2.87755 0)
(-0.242817 -2.50405 0)
(9.99982 0.00724517 0)
(9.99837 0.0216743 0)
(9.99531 0.0359644 0)
(9.99049 0.0500738 0)
(9.98391 0.0640201 0)
(9.97555 0.077853 0)
(9.96539 0.0916136 0)
(9.95339 0.105329 0)
(9.93954 0.119028 0)
(9.92384 0.132742 0)
(9.90626 0.146505 0)
(9.88681 0.160348 0)
(9.86548 0.174299 0)
(9.84225 0.188388 0)
(9.81713 0.202642 0)
(9.79009 0.217091 0)
(9.76113 0.231765 0)
(9.73023 0.246694 0)
(9.69738 0.261909 0)
(9.66257 0.277445 0)
(9.62579 0.293337 0)
(9.587 0.309623 0)
(9.54621 0.326344 0)
(9.50339 0.343544 0)
(9.45852 0.36127 0)
(9.41159 0.379573 0)
(9.36259 0.398509 0)
(9.3115 0.418137 0)
(9.25831 0.43852 0)
(9.20302 0.459728 0)
(9.1456 0.481832 0)
(9.08608 0.504909 0)
(9.02444 0.529039 0)
(8.9607 0.554304 0)
(8.89487 0.580788 0)
(8.82698 0.608572 0)
(8.75707 0.637736 0)
(8.68517 0.668353 0)
(8.61134 0.700487 0)
(8.53564 0.734189 0)
(8.45815 0.769491 0)
(8.37895 0.806407 0)
(8.29817 0.844928 0)
(8.21594 0.885018 0)
(8.13243 0.92662 0)
(8.04786 0.969658 0)
(7.96256 1.01405 0)
(7.87692 1.05972 0)
(7.7915 1.10662 0)
(7.70706 1.15477 0)
(7.62456 1.20428 0)
(7.54527 1.25538 0)
(7.47071 1.30846 0)
(7.40263 1.36409 0)
(7.34295 1.42296 0)
(7.29353 1.48592 0)
(7.2559 1.55381 0)
(7.23087 1.62733 0)
(7.21797 1.70687 0)
(7.21498 1.79219 0)
(7.21735 1.8822 0)
(7.21786 1.97468 0)
(7.20652 2.06612 0)
(7.17092 2.15169 0)
(7.09697 2.2255 0)
(6.97031 2.28101 0)
(6.77794 2.31184 0)
(6.51025 2.31273 0)
(6.16294 2.28061 0)
(5.73847 2.21557 0)
(5.2467 2.1215 0)
(4.70438 2.00607 0)
(4.13371 1.88012 0)
(3.56018 1.75652 0)
(3.01038 1.64849 0)
(2.50916 1.56699 0)
(2.07508 1.51647 0)
(1.71419 1.49065 0)
(1.41684 1.47329 0)
(1.16264 1.44615 0)
(0.931367 1.39844 0)
(0.711425 1.32943 0)
(0.500741 1.24356 0)
(0.302131 1.14315 0)
(0.118394 1.02554 0)
(-0.0492081 0.884706 0)
(-0.20081 0.714445 0)
(-0.336493 0.510128 0)
(-0.454967 0.268788 0)
(-0.55358 -0.0117058 0)
(-0.630849 -0.332417 0)
(-0.683145 -0.690754 0)
(-0.707425 -1.08131 0)
(-0.700622 -1.49202 0)
(-0.660775 -1.90166 0)
(-0.588735 -2.27845 0)
(-0.489 -2.58782 0)
(-0.372898 -2.81267 0)
(-0.312357 -2.99423 0)
(-0.133573 -2.8469 0)
(9.99982 0.00804023 0)
(9.99832 0.0240705 0)
(9.99517 0.0400042 0)
(9.99026 0.0558172 0)
(9.9836 0.0715138 0)
(9.9752 0.0871238 0)
(9.96504 0.102682 0)
(9.95307 0.118218 0)
(9.93929 0.133759 0)
(9.92369 0.149334 0)
(9.90625 0.164973 0)
(9.88696 0.180706 0)
(9.86582 0.19656 0)
(9.84282 0.212563 0)
(9.81795 0.228743 0)
(9.79119 0.245127 0)
(9.76254 0.261746 0)
(9.73198 0.278628 0)
(9.69951 0.295807 0)
(9.66511 0.313315 0)
(9.62877 0.331188 0)
(9.59047 0.349465 0)
(9.55021 0.368185 0)
(9.50796 0.387393 0)
(9.46373 0.407136 0)
(9.41749 0.427463 0)
(9.36924 0.448428 0)
(9.31898 0.470088 0)
(9.2667 0.492505 0)
(9.21241 0.515744 0)
(9.15611 0.539872 0)
(9.09781 0.564962 0)
(9.03753 0.591087 0)
(8.9753 0.618323 0)
(8.91115 0.646747 0)
(8.84513 0.676433 0)
(8.77729 0.707454 0)
(8.70768 0.739877 0)
(8.63636 0.77376 0)
(8.56343 0.809152 0)
(8.48893 0.846085 0)
(8.41295 0.884574 0)
(8.33556 0.924612 0)
(8.25682 0.966169 0)
(8.17676 1.00919 0)
(8.09544 1.05359 0)
(8.01287 1.09926 0)
(7.92909 1.14607 0)
(7.84413 1.1939 0)
(7.75809 1.2426 0)
(7.67117 1.29207 0)
(7.58369 1.34225 0)
(7.49624 1.39314 0)
(7.40968 1.44488 0)
(7.32526 1.49775 0)
(7.24464 1.55222 0)
(7.16992 1.60894 0)
(7.10353 1.66881 0)
(7.04802 1.73286 0)
(7.00575 1.8022 0)
(6.97835 1.87781 0)
(6.96608 1.96029 0)
(6.96707 2.0495 0)
(6.9766 2.14415 0)
(6.98662 2.24149 0)
(6.98563 2.33712 0)
(6.95921 2.42505 0)
(6.89117 2.49818 0)
(6.7654 2.54908 0)
(6.56815 2.5711 0)
(6.2906 2.55967 0)
(5.93101 2.5134 0)
(5.49625 2.43482 0)
(5.00217 2.3305 0)
(4.47269 2.21058 0)
(3.93738 2.08738 0)
(3.42688 1.97279 0)
(2.96609 1.87432 0)
(2.56715 1.79178 0)
(2.22717 1.71762 0)
(1.93329 1.64153 0)
(1.67143 1.55557 0)
(1.43251 1.4559 0)
(1.21313 1.34055 0)
(1.01265 1.20668 0)
(0.830582 1.04963 0)
(0.665686 0.863802 0)
(0.516543 0.644285 0)
(0.382526 0.387235 0)
(0.264466 0.0899515 0)
(0.163539 -0.249061 0)
(0.0802123 -0.628243 0)
(0.0152022 -1.0423 0)
(-0.0311813 -1.4786 0)
(-0.0585168 -1.91387 0)
(-0.0687681 -2.31458 0)
(-0.0671838 -2.64328 0)
(-0.0531077 -2.87103 0)
(-0.082219 -3.01407 0)
(-0.0219594 -3.00695 0)
(9.99981 0.0088552 0)
(9.9983 0.0265194 0)
(9.99511 0.0441086 0)
(9.99014 0.061614 0)
(9.98345 0.0790399 0)
(9.97505 0.0964066 0)
(9.96491 0.113741 0)
(9.953 0.131069 0)
(9.93931 0.148415 0)
(9.92382 0.165805 0)
(9.90652 0.183267 0)
(9.88741 0.20083 0)
(9.86648 0.21852 0)
(9.84372 0.236367 0)
(9.81911 0.254398 0)
(9.79265 0.272642 0)
(9.76433 0.291131 0)
(9.73414 0.309895 0)
(9.70207 0.328968 0)
(9.66811 0.348383 0)
(9.63224 0.368176 0)
(9.59446 0.388386 0)
(9.55475 0.409054 0)
(9.51311 0.430222 0)
(9.46953 0.451935 0)
(9.42399 0.474241 0)
(9.3765 0.497193 0)
(9.32705 0.520844 0)
(9.27565 0.54525 0)
(9.22229 0.570472 0)
(9.16699 0.596573 0)
(9.10976 0.623616 0)
(9.05063 0.651668 0)
(8.98962 0.680797 0)
(8.92678 0.711068 0)
(8.86216 0.742549 0)
(8.79581 0.775301 0)
(8.72779 0.809383 0)
(8.65819 0.844846 0)
(8.58709 0.881731 0)
(8.51458 0.920071 0)
(8.44075 0.959881 0)
(8.36569 1.00116 0)
(8.28949 1.0439 0)
(8.21223 1.08806 0)
(8.13394 1.13358 0)
(8.05467 1.18039 0)
(7.97441 1.22839 0)
(7.89313 1.27747 0)
(7.81077 1.32749 0)
(7.72723 1.37832 0)
(7.64245 1.42981 0)
(7.55638 1.48183 0)
(7.46908 1.53425 0)
(7.38077 1.587 0)
(7.29195 1.6401 0)
(7.20346 1.69367 0)
(7.11663 1.74798 0)
(7.03329 1.80356 0)
(6.95588 1.86117 0)
(6.88726 1.92186 0)
(6.83058 1.9869 0)
(6.78877 2.05768 0)
(6.76392 2.13541 0)
(6.75641 2.2208 0)
(6.76394 2.31351 0)
(6.78073 2.41174 0)
(6.79701 2.51184 0)
(6.79919 2.60821 0)
(6.77087 2.69366 0)
(6.69464 2.76012 0)
(6.55464 2.79973 0)
(6.33938 2.8061 0)
(6.04441 2.77557 0)
(5.67435 2.70825 0)
(5.24367 2.60861 0)
(4.77579 2.4854 0)
(4.29938 2.34994 0)
(3.84197 2.21296 0)
(3.42299 2.08096 0)
(3.0503 1.95461 0)
(2.72211 1.82997 0)
(2.43219 1.70111 0)
(2.17425 1.5621 0)
(1.94356 1.40737 0)
(1.73652 1.2314 0)
(1.55 1.02864 0)
(1.38109 0.793902 0)
(1.22746 0.522764 0)
(1.08767 0.211999 0)
(0.96132 -0.14015 0)
(0.846988 -0.532483 0)
(0.742502 -0.959563 0)
(0.645658 -1.40808 0)
(0.553328 -1.85338 0)
(0.461105 -2.26144 0)
(0.365273 -2.59422 0)
(0.263846 -2.82243 0)
(0.135473 -2.95484 0)
(0.075179 -2.97894 0)
(9.99981 0.00967927 0)
(9.99829 0.0289926 0)
(9.99508 0.0482429 0)
(9.9901 0.0674323 0)
(9.98341 0.0865678 0)
(9.97503 0.105665 0)
(9.96494 0.124746 0)
(9.95311 0.143833 0)
(9.93952 0.16295 0)
(9.92416 0.182124 0)
(9.90703 0.20138 0)
(9.88811 0.220745 0)
(9.86741 0.240249 0)
(9.8449 0.259918 0)
(9.82058 0.279781 0)
(9.79444 0.299868 0)
(9.76647 0.320209 0)
(9.73667 0.340836 0)
(9.70502 0.361781 0)
(9.67152 0.383079 0)
(9.63615 0.404766 0)
(9.59891 0.426878 0)
(9.55979 0.449456 0)
(9.51877 0.472542 0)
(9.47586 0.496179 0)
(9.43105 0.520415 0)
(9.38434 0.545297 0)
(9.33572 0.570877 0)
(9.28521 0.597208 0)
(9.23279 0.624347 0)
(9.1785 0.652349 0)
(9.12234 0.681274 0)
(9.06434 0.711181 0)
(9.00452 0.74213 0)
(8.94293 0.774179 0)
(8.87961 0.807385 0)
(8.81462 0.841801 0)
(8.74801 0.877476 0)
(8.67986 0.914451 0)
(8.61024 0.952761 0)
(8.53925 0.99243 0)
(8.46698 1.03347 0)
(8.39352 1.07589 0)
(8.31897 1.11967 0)
(8.24343 1.16478 0)
(8.16697 1.21119 0)
(8.08968 1.25884 0)
(8.0116 1.30767 0)
(7.93277 1.3576 0)
(7.85318 1.40855 0)
(7.7728 1.46041 0)
(7.69156 1.51306 0)
(7.60934 1.5664 0)
(7.526 1.62027 0)
(7.44142 1.67453 0)
(7.35548 1.72902 0)
(7.2682 1.78358 0)
(7.17974 1.83811 0)
(7.0906 1.89257 0)
(7.00167 1.94706 0)
(6.91443 2.00191 0)
(6.83102 2.05771 0)
(6.75425 2.11543 0)
(6.68753 2.1764 0)
(6.63452 2.24222 0)
(6.59854 2.31457 0)
(6.58168 2.39483 0)
(6.58374 2.48351 0)
(6.60113 2.5797 0)
(6.62614 2.68046 0)
(6.64674 2.78059 0)
(6.64738 2.87272 0)
(6.61068 2.9479 0)
(6.51993 2.99666 0)
(6.36207 3.0105 0)
(6.13059 2.98353 0)
(5.82789 2.91414 0)
(5.46621 2.80602 0)
(5.06614 2.66775 0)
(4.65231 2.51042 0)
(4.24752 2.34412 0)
(3.86816 2.17499 0)
(3.52268 2.00421 0)
(3.2131 1.82887 0)
(2.93751 1.64365 0)
(2.69217 1.44231 0)
(2.47269 1.21852 0)
(2.27461 0.966435 0)
(2.09377 0.681009 0)
(1.92647 0.3585 0)
(1.76972 -0.00297011 0)
(1.6203 -0.401962 0)
(1.47316 -0.832289 0)
(1.32272 -1.2798 0)
(1.16266 -1.71992 0)
(0.986649 -2.11895 0)
(0.791594 -2.4408 0)
(0.576832 -2.65906 0)
(0.33696 -2.77842 0)
(0.154823 -2.81111 0)
(9.99981 0.010506 0)
(9.99829 0.0314722 0)
(9.99508 0.0523817 0)
(9.99011 0.0732446 0)
(9.98344 0.0940708 0)
(9.97511 0.114875 0)
(9.96509 0.135676 0)
(9.95335 0.156497 0)
(9.93988 0.177359 0)
(9.92467 0.198288 0)
(9.90772 0.219309 0)
(9.88902 0.240449 0)
(9.86856 0.261735 0)
(9.84632 0.283194 0)
(9.82231 0.304856 0)
(9.79651 0.32675 0)
(9.76891 0.348906 0)
(9.73951 0.371356 0)
(9.70831 0.394134 0)
(9.67528 0.417272 0)
(9.64043 0.440806 0)
(9.60375 0.464775 0)
(9.56522 0.489216 0)
(9.52485 0.514171 0)
(9.48263 0.539682 0)
(9.43856 0.565794 0)
(9.39264 0.592553 0)
(9.34487 0.620008 0)
(9.29525 0.648209 0)
(9.24379 0.677206 0)
(9.19051 0.707054 0)
(9.13542 0.737804 0)
(9.07854 0.76951 0)
(9.01991 0.802225 0)
(8.95956 0.836001 0)
(8.89752 0.870886 0)
(8.83386 0.906926 0)
(8.76862 0.944161 0)
(8.70187 0.982625 0)
(8.63368 1.02235 0)
(8.56412 1.06334 0)
(8.49327 1.10562 0)
(8.42123 1.14918 0)
(8.34807 1.19401 0)
(8.27389 1.24007 0)
(8.19878 1.28735 0)
(8.12281 1.33579 0)
(8.04606 1.38534 0)
(7.96861 1.43594 0)
(7.8905 1.48752 0)
(7.81179 1.54002 0)
(7.73249 1.59337 0)
(7.65258 1.64747 0)
(7.57203 1.70224 0)
(7.49075 1.75757 0)
(7.40862 1.81331 0)
(7.32548 1.86931 0)
(7.24116 1.92537 0)
(7.15552 1.98127 0)
(7.06853 2.03681 0)
(6.98037 2.09181 0)
(6.89161 2.14622 0)
(6.80332 2.20018 0)
(6.71731 2.25414 0)
(6.63619 2.30893 0)
(6.56339 2.36587 0)
(6.50298 2.42669 0)
(6.4591 2.49337 0)
(6.43514 2.56773 0)
(6.43262 2.65088 0)
(6.44992 2.74242 0)
(6.48129 2.83972 0)
(6.51641 2.93748 0)
(6.54084 3.02769 0)
(6.53759 3.10023 0)
(6.48957 3.14425 0)
(6.38272 3.15004 0)
(6.20916 3.11118 0)
(5.9697 3.02635 0)
(5.67432 2.89982 0)
(5.3403 2.74004 0)
(4.98804 2.55685 0)
(4.6366 2.35841 0)
(4.30035 2.14922 0)
(3.98786 1.92973 0)
(3.70239 1.69719 0)
(3.4433 1.4469 0)
(3.20749 1.17351 0)
(2.99049 0.87194 0)
(2.78712 0.538292 0)
(2.59212 0.170827 0)
(2.39893 -0.229042 0)
(2.20114 -0.653648 0)
(1.98961 -1.08799 0)
(1.75552 -1.50838 0)
(1.49185 -1.88362 0)
(1.19686 -2.18175 0)
(0.871281 -2.38054 0)
(0.520494 -2.48492 0)
(0.224288 -2.51164 0)
(9.99981 0.0113309 0)
(9.9983 0.0339456 0)
(9.99511 0.0565068 0)
(9.99016 0.0790302 0)
(9.98353 0.101529 0)
(9.97526 0.124018 0)
(9.96533 0.146516 0)
(9.9537 0.169044 0)
(9.94037 0.191623 0)
(9.92533 0.214278 0)
(9.90858 0.237034 0)
(9.8901 0.259917 0)
(9.8699 0.282953 0)
(9.84795 0.306171 0)
(9.82425 0.329598 0)
(9.79881 0.353265 0)
(9.7716 0.377203 0)
(9.74262 0.401442 0)
(9.71187 0.426015 0)
(9.67934 0.450956 0)
(9.64503 0.4763 0)
(9.60892 0.502084 0)
(9.57101 0.528347 0)
(9.5313 0.555127 0)
(9.48978 0.582466 0)
(9.44646 0.610407 0)
(9.40134 0.638993 0)
(9.35441 0.668271 0)
(9.30569 0.698287 0)
(9.25518 0.729088 0)
(9.20291 0.760724 0)
(9.14887 0.793243 0)
(9.09311 0.826692 0)
(9.03564 0.86112 0)
(8.9765 0.896571 0)
(8.91573 0.933088 0)
(8.85337 0.97071 0)
(8.78947 1.00947 0)
(8.72408 1.0494 0)
(8.65728 1.09052 0)
(8.58912 1.13284 0)
(8.51967 1.17636 0)
(8.44901 1.22109 0)
(8.37722 1.267 0)
(8.30436 1.31407 0)
(8.23051 1.36227 0)
(8.15575 1.41155 0)
(8.08015 1.46187 0)
(8.00377 1.51317 0)
(7.9267 1.56538 0)
(7.84899 1.61845 0)
(7.77071 1.67232 0)
(7.6919 1.72692 0)
(7.61262 1.78218 0)
(7.5329 1.83803 0)
(7.45273 1.89439 0)
(7.37207 1.95113 0)
(7.29084 2.00814 0)
(7.20889 2.06521 0)
(7.12604 2.12214 0)
(7.04208 2.17865 0)
(6.95683 2.23445 0)
(6.87029 2.28928 0)
(6.78273 2.34292 0)
(6.69494 2.39539 0)
(6.60843 2.44696 0)
(6.52562 2.49835 0)
(6.44991 2.55079 0)
(6.38562 2.60604 0)
(6.33749 2.66615 0)
(6.30989 2.73311 0)
(6.30562 2.80811 0)
(6.32453 2.89073 0)
(6.36228 2.97808 0)
(6.40976 3.06429 0)
(6.45331 3.1406 0)
(6.47636 3.19626 0)
(6.46196 3.22025 0)
(6.39615 3.20344 0)
(6.27108 3.1406 0)
(6.08698 3.03149 0)
(5.852 2.8804 0)
(5.58 2.69435 0)
(5.28708 2.48071 0)
(4.98813 2.24514 0)
(4.69448 1.99058 0)
(4.41295 1.71716 0)
(4.14598 1.42303 0)
(3.89238 1.1054 0)
(3.64822 0.761847 0)
(3.40748 0.391716 0)
(3.16248 -0.00273877 0)
(2.90425 -0.413028 0)
(2.62256 -0.823927 0)
(2.30787 -1.2131 0)
(1.95423 -1.55371 0)
(1.56205 -1.81957 0)
(1.13317 -1.99367 0)
(0.680873 -2.08101 0)
(0.283998 -2.09732 0)
(9.99982 0.0121511 0)
(9.99831 0.0364043 0)
(9.99514 0.060605 0)
(9.99024 0.0847738 0)
(9.98367 0.108926 0)
(9.97547 0.133079 0)
(9.96564 0.157249 0)
(9.95414 0.181457 0)
(9.94097 0.205726 0)
(9.92611 0.230079 0)
(9.90957 0.25454 0)
(9.89133 0.279135 0)
(9.8714 0.303891 0)
(9.84975 0.328835 0)
(9.82639 0.353997 0)
(9.80131 0.379404 0)
(9.77451 0.405089 0)
(9.74597 0.431081 0)
(9.71569 0.457414 0)
(9.68367 0.48412 0)
(9.6499 0.511235 0)
(9.61438 0.538795 0)
(9.5771 0.566837 0)
(9.53806 0.595398 0)
(9.49726 0.62452 0)
(9.4547 0.654243 0)
(9.41038 0.684608 0)
(9.3643 0.715659 0)
(9.31648 0.74744 0)
(9.26692 0.779996 0)
(9.21564 0.813369 0)
(9.16266 0.847606 0)
(9.10798 0.882749 0)
(9.05166 0.918841 0)
(8.9937 0.955922 0)
(8.93415 0.994028 0)
(8.87305 1.03319 0)
(8.81045 1.07345 0)
(8.74639 1.11482 0)
(8.68093 1.15731 0)
(8.61412 1.20095 0)
(8.54603 1.24573 0)
(8.47672 1.29163 0)
(8.40626 1.33866 0)
(8.3347 1.38678 0)
(8.26212 1.43595 0)
(8.18858 1.48614 0)
(8.11413 1.5373 0)
(8.03883 1.58938 0)
(7.96276 1.6423 0)
(7.88597 1.69602 0)
(7.80852 1.75046 0)
(7.73047 1.80557 0)
(7.6519 1.86127 0)
(7.57288 1.9175 0)
(7.49348 1.97419 0)
(7.41375 2.03127 0)
(7.33374 2.08862 0)
(7.25345 2.14615 0)
(7.17284 2.2037 0)
(7.0918 2.26108 0)
(7.01014 2.31802 0)
(6.92763 2.37422 0)
(6.84402 2.42931 0)
(6.75917 2.48294 0)
(6.6732 2.53478 0)
(6.58668 2.58466 0)
(6.50092 2.63272 0)
(6.41821 2.67949 0)
(6.34196 2.72605 0)
(6.27665 2.77398 0)
(6.2274 2.82517 0)
(6.19914 2.88137 0)
(6.19534 2.94343 0)
(6.21654 3.01043 0)
(6.25903 3.07892 0)
(6.31422 3.14251 0)
(6.36906 3.19226 0)
(6.40781 3.21789 0)
(6.41474 3.20954 0)
(6.37733 3.15975 0)
(6.28874 3.06476 0)
(6.1489 2.9248 0)
(5.96377 2.74334 0)
(5.74326 2.52547 0)
(5.49852 2.2764 0)
(5.23949 2.00022 0)
(4.97326 1.69953 0)
(4.7032 1.37574 0)
(4.42892 1.02995 0)
(4.14656 0.664298 0)
(3.84982 0.283553 0)
(3.52914 -0.103756 0)
(3.17553 -0.482796 0)
(2.78162 -0.833279 0)
(2.34362 -1.13348 0)
(1.86476 -1.36357 0)
(1.34757 -1.5117 0)
(0.811162 -1.58236 0)
(0.332396 -1.58878 0)
(9.99982 0.0129644 0)
(9.99832 0.0388417 0)
(9.99519 0.0646666 0)
(9.99034 0.090463 0)
(9.98383 0.116249 0)
(9.97573 0.142042 0)
(9.96601 0.16786 0)
(9.95465 0.193723 0)
(9.94165 0.219654 0)
(9.92699 0.245675 0)
(9.91067 0.271812 0)
(9.89269 0.29809 0)
(9.87304 0.324534 0)
(9.85171 0.351174 0)
(9.8287 0.378036 0)
(9.804 0.405151 0)
(9.77761 0.432548 0)
(9.74953 0.460258 0)
(9.71974 0.488314 0)
(9.68824 0.516748 0)
(9.65503 0.545596 0)
(9.6201 0.574891 0)
(9.58346 0.604671 0)
(9.5451 0.634972 0)
(9.50502 0.665833 0)
(9.46322 0.697293 0)
(9.41971 0.729392 0)
(9.37449 0.762171 0)
(9.32757 0.79567 0)
(9.27895 0.829932 0)
(9.22866 0.864997 0)
(9.17671 0.900906 0)
(9.12312 0.937698 0)
(9.06791 0.975411 0)
(9.01111 1.01408 0)
(8.95276 1.05374 0)
(8.89289 1.09442 0)
(8.83154 1.13614 0)
(8.76876 1.17893 0)
(8.70459 1.22279 0)
(8.63909 1.26773 0)
(8.57231 1.31376 0)
(8.5043 1.36086 0)
(8.43512 1.40902 0)
(8.36483 1.45821 0)
(8.29349 1.5084 0)
(8.22114 1.55955 0)
(8.14784 1.61161 0)
(8.07364 1.66452 0)
(7.99859 1.71824 0)
(7.92275 1.77269 0)
(7.84617 1.82781 0)
(7.7689 1.88353 0)
(7.691 1.93977 0)
(7.61254 1.99646 0)
(7.5336 2.05353 0)
(7.45426 2.11089 0)
(7.37461 2.16847 0)
(7.29473 2.22616 0)
(7.21469 2.28386 0)
(7.13455 2.34143 0)
(7.05429 2.39871 0)
(6.97384 2.45547 0)
(6.89303 2.51143 0)
(6.81163 2.56621 0)
(6.72937 2.61938 0)
(6.64603 2.67046 0)
(6.56162 2.71898 0)
(6.47661 2.76459 0)
(6.39218 2.8072 0)
(6.31053 2.84711 0)
(6.23504 2.88508 0)
(6.1702 2.92238 0)
(6.12119 2.96051 0)
(6.09295 3.0007 0)
(6.08891 3.04325 0)
(6.10952 3.08663 0)
(6.15102 3.12694 0)
(6.20509 3.15774 0)
(6.25952 3.1707 0)
(6.3001 3.15681 0)
(6.31315 3.10803 0)
(6.28802 3.01864 0)
(6.21868 2.88606 0)
(6.10408 2.71073 0)
(5.94721 2.49545 0)
(5.7534 2.24437 0)
(5.52835 1.96207 0)
(5.27642 1.65317 0)
(4.99952 1.32246 0)
(4.69662 0.975553 0)
(4.36398 0.620018 0)
(3.9962 0.26593 0)
(3.58659 -0.0731538 0)
(3.13009 -0.380732 0)
(2.62677 -0.638553 0)