/*--------------------------------*- C++ -*----------------------------------*\
| =========                 |                                                 |
| \\      /  F ield         | OpenFOAM: The Open Source CFD Toolbox           |
|  \\    /   O peration     | Version:  4.1                                   |
|   \\  /    A nd           | Web:      www.OpenFOAM.org                      |
|    \\/     M anipulation  |                                                 |
\*---------------------------------------------------------------------------*/
FoamFile
{
    version     2.0;
    format      ascii;
    class       volScalarField;
    location    "0.2";
    object      k_0;
}
// * * * * * * * * * * * * * * * * * * * * * * * * * * * * * * * * * * * * * //

dimensions      [0 2 -2 0 0 0 0];

internalField   nonuniform List<scalar> 
43750
(
8.35816e-05
7.49625e-05
7.57678e-05
8.95865e-05
9.371e-05
8.82802e-05
8.55524e-05
9.49734e-05
0.000169073
0.000465484
0.000684171
0.000703929
0.000607042
0.0003307
0.00019261
0.000168734
0.000192404
0.000364072
0.00094544
0.00150767
0.00177229
0.00182665
0.0018074
0.00168802
0.00131329
0.000859203
0.000496079
0.000267572
0.000162552
0.000130681
0.000133039
0.000158851
0.000163449
0.000140712
0.000117713
0.000120533
0.000175236
0.000528974
0.00179172
0.00265178
0.00278109
0.00270901
0.00269817
0.0029061
0.00386092
0.00452366
0.00451181
0.00386715
0.00240003
0.00184986
0.00187519
0.00252175
0.00364256
0.0039414
0.00386162
0.00355827
0.00354669
0.00404081
0.00689668
0.012554
0.0153757
0.0158233
0.0150292
0.0107086
0.00531363
0.00247693
0.00127585
0.000930017
0.000907039
0.00102107
0.0014835
0.00306794
0.00659957
0.00902771
0.0100569
0.0102611
0.0102697
0.0100917
0.00998093
0.00997758
0.0100208
0.0100611
0.0100188
0.00978762
0.00930571
0.0085491
0.00755671
0.00641947
0.00525527
0.00417013
0.00323637
0.00249039
0.00192716
0.0014953
0.00115147
0.00086068
0.000590817
0.000349196
0.000149456
2.24186e-05
2.017e-05
2.03179e-05
2.03595e-05
2.03117e-05
2.02087e-05
2.0176e-05
2.01782e-05
2.02486e-05
2.07709e-05
2.36507e-05
2.81571e-05
2.90888e-05
2.80486e-05
2.43608e-05
2.26448e-05
2.26637e-05
2.42598e-05
3.27748e-05
4.80544e-05
5.45875e-05
5.6526e-05
5.91306e-05
6.0735e-05
6.0313e-05
5.61981e-05
4.50352e-05
3.63755e-05
3.14467e-05
2.89761e-05
2.80186e-05
2.78592e-05
2.79695e-05
2.81864e-05
2.82124e-05
2.8282e-05
2.8754e-05
3.1162e-05
4.14456e-05
7.71089e-05
0.000178424
0.000289179
0.000361824
0.000402683
0.000429856
0.00044531
0.000445652
0.000434493
0.000377037
0.000297572
0.000272853
0.000277991
0.000334767
0.000548101
0.000755118
0.000848493
0.000879321
0.000904742
0.000966953
0.00118261
0.00193753
0.00324971
0.00403002
0.00422071
0.00412701
0.00360334
0.00231524
0.0013546
0.000836706
0.000633716
0.000605503
0.000639951
0.000811233
0.00134784
0.00233461
0.0031957
0.00412583
0.00533566
0.00681959
0.00800953
0.0088164
0.00934743
0.00972632
0.0100007
0.0102384
0.0104308
0.0105729
0.0105811
0.0105226
0.0103475
0.00996238
0.00937327
0.00859959
0.00761504
0.00647223
0.00519741
0.00390621
0.00261764
0.00156294
0.000633896
0.000109078
2.00645e-05
2.0027e-05
1.98994e-05
1.96299e-05
1.9115e-05
1.77163e-05
1.61656e-05
1.58953e-05
1.60105e-05
1.58459e-05
1.47171e-05
1.4015e-05
1.4109e-05
1.4832e-05
1.58881e-05
1.65458e-05
1.69857e-05
1.7251e-05
1.73144e-05
1.71613e-05
1.61706e-05
1.46917e-05
1.40414e-05
1.38914e-05
1.38879e-05
1.39251e-05
1.40145e-05
1.41232e-05
1.42246e-05
1.42727e-05
1.42685e-05
1.41561e-05
1.36222e-05
1.30375e-05
1.28332e-05
1.28248e-05
1.2929e-05
1.34567e-05
1.54533e-05
2.06763e-05
2.56636e-05
2.95968e-05
3.31485e-05
3.6427e-05
3.86179e-05
3.92282e-05
3.87147e-05
3.49767e-05
3.02714e-05
2.92393e-05
3.02131e-05
3.74699e-05
6.50159e-05
9.4097e-05
0.000108831
0.000114635
0.000118445
0.00012619
0.000149757
0.000237619
0.00047485
0.000662444
0.000740446
0.000749421
0.00072493
0.000620356
0.000409173
0.000249339
0.000176163
0.000160006
0.000162303
0.000185146
0.00028025
0.000532156
0.000713145
0.000927258
0.00131377
0.00178541
0.00254182
0.00336829
0.00408067
0.00463862
0.00506368
0.00535811
0.00555132
0.00570585
0.00579244
0.00585501
0.00583949
0.00577654
0.00563839
0.00540063
0.00507836
0.00464581
0.00412518
0.00356599
0.00270209
0.00180983
0.000776596
0.000156832
2.07725e-05
2.12027e-05
2.12022e-05
2.11055e-05
2.10951e-05
2.12126e-05
2.13656e-05
2.14079e-05
2.1398e-05
2.13288e-05
2.12789e-05
2.1281e-05
2.13646e-05
2.17544e-05
2.21423e-05
2.21848e-05
2.20688e-05
2.16417e-05
2.11044e-05
2.07365e-05
2.05233e-05
2.04528e-05
2.04534e-05
2.0503e-05
2.07169e-05
2.14486e-05
2.25364e-05
2.32202e-05
2.33941e-05
2.32994e-05
2.26816e-05
2.17183e-05
2.13382e-05
2.13018e-05
2.12866e-05
2.11442e-05
2.10639e-05
2.11586e-05
2.16858e-05
2.22796e-05
2.2485e-05
2.25228e-05
2.25135e-05
2.24566e-05
2.23819e-05
2.23863e-05
2.24127e-05
2.24747e-05
2.27094e-05
2.34885e-05
2.53412e-05
2.83772e-05
3.3105e-05
3.83203e-05
4.24018e-05
4.48706e-05
4.68751e-05
5.04577e-05
5.85221e-05
7.96275e-05
0.000117378
0.000157001
0.000190183
0.000208704
0.000212012
0.000205982
0.000174969
0.000130948
0.000107353
0.000100024
0.000100267
0.00010838
0.000148655
0.000222072
0.000267637
0.000317288
0.000414666
0.000642733
0.00103763
0.00144965
0.00181363
0.00210486
0.00232683
0.00249098
0.00261669
0.00272703
0.00281407
0.00290982
0.00298783
0.00304479
0.00311953
0.00313336
0.00311564
0.00305636
0.00292245
0.00264896
0.00226754
0.00163414
0.000744319
0.000160154
2.05355e-05
2.08564e-05
2.08792e-05
2.09705e-05
2.14279e-05
2.18182e-05
2.18855e-05
2.18126e-05
2.15252e-05
2.13984e-05
2.14199e-05
2.16343e-05
2.19522e-05
2.21124e-05
2.2181e-05
2.22221e-05
2.23258e-05
2.26174e-05
2.28322e-05
2.28647e-05
2.27456e-05
2.22275e-05
2.18437e-05
2.17858e-05
2.19221e-05
2.2738e-05
2.43476e-05
2.53111e-05
2.56137e-05
2.55486e-05
2.48348e-05
2.32013e-05
2.23704e-05
2.21791e-05
2.21827e-05
2.21784e-05
2.21325e-05
2.19811e-05
2.17635e-05
2.15562e-05
2.13378e-05
2.11421e-05
2.10541e-05
2.10644e-05
2.1169e-05
2.12253e-05
2.12125e-05
2.12001e-05
2.12398e-05
2.14841e-05
2.18655e-05
2.22954e-05
2.30309e-05
2.39535e-05
2.47325e-05
2.53508e-05
2.63694e-05
2.82606e-05
3.20483e-05
3.77433e-05
4.37285e-05
4.96725e-05
5.66526e-05
6.5337e-05
7.34981e-05
7.64132e-05
7.58728e-05
7.31866e-05
7.15161e-05
7.15212e-05
7.28386e-05
7.87213e-05
9.65634e-05
0.000113236
0.000124995
0.000143473
0.000184995
0.000301241
0.000529337
0.000754886
0.000949664
0.00110952
0.00123885
0.00134313
0.00143626
0.00152352
0.00160129
0.00168518
0.00176603
0.00182868
0.00190274
0.00196626
0.00197398
0.00196099
0.00191373
0.00178889
0.00155
0.00114433
0.00058303
0.000139218
2.07642e-05
2.09404e-05
2.10856e-05
2.11632e-05
2.11904e-05
2.128e-05
2.14817e-05
2.15739e-05
2.15968e-05
2.16222e-05
2.17018e-05
2.17744e-05
2.17277e-05
2.1449e-05
2.128e-05
2.12727e-05
2.13875e-05
2.18897e-05
2.22931e-05
2.24175e-05
2.25097e-05
2.25616e-05
2.2537e-05
2.25769e-05
2.30038e-05
2.35711e-05
2.37623e-05
2.3763e-05
2.36172e-05
2.3074e-05
2.24387e-05
2.21015e-05
2.20485e-05
2.21649e-05
2.26191e-05
2.28374e-05
2.28345e-05
2.27445e-05
2.25211e-05
2.23192e-05
2.2007e-05
2.15898e-05
2.12862e-05
2.12114e-05
2.12479e-05
2.13159e-05
2.13103e-05
2.12593e-05
2.12372e-05
2.12433e-05
2.12747e-05
2.13653e-05
2.16408e-05
2.23533e-05
2.2976e-05
2.3317e-05
2.36278e-05
2.42814e-05
2.61108e-05
2.86858e-05
3.04781e-05
3.1535e-05
3.23451e-05
3.35677e-05
3.63168e-05
3.95172e-05
4.20381e-05
4.3676e-05
4.46329e-05
4.54605e-05
4.70588e-05
5.06474e-05
5.47798e-05
5.76645e-05
6.09793e-05
6.80066e-05
8.72508e-05
0.000148832
0.000262459
0.000368051
0.000457644
0.000533745
0.000599299
0.000657376
0.000714864
0.000772401
0.000828128
0.000889595
0.000952985
0.00100951
0.0010725
0.00113673
0.00118101
0.00119117
0.00118391
0.00114544
0.00103428
0.000780138
0.000410318
0.00010091
2.05633e-05
2.09762e-05
2.11623e-05
2.12541e-05
2.12513e-05
2.12265e-05
2.11736e-05
2.1131e-05
2.11137e-05
2.11137e-05
2.11303e-05
2.11932e-05
2.12205e-05
2.12189e-05
2.12181e-05
2.12236e-05
2.12693e-05
2.15131e-05
2.2112e-05
2.24062e-05
2.24116e-05
2.21773e-05
2.18431e-05
2.1786e-05
2.18306e-05
2.1913e-05
2.18978e-05
2.17885e-05
2.16979e-05
2.16939e-05
2.17359e-05
2.19319e-05
2.26592e-05
2.36035e-05
2.40571e-05
2.41701e-05
2.42455e-05
2.44926e-05
2.51554e-05
2.54384e-05
2.53676e-05
2.47019e-05
2.31856e-05
2.23511e-05
2.2004e-05
2.17921e-05
2.15832e-05
2.14193e-05
2.13377e-05
2.1323e-05
2.1333e-05
2.13923e-05
2.16213e-05
2.23193e-05
2.30173e-05
2.33679e-05
2.34786e-05
2.35613e-05
2.38343e-05
2.49025e-05
2.63552e-05
2.70509e-05
2.72818e-05
2.74802e-05
2.79415e-05
2.92221e-05
3.07683e-05
3.17463e-05
3.22918e-05
3.27655e-05
3.34845e-05
3.44175e-05
3.51811e-05
3.58554e-05
3.7116e-05
4.03502e-05
5.08382e-05
8.54213e-05
0.0001402
0.000186262
0.000223731
0.000258095
0.000290671
0.000322723
0.000357078
0.000393321
0.000430576
0.00047223
0.000516639
0.000559988
0.000607279
0.000658477
0.000703269
0.000729681
0.000735402
0.000726989
0.0006795
0.000535617
0.00028802
7.21206e-05
2.11278e-05
2.10549e-05
2.11391e-05
2.16134e-05
2.19537e-05
2.19627e-05
2.17974e-05
2.14457e-05
2.12225e-05
2.11214e-05
2.10967e-05
2.11089e-05
2.12097e-05
2.1415e-05
2.15112e-05
2.15439e-05
2.15875e-05
2.17333e-05
2.22146e-05
2.25759e-05
2.25962e-05
2.24055e-05
2.1823e-05
2.14409e-05
2.12787e-05
2.12242e-05
2.12173e-05
2.12362e-05
2.13759e-05
2.16399e-05
2.1859e-05
2.23311e-05
2.31819e-05
2.38806e-05
2.42385e-05
2.43544e-05
2.44294e-05
2.45975e-05
2.5142e-05
2.66844e-05
2.76785e-05
2.78002e-05
2.75323e-05
2.63194e-05
2.46387e-05
2.34203e-05
2.25506e-05
2.19692e-05
2.16304e-05
2.14865e-05
2.14596e-05
2.14761e-05
2.15649e-05
2.18898e-05
2.23649e-05
2.26252e-05
2.27002e-05
2.27856e-05
2.30857e-05
2.41366e-05
2.51497e-05
2.55539e-05
2.56422e-05
2.56698e-05
2.57415e-05
2.6045e-05
2.66906e-05
2.70576e-05
2.72096e-05
2.7356e-05
2.77089e-05
2.81763e-05
2.85103e-05
2.88966e-05
2.97011e-05
3.19393e-05
3.95922e-05
5.97507e-05
8.1638e-05
0.00010045
0.000114535
0.000126744
0.00014131
0.00015885
0.000179213
0.000201832
0.000226357
0.000254157
0.000284649
0.000316293
0.000350725
0.000388774
0.000425549
0.000452999
0.00046597
0.000465964
0.000446611
0.000366799
0.000201159
5.1015e-05
2.08412e-05
2.11261e-05
2.12313e-05
2.13227e-05
2.13187e-05
2.1231e-05
2.11913e-05
2.12178e-05
2.12884e-05
2.12963e-05
2.12421e-05
2.11689e-05
2.11559e-05
2.11654e-05
2.1225e-05
2.13308e-05
2.13836e-05
2.14413e-05
2.15745e-05
2.20081e-05
2.29507e-05
2.33504e-05
2.33264e-05
2.29646e-05
2.20901e-05
2.15806e-05
2.14331e-05
2.14536e-05
2.17055e-05
2.23982e-05
2.27889e-05
2.29157e-05
2.29627e-05
2.2969e-05
2.29667e-05
2.29774e-05
2.30393e-05
2.32588e-05
2.4083e-05
2.57872e-05
2.67395e-05
2.69352e-05
2.68106e-05
2.60414e-05
2.45249e-05
2.34738e-05
2.27977e-05
2.23566e-05
2.20937e-05
2.19356e-05
2.18617e-05
2.18485e-05
2.18577e-05
2.19111e-05
2.19494e-05
2.19846e-05
2.20459e-05
2.21925e-05
2.26969e-05
2.38943e-05
2.47306e-05
2.50724e-05
2.51346e-05
2.51155e-05
2.51167e-05
2.51788e-05
2.54052e-05
2.55204e-05
2.55374e-05
2.55609e-05
2.56912e-05
2.61354e-05
2.65387e-05
2.70028e-05
2.79747e-05
3.05941e-05
3.78518e-05
4.72104e-05
5.45263e-05
5.94522e-05
6.32765e-05
6.6465e-05
7.03028e-05
7.73876e-05
8.94735e-05
0.000103565
0.000119401
0.000137633
0.000158212
0.00018065
0.00020538
0.000233037
0.000261369
0.000285038
0.000299325
0.000302906
0.000295079
0.000250372
0.000140752
3.58684e-05
2.02517e-05
2.06102e-05
2.0815e-05
2.08926e-05
2.09915e-05
2.12552e-05
2.15197e-05
2.15894e-05
2.15469e-05
2.1329e-05
2.11797e-05
2.11528e-05
2.11599e-05
2.11849e-05
2.12451e-05
2.13423e-05
2.13699e-05
2.13295e-05
2.13148e-05
2.14325e-05
2.19131e-05
2.22166e-05
2.2249e-05
2.21742e-05
2.18191e-05
2.14685e-05
2.13824e-05
2.1416e-05
2.16647e-05
2.20957e-05
2.22665e-05
2.22767e-05
2.21791e-05
2.19628e-05
2.1903e-05
2.19374e-05
2.21554e-05
2.27228e-05
2.33197e-05
2.38076e-05
2.40795e-05
2.41403e-05
2.40861e-05
2.37145e-05
2.31227e-05
2.28379e-05
2.27221e-05
2.26087e-05
2.24547e-05
2.2318e-05
2.22531e-05
2.22418e-05
2.22382e-05
2.22004e-05
2.21457e-05
2.214e-05
2.21557e-05
2.22511e-05
2.27066e-05
2.37801e-05
2.44424e-05
2.46735e-05
2.46902e-05
2.45846e-05
2.44177e-05
2.44011e-05
2.4469e-05
2.46312e-05
2.47149e-05
2.48402e-05
2.51802e-05
2.56496e-05
2.60333e-05
2.66184e-05
2.79053e-05
3.1449e-05
3.67231e-05
4.04373e-05
4.19917e-05
4.19237e-05
3.9436e-05
3.73725e-05
3.75849e-05
3.90731e-05
4.37157e-05
5.28332e-05
6.29716e-05
7.4696e-05
8.82648e-05
0.000103718
0.000121169
0.000140985
0.000162202
0.000181291
0.00019424
0.00019918
0.000196199
0.000170856
9.86799e-05
2.51766e-05
2.07158e-05
2.0877e-05
2.10077e-05
2.10061e-05
2.103e-05
2.11731e-05
2.15621e-05
2.17724e-05
2.17598e-05
2.16096e-05
2.15286e-05
2.15264e-05
2.15733e-05
2.16363e-05
2.17267e-05
2.1999e-05
2.23526e-05
2.24074e-05
2.22822e-05
2.20636e-05
2.20362e-05
2.20806e-05
2.22145e-05
2.22388e-05
2.21664e-05
2.18085e-05
2.14901e-05
2.14296e-05
2.14428e-05
2.15113e-05
2.16766e-05
2.17828e-05
2.18149e-05
2.18411e-05
2.19677e-05
2.24706e-05
2.29242e-05
2.30224e-05
2.29454e-05
2.26722e-05
2.2531e-05
2.25064e-05
2.25169e-05
2.25508e-05
2.26583e-05
2.28294e-05
2.29833e-05
2.30591e-05
2.30604e-05
2.3006e-05
2.28592e-05
2.27829e-05
2.27467e-05
2.26773e-05
2.25753e-05
2.24995e-05
2.24726e-05
2.24966e-05
2.27126e-05
2.34437e-05
2.40496e-05
2.42841e-05
2.43184e-05
2.4271e-05
2.41412e-05
2.41128e-05
2.4157e-05
2.43276e-05
2.44452e-05
2.46173e-05
2.50112e-05
2.53883e-05
2.57374e-05
2.63729e-05
2.79974e-05
3.20894e-05
3.55968e-05
3.70953e-05
3.71342e-05
3.54894e-05
2.87151e-05
2.28768e-05
2.09964e-05
2.1056e-05
2.2286e-05
2.65056e-05
3.31383e-05
4.059e-05
4.93516e-05
5.97086e-05
7.17749e-05
8.57413e-05
0.000101291
0.000116171
0.000127074
0.000132092
0.000131237
0.000116848
6.94072e-05
1.76965e-05
2.1237e-05
2.15766e-05
2.13904e-05
2.11182e-05
2.11395e-05
2.13587e-05
2.15409e-05
2.1631e-05
2.16964e-05
2.184e-05
2.21539e-05
2.22256e-05
2.21477e-05
2.19536e-05
2.19244e-05
2.19749e-05
2.19946e-05
2.19291e-05
2.18137e-05
2.18095e-05
2.19375e-05
2.24796e-05
2.28794e-05
2.29189e-05
2.27554e-05
2.21545e-05
2.17057e-05
2.15237e-05
2.14889e-05
2.14961e-05
2.15283e-05
2.15609e-05
2.1592e-05
2.16571e-05
2.18594e-05
2.24125e-05
2.27752e-05
2.28141e-05
2.27036e-05
2.23462e-05
2.21093e-05
2.20502e-05
2.20565e-05
2.2106e-05
2.23343e-05
2.29157e-05
2.33732e-05
2.36021e-05
2.36806e-05
2.37695e-05
2.38891e-05
2.39351e-05
2.39319e-05
2.39058e-05
2.38123e-05
2.35128e-05
2.31567e-05
2.29939e-05
2.29946e-05
2.31392e-05
2.36037e-05
2.39787e-05
2.41288e-05
2.41519e-05
2.41437e-05
2.41464e-05
2.41867e-05
2.42923e-05
2.43581e-05
2.44916e-05
2.46927e-05
2.4881e-05
2.5188e-05
2.58568e-05
2.77545e-05
3.19885e-05
3.48529e-05
3.57416e-05
3.55291e-05
3.31054e-05
2.42785e-05
1.63006e-05
1.26742e-05
1.18231e-05
1.20373e-05
1.34686e-05
1.73031e-05
2.20647e-05
2.7642e-05
3.44337e-05
4.26231e-05
5.23109e-05
6.34857e-05
7.47948e-05
8.36536e-05
8.81984e-05
8.8258e-05
8.0179e-05
4.90568e-05
1.24888e-05
2.06963e-05
2.09164e-05
2.09929e-05
2.1063e-05
2.10873e-05
2.11068e-05
2.11655e-05
2.13474e-05
2.14764e-05
2.14905e-05
2.15149e-05
2.15944e-05
2.17915e-05
2.19477e-05
2.20088e-05
2.20162e-05
2.20136e-05
2.1989e-05
2.18815e-05
2.17968e-05
2.17979e-05
2.19036e-05
2.22815e-05
2.24749e-05
2.24483e-05
2.21972e-05
2.18527e-05
2.1705e-05
2.16392e-05
2.15179e-05
2.13711e-05
2.12808e-05
2.12611e-05
2.12756e-05
2.13913e-05
2.18023e-05
2.20751e-05
2.20968e-05
2.19884e-05
2.1859e-05
2.18606e-05
2.18955e-05
2.19036e-05
2.19306e-05
2.2108e-05
2.27531e-05
2.33371e-05
2.35896e-05
2.36876e-05
2.38442e-05
2.41524e-05
2.44154e-05
2.45316e-05
2.45453e-05
2.45164e-05
2.43503e-05
2.38276e-05
2.33711e-05
2.32095e-05
2.32226e-05
2.3348e-05
2.36339e-05
2.38441e-05
2.39835e-05
2.40585e-05
2.40955e-05
2.41497e-05
2.41783e-05
2.41875e-05
2.421e-05
2.42558e-05
2.43469e-05
2.45425e-05
2.50794e-05
2.70342e-05
3.14636e-05
3.43452e-05
3.5181e-05
3.49374e-05
3.23679e-05
2.28049e-05
1.35225e-05
8.73833e-06
7.00446e-06
6.81135e-06
7.20669e-06
8.90742e-06
1.19632e-05
1.54943e-05
1.98781e-05
2.53495e-05
3.19832e-05
3.98807e-05
4.82999e-05
5.53199e-05
5.9217e-05
5.96909e-05
5.51981e-05
3.48854e-05
8.86807e-06
2.03988e-05
2.07435e-05
2.12313e-05
2.14999e-05
2.15387e-05
2.1463e-05
2.14374e-05
2.14958e-05
2.19051e-05
2.29071e-05
2.31785e-05
2.30676e-05
2.25661e-05
2.223e-05
2.21368e-05
2.20991e-05
2.20761e-05
2.20237e-05
2.18453e-05
2.16624e-05
2.16067e-05
2.16291e-05
2.17918e-05
2.19341e-05
2.1937e-05
2.18661e-05
2.18516e-05
2.19086e-05
2.19119e-05
2.18061e-05
2.15043e-05
2.13223e-05
2.12898e-05
2.13318e-05
2.16031e-05
2.20668e-05
2.22219e-05
2.22028e-05
2.20345e-05
2.1877e-05
2.18343e-05
2.18248e-05
2.18344e-05
2.19197e-05
2.22534e-05
2.27502e-05
2.30577e-05
2.31971e-05
2.33341e-05
2.36303e-05
2.40475e-05
2.4394e-05
2.46047e-05
2.46751e-05
2.46716e-05
2.45795e-05
2.41663e-05
2.37521e-05
2.35868e-05
2.35385e-05
2.35584e-05
2.36735e-05
2.38335e-05
2.39249e-05
2.39603e-05
2.39686e-05
2.39539e-05
2.38638e-05
2.37657e-05
2.3733e-05
2.37397e-05
2.37807e-05
2.39123e-05
2.43286e-05
2.58689e-05
3.02483e-05
3.35758e-05
3.46036e-05
3.4418e-05
3.20452e-05
2.26204e-05
1.25163e-05
6.98283e-06
4.60219e-06
3.99236e-06
4.05048e-06
4.67076e-06
6.41627e-06
8.67758e-06
1.1477e-05
1.50834e-05
1.95796e-05
2.50883e-05
3.12514e-05
3.67079e-05
3.99516e-05
4.05969e-05
3.81305e-05
2.49656e-05
6.34888e-06
2.0753e-05
2.14455e-05
2.15364e-05
2.13569e-05
2.10497e-05
2.09396e-05
2.09361e-05
2.09799e-05
2.11735e-05
2.13563e-05
2.13831e-05
2.13958e-05
2.13998e-05
2.14062e-05
2.14575e-05
2.1672e-05
2.19037e-05
2.1964e-05
2.19517e-05
2.18855e-05
2.18579e-05
2.18903e-05
2.20665e-05
2.21584e-05
2.21385e-05
2.21129e-05
2.21834e-05
2.24934e-05
2.26195e-05
2.25771e-05
2.2278e-05
2.18192e-05
2.16874e-05
2.17096e-05
2.19259e-05
2.24732e-05
2.2739e-05
2.27737e-05
2.27179e-05
2.24627e-05
2.21544e-05
2.20232e-05
2.20202e-05
2.21195e-05
2.24219e-05
2.25981e-05
2.26606e-05
2.27003e-05
2.27736e-05
2.29581e-05
2.34965e-05
2.41124e-05
2.44775e-05
2.46249e-05
2.46412e-05
2.45934e-05
2.43203e-05
2.38894e-05
2.36637e-05
2.35973e-05
2.35979e-05
2.36444e-05
2.37395e-05
2.37758e-05
2.37786e-05
2.37465e-05
2.35797e-05
2.33782e-05
2.32646e-05
2.32217e-05
2.32239e-05
2.32618e-05
2.33865e-05
2.37375e-05
2.49269e-05
2.88465e-05
3.26013e-05
3.38978e-05
3.38012e-05
3.1719e-05
2.27836e-05
1.23367e-05
6.30166e-06
3.46871e-06
2.49664e-06
2.37794e-06
2.56867e-06
3.39037e-06
4.84275e-06
6.62167e-06
8.97172e-06
1.19916e-05
1.57958e-05
2.02447e-05
2.44219e-05
2.70733e-05
2.77593e-05
2.64342e-05
1.79835e-05
4.5803e-06
2.08803e-05
2.08974e-05
2.10617e-05
2.15203e-05
2.20678e-05
2.21434e-05
2.20646e-05
2.17452e-05
2.13401e-05
2.11793e-05
2.11847e-05
2.13557e-05
2.15966e-05
2.16617e-05
2.16944e-05
2.17869e-05
2.21785e-05
2.25915e-05
2.26567e-05
2.25597e-05
2.21234e-05
2.17974e-05
2.17388e-05
2.17746e-05
2.19955e-05
2.27443e-05
2.34639e-05
2.37423e-05
2.37381e-05
2.3498e-05
2.2906e-05
2.26399e-05
2.26021e-05
2.26212e-05
2.27442e-05
2.29248e-05
2.30058e-05
2.30108e-05
2.29512e-05
2.2636e-05
2.22645e-05
2.21463e-05
2.21594e-05
2.23194e-05
2.25311e-05
2.2617e-05
2.26585e-05
2.27075e-05
2.27599e-05
2.28146e-05
2.29245e-05
2.32031e-05
2.38484e-05
2.43158e-05
2.45027e-05
2.45157e-05
2.44524e-05
2.41929e-05
2.38553e-05
2.36526e-05
2.35278e-05
2.34553e-05
2.34251e-05
2.34119e-05
2.34029e-05
2.33805e-05
2.32693e-05
2.30074e-05
2.2857e-05
2.27961e-05
2.27852e-05
2.28056e-05
2.29012e-05
2.31957e-05
2.4167e-05
2.76238e-05
3.16542e-05
3.32067e-05
3.32021e-05
3.14615e-05
2.32014e-05
1.24887e-05
6.14632e-06
2.98689e-06
1.74243e-06
1.44681e-06
1.48276e-06
1.81256e-06
2.67883e-06
3.81566e-06
5.33251e-06
7.34269e-06
9.94914e-06
1.31226e-05
1.62793e-05
1.84186e-05
1.90806e-05
1.83932e-05
1.302e-05
3.34246e-06
2.09602e-05
2.17677e-05
2.19429e-05
2.20231e-05
2.20405e-05
2.17841e-05
2.12911e-05
2.10839e-05
2.10555e-05
2.10991e-05
2.13404e-05
2.17485e-05
2.19709e-05
2.2017e-05
2.19966e-05
2.20006e-05
2.21619e-05
2.24361e-05
2.24919e-05
2.24158e-05
2.20008e-05
2.15772e-05
2.14581e-05
2.14742e-05
2.16769e-05
2.23114e-05
2.27589e-05
2.28708e-05
2.28312e-05
2.25596e-05
2.23074e-05
2.22851e-05
2.2441e-05
2.31306e-05
2.36852e-05
2.38244e-05
2.38191e-05
2.37291e-05
2.33507e-05
2.27943e-05
2.24394e-05
2.23009e-05
2.22879e-05
2.23274e-05
2.2514e-05
2.28836e-05
2.31048e-05
2.31822e-05
2.31737e-05
2.30605e-05
2.30118e-05
2.30349e-05
2.3153e-05
2.35733e-05
2.40609e-05
2.42901e-05
2.4318e-05
2.42612e-05
2.40376e-05
2.36917e-05
2.34384e-05
2.32976e-05
2.3253e-05
2.32525e-05
2.32615e-05
2.32555e-05
2.31903e-05
2.28994e-05
2.25762e-05
2.24504e-05
2.24254e-05
2.24353e-05
2.24993e-05
2.27264e-05
2.35218e-05
2.65638e-05
3.08387e-05
3.26473e-05
3.27349e-05
3.13021e-05
2.3857e-05
1.28543e-05
6.23079e-06
2.83316e-06
1.38604e-06
9.36515e-07
8.95768e-07
1.01059e-06
1.45641e-06
2.19219e-06
3.16653e-06
4.49326e-06
6.26685e-06
8.5084e-06
1.08656e-05
1.25741e-05
1.31826e-05
1.28476e-05
9.48256e-06
2.4511e-06
2.13392e-05
2.1223e-05
2.12398e-05
2.12324e-05
2.12217e-05
2.11892e-05
2.12061e-05
2.12954e-05
2.13406e-05
2.13855e-05
2.14989e-05
2.18145e-05
2.25911e-05
2.31661e-05
2.32693e-05
2.31528e-05
2.28114e-05
2.26737e-05
2.25787e-05
2.23345e-05
2.18859e-05
2.16185e-05
2.15693e-05
2.16302e-05
2.20396e-05
2.25483e-05
2.26761e-05
2.26291e-05
2.2328e-05
2.19718e-05
2.1873e-05
2.19108e-05
2.22422e-05
2.31182e-05
2.36921e-05
2.39792e-05
2.41033e-05
2.41216e-05
2.40581e-05
2.37043e-05
2.30806e-05
2.26887e-05
2.24944e-05
2.24541e-05
2.25088e-05
2.2805e-05
2.32991e-05
2.35392e-05
2.35748e-05
2.35118e-05
2.32555e-05
2.31376e-05
2.31557e-05
2.33085e-05
2.37597e-05
2.40796e-05
2.41895e-05
2.41916e-05
2.41003e-05
2.37585e-05
2.34287e-05
2.32794e-05
2.32506e-05
2.3266e-05
2.3306e-05
2.33058e-05
2.32459e-05
2.29532e-05
2.25289e-05
2.22822e-05
2.22053e-05
2.22012e-05
2.22311e-05
2.23854e-05
2.30188e-05
2.56505e-05
3.0157e-05
3.22492e-05
3.24447e-05
3.12476e-05
2.44739e-05
1.33127e-05
6.40918e-06
2.8505e-06
1.2417e-06
6.7222e-07
5.58393e-07
5.90625e-07
7.90478e-07
1.25221e-06
1.8783e-06
2.74723e-06
3.94613e-06
5.51714e-06
7.25819e-06
8.60865e-06
9.15449e-06
9.00991e-06
6.91766e-06
1.83025e-06
2.09052e-05
2.11863e-05
2.12452e-05
2.14005e-05
2.14259e-05
2.13016e-05
2.11027e-05
2.10852e-05
2.11618e-05
2.13391e-05
2.15071e-05
2.16731e-05
2.18343e-05
2.2072e-05
2.22859e-05
2.2365e-05
2.23599e-05
2.22836e-05
2.19766e-05
2.15742e-05
2.13616e-05
2.12998e-05
2.13065e-05
2.14189e-05
2.19967e-05
2.27883e-05
2.30585e-05
2.30564e-05
2.28643e-05
2.24888e-05
2.23648e-05
2.23834e-05
2.26053e-05
2.30457e-05
2.33217e-05
2.35419e-05
2.37805e-05
2.39688e-05
2.40264e-05
2.40168e-05
2.39473e-05
2.36707e-05
2.30887e-05
2.28043e-05
2.27685e-05
2.2872e-05
2.32649e-05
2.35469e-05
2.3625e-05
2.36111e-05
2.34728e-05
2.33094e-05
2.32783e-05
2.33415e-05
2.36567e-05
2.40143e-05
2.4174e-05
2.42012e-05
2.41525e-05
2.3863e-05
2.34643e-05
2.32933e-05
2.32713e-05
2.33203e-05
2.35064e-05
2.35714e-05
2.35329e-05
2.3238e-05
2.26355e-05
2.22938e-05
2.21236e-05
2.20813e-05
2.20907e-05
2.21892e-05
2.26904e-05
2.49331e-05
2.96205e-05
3.20005e-05
3.23202e-05
3.13054e-05
2.51988e-05
1.38995e-05
6.69733e-06
2.92611e-06
1.21205e-06
5.45895e-07
3.66829e-07
3.6237e-07
4.42106e-07
7.01743e-07
1.11101e-06
1.67789e-06
2.4829e-06
3.57755e-06
4.85065e-06
5.90721e-06
6.38719e-06
6.3464e-06
5.05473e-06
1.38657e-06
2.05654e-05
2.12375e-05
2.14262e-05
2.13616e-05
2.12367e-05
2.11487e-05
2.10619e-05
2.10575e-05
2.11517e-05
2.14503e-05
2.16881e-05
2.17756e-05
2.17812e-05
2.17739e-05
2.17966e-05
2.19712e-05
2.22389e-05
2.22913e-05
2.2233e-05
2.19257e-05
2.15756e-05
2.14282e-05
2.14003e-05
2.14279e-05
2.16327e-05
2.23296e-05
2.28897e-05
2.30967e-05
2.31231e-05
2.31023e-05
2.29905e-05
2.28386e-05
2.27434e-05
2.26054e-05
2.25063e-05
2.25052e-05
2.25862e-05
2.29704e-05
2.35299e-05
2.37824e-05
2.38234e-05
2.3791e-05
2.36432e-05
2.32597e-05
2.30482e-05
2.3024e-05
2.30898e-05
2.33028e-05
2.34249e-05
2.34389e-05
2.3384e-05
2.32672e-05
2.32424e-05
2.32793e-05
2.34977e-05
2.38836e-05
2.41122e-05
2.41821e-05
2.41646e-05
2.3993e-05
2.35684e-05
2.33403e-05
2.32937e-05
2.33251e-05
2.35073e-05
2.36737e-05
2.36804e-05
2.35426e-05
2.29449e-05
2.23842e-05
2.2138e-05
2.20463e-05
2.20399e-05
2.21019e-05
2.25044e-05
2.4432e-05
2.91859e-05
3.18647e-05
3.23111e-05
3.14775e-05
2.61892e-05
1.4771e-05
7.16523e-06
3.09807e-06
1.2456e-06
4.99476e-07
2.64399e-07
2.29699e-07
2.58526e-07
3.88104e-07
6.54295e-07
1.02365e-06
1.56012e-06
2.31958e-06
3.24252e-06
4.05919e-06
4.47863e-06
4.48787e-06
3.7004e-06
1.06277e-06
2.10362e-05
2.10578e-05
2.10852e-05
2.12712e-05
2.14047e-05
2.15092e-05
2.15677e-05
2.16426e-05
2.17583e-05
2.1915e-05
2.19977e-05
2.19959e-05
2.19294e-05
2.18373e-05
2.17959e-05
2.1734e-05
2.16361e-05
2.15362e-05
2.14342e-05
2.13246e-05
2.12723e-05
2.1278e-05
2.13363e-05
2.13853e-05
2.14461e-05
2.15827e-05
2.19635e-05
2.24662e-05
2.27958e-05
2.29693e-05
2.30483e-05
2.30701e-05
2.30477e-05
2.2921e-05
2.26311e-05
2.23909e-05
2.23066e-05
2.2328e-05
2.2487e-05
2.30063e-05
2.34056e-05
2.35203e-05
2.35004e-05
2.33973e-05
2.31791e-05
2.29554e-05
2.28113e-05
2.27916e-05
2.28063e-05
2.28618e-05
2.29268e-05
2.29375e-05
2.29426e-05
2.2962e-05
2.30631e-05
2.34485e-05
2.39266e-05
2.42037e-05
2.42961e-05
2.42694e-05
2.40164e-05
2.35842e-05
2.34147e-05
2.3405e-05
2.34971e-05
2.36654e-05
2.36962e-05
2.36393e-05
2.3276e-05
2.25805e-05
2.21973e-05
2.20554e-05
2.20335e-05
2.20743e-05
2.23998e-05
2.40614e-05
2.88005e-05
3.18153e-05
3.24022e-05
3.17909e-05
2.73791e-05
1.60103e-05
7.81956e-06
3.39789e-06
1.3322e-06
5.06404e-07
2.16473e-07
1.52322e-07
1.58279e-07
2.17928e-07
3.79099e-07
6.23441e-07
9.78512e-07
1.50352e-06
2.16777e-06
2.79159e-06
3.15235e-06
3.19231e-06
2.71232e-06
8.20925e-07
2.11114e-05
2.16586e-05
2.18443e-05
2.18196e-05
2.15962e-05
2.13963e-05
2.13783e-05
2.14913e-05
2.18255e-05
2.19041e-05
2.18181e-05
2.15502e-05
2.1483e-05
2.15345e-05
2.1796e-05
2.19467e-05
2.19295e-05
2.17772e-05
2.15563e-05
2.14486e-05
2.14331e-05
2.14828e-05
2.16303e-05
2.17022e-05
2.1723e-05
2.1751e-05
2.17825e-05
2.18128e-05
2.1881e-05
2.20476e-05
2.24684e-05
2.29525e-05
2.327e-05
2.3342e-05
2.32722e-05
2.29187e-05
2.23755e-05
2.20915e-05
2.20398e-05
2.20671e-05
2.21764e-05
2.2453e-05
2.28258e-05
2.29658e-05
2.29608e-05
2.2897e-05
2.27319e-05
2.26411e-05
2.26332e-05
2.26719e-05
2.28036e-05
2.28866e-05
2.29056e-05
2.29141e-05
2.29582e-05
2.31878e-05
2.38208e-05
2.43028e-05
2.45019e-05
2.4516e-05
2.44083e-05
2.39716e-05
2.36143e-05
2.3514e-05
2.35291e-05
2.36421e-05
2.36967e-05
2.36797e-05
2.35034e-05
2.28673e-05
2.23216e-05
2.20932e-05
2.20444e-05
2.20737e-05
2.23368e-05
2.37478e-05
2.83758e-05
3.18678e-05
3.2739e-05
3.23151e-05
2.86062e-05
1.74853e-05
8.61334e-06
3.7787e-06
1.4795e-06
5.34289e-07
2.0015e-07
1.08623e-07
1.02006e-07
1.26281e-07
2.15592e-07
3.78515e-07
6.12316e-07
9.74242e-07
1.44982e-06
1.92152e-06
2.22662e-06
2.2842e-06
1.99204e-06
6.37178e-07
2.09147e-05
2.12776e-05
2.13955e-05
2.12717e-05
2.10246e-05
2.09956e-05
2.10949e-05
2.12932e-05
2.13335e-05
2.13075e-05
2.12886e-05
2.13133e-05
2.14346e-05
2.17373e-05
2.19328e-05
2.20543e-05
2.22999e-05
2.25703e-05
2.26953e-05
2.27023e-05
2.26718e-05
2.26418e-05
2.26292e-05
2.26028e-05
2.253e-05
2.22798e-05
2.19611e-05
2.18174e-05
2.17967e-05
2.18481e-05
2.21572e-05
2.28023e-05
2.31435e-05
2.32062e-05
2.31554e-05
2.28624e-05
2.23499e-05
2.19911e-05
2.17824e-05
2.17084e-05
2.17067e-05
2.17416e-05
2.1877e-05
2.22479e-05
2.25807e-05
2.26838e-05
2.26594e-05
2.25876e-05
2.25774e-05
2.26183e-05
2.27924e-05
2.29297e-05
2.29655e-05
2.29763e-05
2.30163e-05
2.32188e-05
2.38432e-05
2.43705e-05
2.4581e-05
2.46033e-05
2.45271e-05
2.41341e-05
2.36952e-05
2.35365e-05
2.353e-05
2.36045e-05
2.36803e-05
2.36803e-05
2.36151e-05
2.32525e-05
2.25519e-05
2.21865e-05
2.20841e-05
2.20976e-05
2.23028e-05
2.34695e-05
2.78522e-05
3.18897e-05
3.30812e-05
3.27997e-05
2.97171e-05
1.90885e-05
9.51506e-06
4.22855e-06
1.67463e-06
5.9507e-07
2.07055e-07
8.79451e-08
6.79404e-08
7.6617e-08
1.21743e-07
2.28321e-07
3.81768e-07
6.30913e-07
9.70923e-07
1.3242e-06
1.57765e-06
1.64401e-06
1.46691e-06
4.96004e-07
2.06132e-05
2.08376e-05
2.09636e-05
2.09806e-05
2.09348e-05
2.08952e-05
2.09364e-05
2.11724e-05
2.13465e-05
2.13565e-05
2.13215e-05
2.12959e-05
2.1301e-05
2.13438e-05
2.14194e-05
2.15094e-05
2.17285e-05
2.20931e-05
2.23682e-05
2.25305e-05
2.26022e-05
2.26171e-05
2.26116e-05
2.25817e-05
2.24903e-05
2.22668e-05
2.20786e-05
2.19942e-05
2.19881e-05
2.20412e-05
2.23515e-05
2.28111e-05
2.29735e-05
2.29761e-05
2.29338e-05
2.27874e-05
2.24622e-05
2.21442e-05
2.18927e-05
2.17597e-05
2.17306e-05
2.1745e-05
2.18311e-05
2.20612e-05
2.22333e-05
2.23157e-05
2.23391e-05
2.23303e-05
2.23343e-05
2.24015e-05
2.27223e-05
2.31557e-05
2.33491e-05
2.34014e-05
2.34404e-05
2.35517e-05
2.39491e-05
2.43848e-05
2.45696e-05
2.45893e-05
2.4521e-05
2.41541e-05
2.36998e-05
2.35182e-05
2.34919e-05
2.35279e-05
2.36101e-05
2.36255e-05
2.35904e-05
2.34168e-05
2.28773e-05
2.23789e-05
2.21857e-05
2.21758e-05
2.23295e-05
2.32534e-05
2.71908e-05
3.17326e-05
3.32633e-05
3.31313e-05
3.06402e-05
2.07477e-05
1.04914e-05
4.72577e-06
1.8967e-06
6.80839e-07
2.24901e-07
8.04537e-08
4.79439e-08
4.89806e-08
7.02062e-08
1.35314e-07
2.37047e-07
4.07867e-07
6.5106e-07
9.13464e-07
1.12082e-06
1.19e-06
1.08365e-06
3.8684e-07
2.06675e-05
2.1069e-05
2.10626e-05
2.09725e-05
2.09562e-05
2.09966e-05
2.12202e-05
2.14555e-05
2.15428e-05
2.15642e-05
2.15568e-05
2.14872e-05
2.1394e-05
2.13877e-05
2.14321e-05
2.15492e-05
2.15621e-05
2.15292e-05
2.15254e-05
2.1578e-05
2.1799e-05
2.19958e-05
2.20462e-05
2.2046e-05
2.20601e-05
2.21953e-05
2.25124e-05
2.2614e-05
2.25889e-05
2.25006e-05
2.25007e-05
2.25462e-05
2.26233e-05
2.27577e-05
2.28526e-05
2.28609e-05
2.28381e-05
2.27123e-05
2.2315e-05
2.20151e-05
2.1917e-05
2.19087e-05
2.19489e-05
2.20755e-05
2.21134e-05
2.20959e-05
2.20206e-05
2.19938e-05
2.20054e-05
2.211e-05
2.25957e-05
2.34283e-05
2.39111e-05
2.40724e-05
2.40839e-05
2.40895e-05
2.41377e-05
2.43065e-05
2.44305e-05
2.4454e-05
2.44054e-05
2.40918e-05
2.36326e-05
2.34206e-05
2.33591e-05
2.3361e-05