/*--------------------------------*- C++ -*----------------------------------*\
| =========                 |                                                 |
| \\      /  F ield         | OpenFOAM: The Open Source CFD Toolbox           |
|  \\    /   O peration     | Version:  4.1                                   |
|   \\  /    A nd           | Web:      www.OpenFOAM.org                      |
|    \\/     M anipulation  |                                                 |
\*---------------------------------------------------------------------------*/
FoamFile
{
    version     2.0;
    format      ascii;
    class       volScalarField;
    location    "0.2";
    object      nut;
}
// * * * * * * * * * * * * * * * * * * * * * * * * * * * * * * * * * * * * * //

dimensions      [0 2 -1 0 0 0 0];

internalField   nonuniform List<scalar> 
43750
(
2.93488e-07
0
0
0
0
0
0
0
0
7.95821e-08
1.81079e-07
2.04898e-07
1.47162e-07
5.2886e-08
2.44069e-09
0
0
4.12279e-08
1.58328e-07
3.00886e-07
3.8613e-07
3.97837e-07
3.70758e-07
3.31291e-07
2.68632e-07
1.81145e-07
8.58918e-08
1.44984e-08
0
0
2.19756e-09
2.91608e-08
3.72147e-08
1.52629e-08
0
0
0
3.90416e-08
2.15485e-07
3.16053e-07
2.2885e-07
8.70768e-08
6.23855e-08
2.45077e-07
6.37549e-07
9.88245e-07
9.9558e-07
6.66728e-07
2.60611e-07
8.10957e-08
7.10665e-08
1.72982e-07
3.12987e-07
3.35826e-07
2.38441e-07
1.05806e-07
3.55218e-08
7.15177e-08
2.71445e-07
7.11093e-07
1.15719e-06
1.36202e-06
1.14886e-06
4.7747e-07
0
0
0
0
0
0
0
0
0
0
0
0
2.08931e-06
6.03996e-06
1.07265e-05
1.64759e-05
2.36924e-05
3.27042e-05
4.35724e-05
5.59562e-05
6.90599e-05
8.14832e-05
9.14071e-05
9.68526e-05
9.60047e-05
8.75133e-05
7.08486e-05
4.67611e-05
1.74475e-05
0
0
0
0
0
0
0
1.79754e-07
0
0
0
6.55839e-10
1.46849e-09
0
0
0
1.86049e-08
3.86765e-08
4.34705e-08
3.23539e-08
1.39621e-08
0
0
0
1.06949e-08
3.49384e-08
5.78084e-08
6.99059e-08
7.17792e-08
6.71934e-08
6.17409e-08
5.56761e-08
4.26253e-08
2.45002e-08
5.60267e-09
0
0
3.44291e-09
1.59449e-08
1.92033e-08
9.45669e-09
0
0
0
1.80222e-08
5.62922e-08
9.68898e-08
8.30755e-08
2.94563e-08
1.32059e-08
8.31671e-08
2.13098e-07
3.17101e-07
3.22448e-07
2.21674e-07
1.03506e-07
4.47456e-08
4.60204e-08
8.94778e-08
1.60568e-07
1.94193e-07
1.56393e-07
8.60858e-08
3.52206e-08
3.5475e-08
1.00685e-07
2.58504e-07
4.95739e-07
6.24815e-07
5.34635e-07
2.58971e-07
0
0
0
0
0
4.64816e-08
1.01715e-07
0
0
0
2.91486e-07
2.40722e-06
5.40165e-06
8.9529e-06
1.24798e-05
1.57505e-05
1.87497e-05
2.14873e-05
2.39105e-05
2.60618e-05
2.794e-05
2.95245e-05
3.06885e-05
3.15441e-05
3.20397e-05
3.20083e-05
3.13774e-05
3.00749e-05
2.80348e-05
2.54166e-05
2.23127e-05
1.89535e-05
1.52484e-05
1.12733e-05
4.67245e-06
0
2.55538e-07
0
0
0
3.6743e-09
4.05574e-09
0
0
0
1.64564e-08
2.90717e-08
3.02289e-08
2.21777e-08
1.02754e-08
0
0
0
0
1.44974e-08
2.96755e-08
3.63059e-08
3.39464e-08
2.9276e-08
2.64607e-08
2.59854e-08
2.46433e-08
1.90901e-08
1.05901e-08
5.34287e-09
8.7151e-09
1.86939e-08
2.66424e-08
2.53219e-08
1.64125e-08
8.53143e-09
1.05344e-08
2.46363e-08
4.35607e-08
5.76025e-08
6.03716e-08
4.2941e-08
1.73203e-08
3.35595e-09
1.26243e-08
4.38079e-08
8.15816e-08
1.0401e-07
9.88068e-08
8.09359e-08
7.21593e-08
7.68184e-08
9.9931e-08
1.52049e-07
1.92409e-07
1.91478e-07
1.55897e-07
1.03395e-07
6.09831e-08
6.11282e-08
1.23331e-07
2.20407e-07
2.09291e-07
1.53761e-07
2.38684e-07
4.20207e-07
4.31537e-07
2.77055e-07
3.31032e-07
6.43696e-07
9.88463e-07
1.04012e-06
8.19265e-07
7.13224e-07
1.10287e-06
1.96295e-06
3.27956e-06
5.04741e-06
6.95249e-06
9.31906e-06
1.17162e-05
1.38251e-05
1.55749e-05
1.69885e-05
1.80896e-05
1.89698e-05
1.97406e-05
2.03591e-05
2.093e-05
2.13855e-05
2.17776e-05
2.20159e-05
2.19824e-05
2.16757e-05
2.1044e-05
2.00315e-05
1.84723e-05
1.51378e-05
1.03116e-05
2.35158e-06
0
9.91792e-06
2.57828e-07
0
0
1.70956e-06
0
0
1.00026e-06
2.11664e-06
8.80201e-07
0
0
0
1.9708e-06
4.08588e-06
2.91837e-06
0
0
0
1.07438e-06
1.5839e-06
1.60529e-06
1.76309e-06
2.24337e-06
2.88176e-06
3.40972e-06
3.81772e-06
4.41154e-06
5.54321e-06
6.62946e-06
6.3886e-06
4.86182e-06
3.66393e-06
3.96631e-06
5.35601e-06
6.70213e-06
7.32694e-06
6.91418e-06
5.63087e-06
4.15286e-06
3.22583e-06
3.04514e-06
3.31221e-06
3.73029e-06
4.08184e-06
4.1581e-06
3.91805e-06
3.63625e-06
3.70834e-06
4.25226e-06
5.09326e-06
5.95614e-06
6.6788e-06
7.11079e-06
7.28553e-06
7.31174e-06
7.29105e-06
7.51049e-06
8.39212e-06
1.02525e-05
1.21098e-05
1.22216e-05
1.14642e-05
1.1554e-05
1.26252e-05
1.34085e-05
1.21601e-05
9.48892e-06
7.52683e-06
6.39448e-06
5.64111e-06
5.32944e-06
6.00048e-06
7.22497e-06
7.7293e-06
8.13783e-06
9.03834e-06
1.10653e-05
1.3959e-05
1.64124e-05
1.8214e-05
1.94219e-05
2.02043e-05
2.07087e-05
2.10807e-05
2.14127e-05
2.16626e-05
2.19407e-05
2.21176e-05
2.21186e-05
2.19852e-05
2.13166e-05
2.01199e-05
1.82769e-05
1.56262e-05
1.20999e-05
8.24089e-06
4.16585e-06
0
0
4.9015e-07
0
0
0
2.22234e-06
4.38541e-06
0
0
3.36255e-06
7.01134e-06
6.81142e-06
6.46314e-06
7.4992e-06
7.55463e-06
6.81686e-06
5.13397e-06
3.1596e-06
2.51508e-06
3.51387e-06
5.70263e-06
8.48092e-06
8.93869e-06
5.0425e-06
1.66176e-06
2.28899e-06
4.37447e-06
5.16483e-06
4.7712e-06
4.19245e-06
3.37899e-06
1.86212e-06
4.98274e-08
0
3.49321e-07
1.58745e-06
1.58456e-06
9.09261e-07
4.05479e-07
1.07665e-07
1.21915e-08
1.52695e-07
2.35032e-07
1.3443e-07
1.50963e-07
4.11411e-07
6.34037e-07
5.71811e-07
3.97567e-07
3.33581e-07
3.47797e-07
3.64598e-07
3.47402e-07
2.83528e-07
2.30602e-07
3.09192e-07
4.30021e-07
3.91513e-07
2.54641e-07
2.18493e-07
3.97042e-07
7.34484e-07
1.02795e-06
1.17711e-06
1.35143e-06
1.72362e-06
2.2298e-06
2.74069e-06
3.21191e-06
3.7874e-06
4.51574e-06
5.2204e-06
5.93383e-06
7.00104e-06
7.77116e-06
7.89492e-06
7.90434e-06
8.49606e-06
1.06267e-05
1.4234e-05
1.74177e-05
2.00143e-05
2.20075e-05
2.3456e-05
2.4413e-05
2.49784e-05
2.5135e-05
2.47857e-05
2.39998e-05
2.26856e-05
2.07896e-05
1.85711e-05
1.6031e-05
1.31757e-05
1.03258e-05
7.62781e-06
5.19656e-06
3.20987e-06
0
0
0
0
0
6.14043e-06
0
0
0
0
0
0
7.00755e-07
8.19103e-07
1.70598e-06
3.66511e-06
3.25198e-06
0
0
0
9.98941e-07
3.37759e-06
6.63802e-06
9.64122e-06
7.50939e-06
2.48182e-06
0
0
1.62156e-06
2.87811e-06
2.47951e-06
1.57024e-06
9.8467e-07
4.07025e-07
0
0
9.61225e-07
1.64708e-06
1.35576e-06
7.80758e-07
4.88767e-07
4.9388e-07
7.63818e-07
1.06524e-06
8.22777e-07
1.97285e-07
0
1.06123e-07
3.13259e-07
2.92798e-07
1.4865e-07
6.11731e-08
3.9146e-08
2.96334e-08
1.42461e-08
0
0
6.51015e-08
1.569e-07
1.06646e-07
0
0
2.01951e-07
5.10224e-07
7.03821e-07
6.66803e-07
4.95016e-07
3.86213e-07
4.10179e-07
5.05673e-07
6.2828e-07
8.07145e-07
1.06894e-06
1.36634e-06
1.60158e-06
1.64045e-06
1.44444e-06
1.16566e-06
9.67395e-07
9.36126e-07
1.16526e-06
1.60083e-06
2.02184e-06
2.38593e-06
2.67018e-06
2.88132e-06
3.04815e-06
3.20784e-06
3.36892e-06
3.52291e-06
3.67299e-06
3.78791e-06
3.81928e-06
3.75837e-06
3.56575e-06
3.20433e-06
2.68767e-06
2.11069e-06
1.53974e-06
1.0027e-06
0
0
0
8.56734e-07
1.20888e-06
4.49855e-06
9.9275e-06
4.51144e-08
0
0
0
0
0
0
0
1.02113e-06
0
0
0
0
0
2.17233e-06
4.83292e-06
7.04941e-06
5.43453e-06
6.88665e-07
0
0
3.62593e-08
2.71687e-07
0
0
4.45898e-07
8.29117e-07
8.25002e-07
9.85644e-07
1.41261e-06
1.75338e-06
1.63762e-06
1.28091e-06
1.24455e-06
1.71482e-06
2.50174e-06
3.1064e-06
2.8105e-06
1.57432e-06
5.42401e-07
2.37535e-07
1.86562e-07
1.08165e-07
3.64629e-08
1.60558e-08
2.49817e-08
4.23284e-08
6.48498e-08
8.31481e-08
1.12664e-07
1.97143e-07
3.10078e-07
3.07474e-07
1.46981e-07
3.89683e-08
1.12396e-07
2.45273e-07
2.93495e-07
2.44083e-07
1.62563e-07
1.11994e-07
1.23707e-07
1.77923e-07
2.22222e-07
2.31188e-07
2.15216e-07
1.92978e-07
1.76458e-07
1.66171e-07
1.53881e-07
1.39473e-07
1.38719e-07
1.7455e-07
2.85625e-07
4.70946e-07
6.67998e-07
8.41018e-07
9.66049e-07
1.02994e-06
1.03929e-06
1.01171e-06
9.57987e-07
8.87874e-07
8.16972e-07
7.54266e-07
7.03237e-07
6.67154e-07
6.38408e-07
6.02194e-07
5.43127e-07
4.61672e-07
3.66246e-07
1.94228e-07
0
0
0
3.12587e-06
2.96643e-06
0
0
0
2.05786e-06
0
0
0
1.19688e-06
1.86062e-07
0
1.16443e-06
4.97414e-07
0
0
0
1.42491e-06
4.44028e-06
7.33244e-06
8.73749e-06
6.86983e-06
2.44219e-06
0
0
0
0
0
7.92502e-08
1.26786e-06
1.43575e-06
1.13625e-06
9.06395e-07
8.06553e-07
7.47335e-07
6.77021e-07
6.8037e-07
9.17264e-07
1.45253e-06
2.11844e-06
2.42787e-06
2.07229e-06
1.289e-06
5.76659e-07
2.24889e-07
9.40202e-08
2.04991e-08
0
0
0
7.80564e-09
4.76104e-08
6.97279e-08
5.3928e-08
4.73711e-08
9.29968e-08
1.28621e-07
8.75382e-08
2.84229e-08
3.09171e-08
6.54079e-08
7.37031e-08
5.55098e-08
3.6813e-08
2.70197e-08
3.19199e-08
5.29476e-08
6.43091e-08
4.60831e-08
2.07668e-08
1.4414e-08
2.43119e-08
3.94828e-08
4.998e-08
5.18293e-08
5.31067e-08
6.71255e-08
1.06483e-07
1.65264e-07
2.3608e-07
3.07655e-07
3.71298e-07
4.23748e-07
4.61098e-07
4.812e-07
4.82739e-07
4.65954e-07
4.34542e-07
3.91304e-07
3.38256e-07
2.7993e-07
2.21567e-07
1.68935e-07
1.24116e-07
9.01653e-08
6.37741e-08
0
0
0
0
0
7.16013e-08
7.97722e-07
0
0
3.16786e-06
8.7713e-07
0
5.27796e-07
2.17858e-06
1.95653e-06
0
0
0
1.24569e-07
7.36598e-07
1.55334e-06
1.65781e-06
2.73734e-06
6.02818e-06
7.60387e-06
6.10655e-06
3.50205e-06
1.47929e-06
5.31546e-07
2.90376e-07
3.26401e-07
1.14769e-06
2.09711e-06
2.22737e-06
1.79614e-06
1.28816e-06
8.38953e-07
4.33389e-07
1.14036e-07
1.65472e-08
2.69006e-07
7.32701e-07
1.06734e-06
1.21565e-06
1.15341e-06
8.63343e-07
4.72644e-07
1.59026e-07
2.91142e-08
4.59928e-08
1.14472e-07
1.63537e-07
1.53667e-07
1.20455e-07
1.17571e-07
1.54649e-07
1.94618e-07
1.77113e-07
1.14382e-07
9.124e-08
9.93751e-08
8.00881e-08
4.58019e-08
3.11866e-08
3.31577e-08
3.51813e-08
3.84457e-08
4.65981e-08
5.02233e-08
5.62501e-08
8.007e-08
9.72207e-08
7.76619e-08
4.83276e-08
3.64477e-08
3.82927e-08
4.97226e-08
6.35383e-08
7.10879e-08
7.32145e-08
7.70657e-08
8.17364e-08
8.66849e-08
9.51744e-08
1.08563e-07
1.24958e-07
1.42859e-07
1.62999e-07
1.85757e-07
2.06087e-07
2.21528e-07
2.30229e-07
2.29564e-07
2.1635e-07
1.88991e-07
1.47884e-07
9.75143e-08
4.57818e-08
5.31593e-09
0
0
0
0
0
0
0
0
0
0
0
0
7.1878e-07
3.13142e-06
4.3679e-06
1.77249e-06
0
0
0
0
1.38228e-06
3.10621e-06
1.89973e-06
1.74399e-07
1.3347e-06
3.86439e-06
3.91835e-06
2.6825e-06
1.62937e-06
9.53437e-07
3.87442e-07
1.97472e-07
6.07265e-07
1.0801e-06
1.28079e-06
1.28966e-06
1.21094e-06
9.46426e-07
4.78097e-07
9.26762e-08
2.0346e-07
8.5684e-07
1.36845e-06
1.11442e-06
5.40679e-07
2.64853e-07
2.24148e-07
1.63104e-07
3.37715e-08
0
7.49611e-08
2.64789e-07
3.51051e-07
3.16535e-07
2.524e-07
2.16543e-07
2.24649e-07
2.61594e-07
2.75336e-07
2.53466e-07
2.32647e-07
2.03341e-07
1.47276e-07
9.41984e-08
6.95082e-08
5.84116e-08
4.85593e-08
4.91543e-08
6.12736e-08
6.57271e-08
6.42779e-08
8.05322e-08
9.71053e-08
8.68132e-08
7.03816e-08
6.1788e-08
6.38427e-08
8.11932e-08
1.03207e-07
1.1197e-07
1.0598e-07
9.06655e-08
6.99173e-08
5.1811e-08
4.13948e-08
3.77656e-08
3.91904e-08
4.41806e-08
5.10939e-08
6.07197e-08
7.37099e-08
8.68895e-08
9.93478e-08
1.09481e-07
1.14847e-07
1.12615e-07
9.93954e-08
7.32052e-08
3.49883e-08
0
0
0
0
0
0
0
0
0
0
0
0
0
4.20787e-06
1.18855e-05
1.71646e-05
1.12242e-05
4.74488e-06
1.29791e-06
0
1.58909e-06
6.21676e-06
7.16373e-06
4.90152e-06
2.37931e-06
1.29429e-06
1.62713e-06
2.26131e-06
2.85242e-06
3.19256e-06
2.63453e-06
1.0801e-06
1.77131e-08
1.41834e-07
5.90762e-07
6.42043e-07
4.91256e-07
5.09374e-07
4.3407e-07
1.17664e-07
0
1.94437e-07
8.24495e-07
1.18086e-06
6.9478e-07
0
0
0
1.08194e-07
8.54173e-08
1.79871e-08
7.41849e-08
2.20878e-07
3.26487e-07
3.49609e-07
3.33211e-07
3.02933e-07
2.67912e-07
2.42684e-07
2.31795e-07
2.3551e-07
2.47741e-07
2.37261e-07
1.87815e-07
1.33274e-07
1.07269e-07
9.99325e-08
9.77238e-08
1.02845e-07
1.12575e-07
1.06887e-07
8.69751e-08
8.44016e-08
8.93632e-08
7.92484e-08
6.54947e-08
5.27731e-08
4.73779e-08
5.9457e-08
7.74015e-08
8.15196e-08
7.39142e-08
6.03756e-08
4.43139e-08
2.99266e-08
2.04971e-08
1.52406e-08
1.35271e-08
1.43677e-08
1.66192e-08
1.98906e-08
2.50249e-08
3.17459e-08
3.89394e-08
4.62203e-08
5.26465e-08
5.67351e-08
5.60304e-08
4.78949e-08
2.92701e-08
2.53261e-09
0
0
0
0
0
0
0
0
1.10355e-06
5.58583e-06
5.01e-06
1.35669e-06
7.82845e-06
3.26487e-05
4.49875e-05
2.7067e-05
1.2782e-05
6.23311e-06
2.98722e-06
1.95792e-06
2.94995e-06
4.37795e-06
4.26264e-06
2.76889e-06
1.55023e-06
1.32243e-06
1.95207e-06
3.17955e-06
4.31972e-06
3.90698e-06
1.11204e-06
0
0
0
2.18654e-07
4.54735e-08
0
0
0
0
0
4.2395e-07
4.30135e-07
0
0
0
0
1.93148e-07
1.16551e-07
2.46293e-08
3.22491e-08
8.14823e-08
1.13237e-07
1.2495e-07
1.35135e-07
1.42114e-07
1.37227e-07
1.26444e-07
1.21362e-07
1.27868e-07
1.36593e-07
1.27956e-07
9.87882e-08
7.03002e-08
5.7754e-08
5.44643e-08
5.51421e-08
6.52542e-08
9.02088e-08
1.16305e-07
1.26458e-07
1.24315e-07
1.03615e-07
7.03884e-08
4.50102e-08
2.38795e-08
7.63538e-09
9.25431e-09
1.94325e-08
2.19082e-08
2.2347e-08
2.43855e-08
2.2296e-08
1.65028e-08
1.12543e-08
7.6437e-09
5.84121e-09
5.40826e-09
5.88479e-09
6.93561e-09
8.66607e-09
1.15382e-08
1.50397e-08
1.89464e-08
2.29538e-08
2.64379e-08
2.81399e-08
2.66653e-08
1.95886e-08
6.76309e-09
0
0
0
0
0
0
0
0
5.80125e-06
1.54698e-05
7.59318e-06
0
1.2527e-06
2.66905e-05
3.8232e-05
2.56435e-05
1.4276e-05
7.46443e-06
3.55893e-06
1.8009e-06
1.10448e-06
1.28879e-06
1.98479e-06
1.92349e-06
8.66121e-07
0
0
1.29122e-06
2.66055e-06
1.87438e-06
0
0
0
8.67384e-07
9.7179e-07
4.4092e-07
9.98281e-08
0
0
0
5.3523e-07
9.04145e-07
6.16533e-07
9.29171e-08
0
1.0914e-07
3.83071e-07
3.6172e-07
1.77878e-07
1.13714e-07
1.42631e-07
1.4359e-07
1.09465e-07
7.98286e-08
7.02742e-08
6.91986e-08
6.12335e-08
4.45824e-08
2.66383e-08
1.45183e-08
5.46443e-09
0
0
0
9.91061e-09
1.02837e-08
4.48853e-09
6.14671e-09
2.99507e-08
7.10303e-08
9.68093e-08
9.39714e-08
6.84213e-08
3.37846e-08
9.3544e-09
0
0
0
0
4.41726e-10
2.12609e-09
7.90485e-09
9.81682e-09
7.01242e-09
4.17501e-09
2.74597e-09
2.10984e-09
1.84218e-09
1.88351e-09
2.22541e-09
2.82372e-09
3.89248e-09
5.5129e-09
7.47428e-09
9.69985e-09
1.19637e-08
1.36335e-08
1.40304e-08
1.17423e-08
6.41744e-09
0
0
0
0
0
3.69419e-06
7.3843e-07
0
1.60511e-05
2.11164e-05
1.12789e-05
0
0
1.7158e-05
2.22131e-05
1.2069e-05
7.40934e-06
6.56282e-06
5.61489e-06
3.39486e-06
1.73142e-06
1.47654e-06
2.4132e-06
3.2807e-06
2.32645e-06
3.44895e-07
0
4.77316e-07
1.77704e-06
1.39713e-06
1.47578e-07
3.36638e-08
1.26938e-06
2.23143e-06
1.81631e-06
8.24977e-07
2.03372e-07
7.35166e-08
2.9516e-07
7.62837e-07
1.3297e-06
1.61451e-06
1.29378e-06
6.73194e-07
3.0703e-07
2.18438e-07
1.44246e-07
5.82947e-08
8.85708e-08
2.16093e-07
2.63726e-07
1.79944e-07
8.76691e-08
5.03432e-08
4.0254e-08
2.97252e-08
1.85623e-08
1.2911e-08
1.01473e-08
5.01715e-09
0
0
1.67975e-08
5.92749e-08
9.42095e-08
1.04367e-07
9.01756e-08
6.34545e-08
4.16271e-08
3.77896e-08
4.32287e-08
4.55995e-08
3.84063e-08
1.81985e-08
0
0
0
0
0
0
0
1.97708e-09
2.76318e-09
0
0
0
0
0
1.0974e-10
2.94428e-10
5.45702e-10
9.37199e-10
1.60648e-09
2.55454e-09
3.75825e-09
5.18885e-09
6.57357e-09
7.6056e-09
7.42616e-09
5.52595e-09
4.26692e-10
0
0
0
0
4.32282e-06
0
0
5.48124e-06
1.65631e-05
1.34265e-05
0
0
5.21048e-06
5.57469e-06
9.70334e-07
7.6669e-07
4.85634e-06
8.16494e-06
6.71992e-06
4.43629e-06
3.5867e-06
3.23744e-06
2.41001e-06
1.43658e-06
5.95094e-07
4.12096e-07
1.39809e-06
2.82281e-06
3.35172e-06
2.90597e-06
2.58691e-06
2.4772e-06
1.89699e-06
1.01727e-06
2.94362e-07
0
1.10478e-07
4.76906e-07
7.83932e-07
9.7439e-07
1.06439e-06
9.90454e-07
7.67944e-07
5.02127e-07
2.55147e-07
8.10276e-08
6.55214e-08
2.07053e-07
3.30001e-07
2.70633e-07
1.18706e-07
4.56781e-08
5.72522e-08
7.17497e-08
5.69278e-08
3.48027e-08
2.63256e-08
2.4466e-08
1.42076e-08
0
0
0
2.2126e-08
5.54153e-08
7.33433e-08
7.1628e-08
5.54972e-08
3.87277e-08
3.48215e-08
4.11786e-08
4.7297e-08
4.60227e-08
3.19113e-08
9.494e-09
0
0
0
0
0
0
0
0
0
0
0
0
0
0
0
0
0
1.1882e-10
5.42153e-10
1.17813e-09
2.07328e-09
3.15817e-09
4.35427e-09
5.1452e-09
4.86123e-09
1.77126e-09
0
0
0
0
5.82343e-06
3.49246e-06
0
0
1.19459e-05
7.15398e-06
1.37725e-06
0
2.01382e-06
3.13508e-06
4.16729e-07
4.0055e-06
9.43875e-06
9.94012e-06
8.88242e-06
7.44409e-06
5.32808e-06
3.60208e-06
2.57561e-06
2.11356e-06
1.62065e-06
7.16821e-07
5.55094e-07
1.63087e-06
3.24778e-06
4.81649e-06
5.28403e-06
4.25077e-06
2.68694e-06
1.32562e-06
4.19163e-07
7.57633e-08
2.64431e-07
6.53455e-07
7.73574e-07
6.05889e-07
4.54537e-07
4.08965e-07
3.8397e-07
3.18378e-07
2.06638e-07
1.23307e-07
1.57889e-07
2.21623e-07
1.70662e-07
5.15136e-08
0
0
4.21175e-08
5.21956e-08
1.59162e-08
0
7.48623e-10
4.33738e-08
7.58918e-08
8.25194e-08
6.99417e-08
5.21489e-08
3.73842e-08
2.9282e-08
2.57475e-08
1.89786e-08
5.67922e-09
0
0
9.88527e-09
2.38071e-08
3.22164e-08
3.0596e-08
2.00471e-08
4.38187e-09
0
0
0
0
0
2.91956e-10
0
0
0
0
0
0
0
0
0
0
0
0
1.6063e-10
7.09174e-10
1.50693e-09
2.59236e-09
3.66977e-09
4.07931e-09
2.14012e-09
0
0
0
0
7.88725e-06
4.36284e-06
0
7.11302e-07
4.45593e-06
1.7212e-06
4.34934e-07
5.44851e-07
1.70968e-06
3.80557e-06
8.41037e-06
1.22645e-05
1.29782e-05
1.21928e-05
1.00147e-05
6.90676e-06
4.29126e-06
3.10969e-06
2.89717e-06
3.0565e-06
2.74046e-06
1.309e-06
0
2.45946e-07
1.80186e-06
3.64565e-06
4.49719e-06
3.83307e-06
2.37015e-06
9.02833e-07
0
0
3.16504e-07
8.67416e-07
8.61042e-07
5.78363e-07
4.12401e-07
4.0198e-07
4.46948e-07
4.95791e-07
5.42905e-07
5.68676e-07
5.04333e-07
3.30351e-07
1.49237e-07
5.10249e-08
4.56869e-08
9.27275e-08
1.34231e-07
1.1669e-07
3.38106e-08
0
0
9.00983e-08
1.53489e-07
1.64237e-07
1.44113e-07
1.12459e-07
7.46514e-08
4.10833e-08
2.00742e-08
5.95006e-09
0
0
0
0
1.02297e-08
1.69968e-08
1.61294e-08
1.10228e-08
2.51164e-09
0
0
0
0
0
3.18221e-09
1.67947e-09
0
0
0
0
0
0
0
0
0
0
0
0
1.49748e-10
6.99086e-10
1.55525e-09
2.56075e-09
3.18957e-09
2.00381e-09
0
0
0
0
1.15044e-05
1.80339e-05
1.80912e-05
0
0
0
0
0
0
1.15172e-06
4.44145e-06
9.07783e-06
1.40672e-05
1.57466e-05
1.2768e-05
9.43476e-06
7.64916e-06
6.78234e-06
6.23528e-06
5.33454e-06
3.11257e-06
4.98512e-07
0
0
9.29134e-07
2.13674e-06
2.97839e-06
2.90365e-06
1.9378e-06
7.69186e-07
9.20248e-11
0
5.13035e-07
8.56652e-07
6.51831e-07
3.64565e-07
3.02842e-07
4.26448e-07
6.24285e-07
8.29211e-07
9.74779e-07
9.54672e-07
7.02838e-07
3.6264e-07
1.32522e-07
4.50109e-08
3.91612e-08
5.97195e-08
6.93557e-08
4.40375e-08
0
0
0
4.27196e-08
9.57486e-08
1.08617e-07
1.08455e-07
1.05339e-07
8.33206e-08
4.62165e-08
1.92068e-08
1.1149e-08
1.26962e-08
1.49492e-08
1.96685e-08
2.48704e-08
2.51071e-08
1.6232e-08
2.4248e-09
0
0
0
0
0
0
0
0
1.56887e-09
0
0
0
0
0
0
0
0
0
0
0
0
0
2.91378e-10
9.02956e-10
1.70232e-09
2.32769e-09
1.62877e-09
0
0
0
0
5.34682e-06
6.70482e-06
9.77122e-06
0
0
0
0
0
0
0
6.439e-08
1.94932e-06
5.22925e-06
7.70536e-06
7.91411e-06
8.10449e-06
9.04389e-06
9.73078e-06
9.21706e-06
6.74924e-06
2.36441e-06
0
0
0
4.17213e-07
1.35179e-06
1.75673e-06
1.5852e-06
1.2153e-06
8.93998e-07
6.25638e-07
5.50803e-07
7.52722e-07
8.54871e-07
5.39697e-07
1.8058e-07
1.03136e-07
2.19358e-07
3.65656e-07
4.53549e-07
4.46347e-07
3.46855e-07
2.06573e-07
1.07066e-07
7.74172e-08
7.51142e-08
6.62919e-08
5.79554e-08
6.16211e-08
6.97252e-08
6.39622e-08
4.12184e-08
2.70051e-08
4.6042e-08
8.16244e-08
1.08037e-07
1.3648e-07
1.65855e-07
1.55859e-07
1.00754e-07
4.6925e-08
2.6275e-08
3.28445e-08
4.60584e-08
5.83086e-08
6.61219e-08
6.46992e-08
4.73485e-08
1.91929e-08
0
0
0
0
0
0
0
0
0
0
0
0
0
0
0
0
0
0
0
0
0
0
7.86493e-11
4.77725e-10
1.0471e-09
1.56842e-09
1.16565e-09
0
0
0
0
3.72493e-06
0
0
0
0
0
3.83896e-06
0
2.12981e-06
3.65191e-06
2.49521e-06
1.84465e-06
2.13699e-06
3.02599e-06
3.66058e-06
4.23623e-06
4.8158e-06
4.8353e-06
3.7864e-06
1.54655e-06
0
0
0
1.47502e-07
1.15134e-06
1.70335e-06
1.53365e-06
1.0587e-06
7.93537e-07
8.2184e-07
9.62398e-07
1.12126e-06
1.24514e-06
1.11816e-06
7.30549e-07
3.20095e-07
5.899e-08
0
0
3.39392e-08
1.05484e-07
1.09988e-07
6.25961e-08
4.1567e-08
7.16654e-08
9.03371e-08
4.52483e-08
0
5.15195e-09
5.84132e-08
8.68026e-08
7.36248e-08
4.60652e-08
3.72561e-08
5.45108e-08
7.49769e-08
9.25453e-08
1.15653e-07
1.1361e-07
7.35542e-08
2.71117e-08
2.25642e-09
2.25737e-09
1.2613e-08
2.46773e-08
3.49361e-08
4.01841e-08
3.22638e-08
1.11422e-08
0
0
0
0
0
0
0
0
0
0
0
0
0
0
0
0
0
0
0
0
0
0
0
1.99186e-10
5.62452e-10
9.4357e-10
7.09068e-10
0
0
0
0
5.67409e-06
6.2228e-06
4.53962e-06
1.76849e-06
0
3.8039e-06
6.94402e-06
1.11802e-05
1.02128e-05
6.61959e-06
5.94571e-06
5.45273e-06
4.67154e-06
3.91198e-06
3.61887e-06
4.03832e-06
4.44447e-06
4.13474e-06
3.0123e-06
1.1816e-06
0
0
2.54058e-07
5.82703e-07
7.13005e-07
8.2649e-07
7.2108e-07
5.10325e-07
5.05201e-07
7.82781e-07
1.15106e-06
1.40756e-06
1.48929e-06
1.35093e-06
1.04007e-06
6.79661e-07
3.40305e-07
6.42808e-08
0
2.17388e-08
1.11936e-07
1.06839e-07
7.21172e-08
8.79631e-08
1.49404e-07
1.67502e-07
8.34671e-08
0
0
2.26638e-08
5.70818e-08
6.01444e-08
4.47066e-08
2.62422e-08
1.05873e-08
0
0
1.46886e-08
4.72462e-08
4.61987e-08
2.23137e-08
0
0
0
0
0
0
2.05668e-09
0
0
0
0
0
0
0
0
0
0
0
0
0
0
0
0
0
0
0
0
0
0
0
0
2.04581e-11
2.19271e-10
4.59456e-10
3.08176e-10
0
0
0
0
0
0
7.25554e-08
9.16497e-06
5.41515e-06
8.33866e-06
1.3741e-05
9.27835e-06
5.30286e-06
3.88472e-06
4.96393e-06
7.5418e-06
8.34796e-06
5.6122e-06
4.53859e-06
4.82112e-06
5.40258e-06
5.60781e-06
5.36377e-06
3.47783e-06
1.25595e-06
4.89152e-07
2.83555e-07
1.02739e-07
1.12482e-07
2.97305e-07
3.2987e-07
1.10911e-07
0
2.51043e-08
5.94678e-07
1.48238e-06
2.00698e-06
1.84774e-06
1.33731e-06
8.22407e-07
4.36444e-07
1.87664e-07
5.49136e-08
2.30745e-08
3.73567e-08
2.90395e-08
1.45127e-08
5.72742e-08
1.46721e-07
1.84196e-07
1.21564e-07
3.8722e-08
2.40518e-08
6.93027e-08
1.26172e-07
1.63671e-07
1.66423e-07
1.30586e-07
6.8842e-08
9.06016e-09
0
0
4.74647e-09
1.12161e-08
5.11762e-09
0
0
0
0
0
0
0
0
0
0
0
0
0
0
0
0
0
0
0
0
0
0
0
0
0
0
0
0
0
0
0
0
0
1.08304e-10
0
0
0
0
0
0
0
0
1.82495e-05
1.44297e-05
1.36524e-05
1.37374e-05
1.05609e-05
7.97576e-06
6.35984e-06
6.97527e-06
9.7636e-06
3.81871e-06
1.54965e-06
1.38154e-06
2.03924e-06
3.53779e-06
5.35432e-06
5.9892e-06
4.56139e-06
2.71963e-06
1.65275e-06
1.12465e-06
9.00666e-07
9.3313e-07
9.95162e-07
8.20907e-07
3.94877e-07
1.88581e-08
1.25438e-07
7.44656e-07
1.48484e-06
1.75652e-06
1.34173e-06
6.99701e-07
2.90613e-07
1.82388e-07
1.72865e-07
8.51177e-08
0
0
0
7.32116e-08
1.80619e-07
3.01127e-07
3.26802e-07
2.30822e-07
1.13223e-07
7.00919e-08
1.10108e-07
1.8286e-07
2.34433e-07
2.32369e-07
1.80562e-07
1.16049e-07
6.9108e-08
4.1464e-08
2.86943e-08
2.22449e-08
1.16186e-08
7.12871e-10
0
1.60935e-09
0
0
0
0
5.09255e-09
1.72735e-08
1.40606e-08
4.95077e-09
0
0
0
0
0
0
0
0
0
0
0
0
0
0
0
0
0
0
0
0
0
0
0
0
0
0
0
0
0
5.46253e-06
8.10952e-06
1.06692e-05
1.70181e-05
9.3117e-06
4.36233e-06
3.14128e-06
2.4503e-06
2.26938e-06
2.02915e-06
1.26928e-06
0
0
9.11738e-07
2.40277e-06
2.88588e-06
3.27301e-06
3.69015e-06
3.29001e-06
2.66698e-06
2.48548e-06
2.35776e-06
1.8582e-06
1.17801e-06
6.05334e-07
2.42366e-07
1.10187e-07
1.4582e-07
2.14679e-07
3.54958e-07
7.04221e-07
1.1595e-06
1.31001e-06
7.63123e-07
3.38168e-08
0
2.54319e-07
3.64683e-07
2.37334e-07
8.94299e-08
4.82906e-08
9.77377e-08
1.62378e-07
2.10383e-07
2.37909e-07
2.14224e-07
1.33171e-07
4.3513e-08
3.31802e-09
3.01077e-08
9.20076e-08
1.48324e-07
1.71454e-07
1.5418e-07
1.17363e-07
8.37974e-08
5.65598e-08
3.66566e-08
2.22811e-08
6.97395e-09
0
0
0
0
0
0
0
0
1.50571e-08
2.25301e-08
1.74066e-08
0
0
0
0
0
0
0
0
0
0
0
0
0
0
0
0
0
0
0
0
0
0
0
0
0
0
0
0
0
0
0
0
0
0
5.3134e-07
1.34697e-06
9.33291e-07
4.59864e-08
0
0
0
9.63069e-07
3.67648e-06
5.76322e-06
6.30906e-06
5.19322e-06
3.42283e-06
1.37493e-06
4.50306e-07
1.04745e-06
1.61317e-06
1.13398e-06
2.87485e-07
0
1.60646e-07
6.50448e-07
8.40657e-07
5.7459e-07
2.56056e-07
2.12606e-07
3.32555e-07
2.77752e-07
0
0
0
8.14917e-08
1.32714e-07
9.20462e-08
6.75486e-08
1.05864e-07
1.58306e-07
1.69854e-07
1.49543e-07
1.19769e-07
7.85951e-08
1.87877e-08
0
0
0
1.82816e-08
1.30742e-07
2.07516e-07
2.06989e-07
1.50694e-07
9.23778e-08
5.33262e-08
3.21079e-08
2.09602e-08
1.04912e-08
4.8366e-10
0
2.74864e-10
7.38532e-09
5.09301e-09
0
0
0
0
0
5.58668e-09
0
0
0
0
0
0
0
0
0
0
0
0
0
0
0
0
0
0
0
0
0
0
0
0
0
0
0
0
0
0
0
0
0
0
0
3.37216e-06
2.4712e-06
0
0
0
2.19253e-06
3.35835e-06
4.95432e-06
6.73616e-06
8.16791e-06
8.0015e-06
5.1302e-06
1.34355e-06
0
0
2.97179e-07
4.27312e-07
2.42983e-07
6.54042e-07
1.47763e-06
2.08618e-06
2.02951e-06
1.36764e-06
6.34149e-07
2.73162e-07
2.31678e-07
2.34612e-07
1.94814e-07
1.7122e-07
1.34024e-07
6.36689e-08
2.61048e-08
3.17915e-08
4.21591e-08
4.23302e-08
4.08581e-08
4.50302e-08
4.81068e-08
4.60784e-08
3.93841e-08
2.392e-08
0
0
0
0
8.98348e-08
1.83527e-07
2.05583e-07
1.54702e-07
9.12315e-08
5.09473e-08
3.3624e-08
2.72822e-08
1.83154e-08
6.45766e-09
0
9.60399e-11
1.07318e-08
1.88801e-08
1.70238e-08
0
0
0
0
0
0
0
0
0
0
0
0
0
0
0
0
0
0
0
0
0
0
0
0
0
0
0
0
0
0
0
0
0
0
0
0
0
0
0
0
1.53808e-06
0
0
0
0
1.26772e-06
1.95728e-06
3.42373e-06
5.84176e-06
7.96999e-06
8.49705e-06
6.47487e-06
3.16782e-06
8.84202e-07
2.9076e-07
8.24028e-07
1.41264e-06
1.3904e-06
1.26274e-06
1.40082e-06
1.73397e-06
1.94517e-06
1.63094e-06
8.24298e-07
2.3432e-07
1.84934e-07
2.47209e-07
1.52267e-07
0
0
0
0
0
0
2.4351e-08
3.07619e-08
4.61209e-08
5.72345e-08
6.14493e-08
6.34901e-08
6.14724e-08
5.73932e-08
5.44772e-08
5.16501e-08
6.12142e-08
9.88436e-08
1.53583e-07
1.80392e-07
1.4921e-07
9.40609e-08
5.55918e-08
4.18392e-08
4.25171e-08
3.88357e-08
2.36303e-08
3.76198e-09
0
0
0
9.60772e-09
9.04691e-09
0
0
0
0
0
0
0
0
0
0
0
0
0
0
0
0
0
0
0
0
0
0
0
0
0
0
0
0
0
0
0
0
0
0
0
0
0
0
0
0
0
0
0
0
0
3.37822e-07
2.677e-06
4.78535e-06
6.56558e-06
7.60177e-06
6.94236e-06
4.37058e-06
2.22829e-06
2.31505e-06
3.63118e-06
4.02172e-06
3.09842e-06
1.79974e-06
9.08862e-07
6.14735e-07
6.63186e-07
5.48424e-07
1.24735e-08
0
0
0
0
0
0
0
0
0
5.93048e-08
1.8411e-07
1.83213e-07
1.65199e-07
1.52748e-07
1.46672e-07
1.40564e-07
1.17287e-07
8.28209e-08
6.91958e-08
8.39752e-08
1.13357e-07
1.52539e-07
1.95213e-07
2.16324e-07
1.86102e-07
1.20406e-07
6.27474e-08
3.36023e-08
2.99968e-08
3.31364e-08
2.67765e-08
9.05825e-09
0
0
0
0
1.7152e-09
1.24795e-08
1.27181e-08
0
0
0
0
0
0
0
0
0
0
0
0
0
0
0
0
0
0
0
0
0
0
0
0
0
0
0
0
0
0
0
0
0
2.56666e-07
0
0
0
0
0
0
0
0
2.97637e-06
2.9444e-06
3.88757e-06
5.91093e-06
8.49324e-06
1.11103e-05
1.21522e-05
1.1025e-05
9.19643e-06
7.72113e-06
6.64793e-06
5.63439e-06
4.2521e-06
2.32817e-06
5.11e-07
0
0
0
0
0
0
0
0
0
0
0
0
0
9.4121e-08
1.66155e-07
1.72662e-07
1.46871e-07
1.08032e-07
8.00063e-08
7.77916e-08
7.48248e-08
4.97136e-08
2.67599e-08
2.61132e-08
4.05921e-08
6.33548e-08
8.93129e-08
1.03508e-07
8.5555e-08
4.25078e-08
6.75437e-09
0
0
2.24017e-09
5.14287e-09
2.52445e-09
0
0
0
0
0
0
1.64541e-08
1.1986e-08
2.27854e-09
0
0
0
0
0
0
0
0
0
0
0
0
0
0
7.57699e-11
1.8208e-11
0
0
0
0
0
0
0
0
0
0
0
0
0
0
0
2.68919e-06
0
0
0
0
0
0
0
7.56489e-07
2.75108e-06
2.35481e-06
3.90473e-06
6.11513e-06
8.5123e-06
1.07587e-05
1.21358e-05
1.21223e-05
1.09547e-05
9.30569e-06
7.50417e-06
5.5705e-06
3.53783e-06
1.5177e-06
0
0
0
0
0
2.57694e-08
6.28525e-08
0
0
0
0
1.90257e-07
2.24519e-07
1.70291e-07
8.15243e-08
1.20237e-08
5.35088e-09
2.82857e-08
3.57606e-08
3.11029e-08
3.80779e-08
4.59456e-08
2.57256e-08
0
0
0
0
0
9.29063e-09
1.26544e-08
0
0
0
0
0
0
0
7.25374e-09
0
0
0
0
0
0
8.46123e-09
1.24339e-09
0
0
0
0
0
0
0
0
0
0
0
0
0
0
1.99839e-10
9.67433e-11
4.37313e-12
0
0
0
0
0
0
0
0
0
0
0
0
0
0
3.77773e-07
0
0
0
0
0
0
8.77349e-08
1.2579e-06
0
0
5.49578e-07
1.55415e-06
2.01472e-06
2.55639e-06
3.56071e-06
4.63434e-06
5.20511e-06
5.08125e-06
4.31795e-06
3.17261e-06
1.99637e-06
1.03871e-06
3.37462e-07
0
0
0
7.5706e-08
1.49829e-07
1.08073e-07
2.81436e-08
3.6217e-08
1.82164e-07
3.32404e-07
3.75867e-07
3.27997e-07
2.24869e-07
8.0972e-08
0
0
0
2.94983e-08
4.42228e-08
5.02679e-08
5.04962e-08
2.625e-08
0
0
0
0
0
0
2.35147e-08
2.00871e-08
1.43317e-09
0
0
0
0
0
2.55177e-09
2.29178e-08
4.15244e-09
0
0
0
0
4.33356e-09
0
0
0
0
0
0
0
0
0
0
0
0
0
0
6.50979e-11
3.70445e-10
2.11149e-10
6.09038e-11
0
0
0
0
0
0
0
0
0
0
0
0
0
0
0
0
0
0
0
0
0
1.67054e-06
2.49039e-06
1.12736e-06
0
0
0
0
0
9.64836e-07
3.14587e-06
3.38866e-06
2.97169e-06
2.42686e-06
1.83274e-06
1.42363e-06
1.24506e-06
1.13546e-06
9.20198e-07
6.09132e-07
3.79824e-07
2.54774e-07
6.59023e-08
0
0
0
1.28891e-07
2.74199e-07
2.78901e-07
2.26055e-07
1.60273e-07
1.05205e-07
7.88732e-08
8.66393e-08
1.11503e-07
1.18577e-07
1.00912e-07
7.8926e-08
6.12775e-08
3.51312e-08
1.43783e-09
0
0
0
0
0
1.46329e-08
3.14875e-08
3.61516e-08
3.06348e-08
2.01652e-08
8.20074e-09
0
0
5.81477e-09
3.35223e-08
4.05517e-08
3.0738e-08
1.82785e-08
3.95401e-09
4.37454e-09
9.38032e-09
3.61732e-09
0
0
0
0
0
0
0
0
0
0
0
0
0
2.32151e-10
5.97208e-10
3.74805e-10
1.50135e-10
2.6806e-11
0
0
0
0
0
0
0
0
0
0
0
0
6.59407e-07
1.49235e-06
0
0
0
0
0
0
7.61234e-07
1.4029e-06
1.38923e-06
9.39989e-07
0
0
0
0
3.51595e-06
8.34221e-06
7.60148e-06
5.97297e-06
4.35278e-06
2.93986e-06
2.55452e-06
2.91471e-06
3.15376e-06
2.82842e-06
2.01914e-06
1.19055e-06
6.1594e-07
2.30105e-07
0
0
8.20413e-08
3.22688e-07
3.38394e-07
2.09923e-07
6.78932e-08
0
0
2.7168e-09
3.99277e-08
6.53621e-08
8.10313e-08
7.11985e-08
4.78021e-08
3.6108e-08
3.29277e-08
2.91798e-08
3.13024e-08
3.96351e-08
4.32087e-08
3.50948e-08
1.98983e-08
8.89521e-09
1.04889e-08
2.25065e-08
3.59098e-08
4.48658e-08
4.89694e-08
4.8553e-08
4.58011e-08
5.04438e-08
6.46883e-08
7.07124e-08
6.32297e-08
4.70047e-08
2.46127e-08
1.23091e-08
9.54632e-09
5.01002e-09
0
0
0
0
0
0
0
0
0
0
0
0
0
5.05096e-10
9.12699e-10
6.02726e-10
2.7749e-10
8.54524e-11
1.70075e-12
0
0
0
0
0
0
0
0
0
0
0
0
3.09279e-06
0
0
0
0
0
3.9359e-08
1.22142e-07
0
0
0
0
0
0
0
2.12948e-06
6.25905e-06
6.83985e-06
6.20775e-06
4.76416e-06
2.90983e-06
2.35768e-06
2.67227e-06
3.00543e-06
2.8048e-06
1.7506e-06
4.76814e-07
0
0
0
1.05406e-07
2.88006e-07
3.69853e-07
2.62937e-07
6.99133e-08
0
0
0
7.41144e-08
1.53492e-07
1.78935e-07
1.65e-07
1.07643e-07
2.3859e-08
0
0
2.58431e-08
3.99822e-08
4.78387e-08
5.35939e-08
5.22863e-08
4.06745e-08
2.10972e-08
2.34201e-09
0
0
6.73672e-09
1.84193e-08
2.88434e-08
3.76553e-08
4.99632e-08
6.56361e-08
7.07558e-08
6.28798e-08
4.63813e-08
2.37831e-08
9.31538e-09
3.12552e-09
0
0
0
0
0
0
0
0
0
0
0
0
0
0
9.05153e-10
1.32707e-09
9.09527e-10
4.65003e-10
1.8115e-10
3.99174e-11
0
0
0
0
0
0
0
0
0
0
0
0
0
7.08506e-06
6.57481e-06
3.70569e-06
1.82896e-06
4.00532e-07
0
0
0
0
0
0
0
0
0
1.10504e-06
2.35616e-06