/*--------------------------------*- C++ -*----------------------------------*\
| =========                 |                                                 |
| \\      /  F ield         | OpenFOAM: The Open Source CFD Toolbox           |
|  \\    /   O peration     | Version:  4.1                                   |
|   \\  /    A nd           | Web:      www.OpenFOAM.org                      |
|    \\/     M anipulation  |                                                 |
\*---------------------------------------------------------------------------*/
FoamFile
{
    version     2.0;
    format      ascii;
    class       surfaceScalarField;
    location    "0.2";
    object      phi;
}
// * * * * * * * * * * * * * * * * * * * * * * * * * * * * * * * * * * * * * //

dimensions      [0 3 -1 0 0 0 0];

internalField   nonuniform List<scalar> 
87025
(
0.0203501
8.18598e-05
0.0201595
0.000190616
0.0200126
0.00014686
0.0199378
7.48221e-05
0.0199212
1.66343e-05
0.0199286
-7.44284e-06
0.0199347
-6.113e-06
0.0199306
4.08949e-06
0.0199107
1.99633e-05
0.0198682
4.25197e-05
0.0198033
6.48972e-05
0.0197303
7.29149e-05
0.0196699
6.04439e-05
0.0196318
3.80993e-05
0.0196051
2.67e-05
0.0195662
3.89278e-05
0.0194987
6.75161e-05
0.0194078
9.09073e-05
0.0193141
9.37008e-05
0.0192329
8.11957e-05
0.0191622
7.06976e-05
0.019089
7.31916e-05
0.0190048
8.41641e-05
0.0189143
9.05443e-05
0.0188278
8.64324e-05
0.0187492
7.86309e-05
0.0186703
7.89308e-05
0.0185787
9.15918e-05
0.0184707
0.000107973
0.0183553
0.000115393
0.0182444
0.000110885
0.0181396
0.000104776
0.0180291
0.00011059
0.0178977
0.000131318
0.0177427
0.000155072
0.0175779
0.000164801
0.0174233
0.000154597
0.0172887
0.00013455
0.0171644
0.000124274
0.0170246
0.000139822
0.0168444
0.000180264
0.0166193
0.000225099
0.0163718
0.000247452
0.0161368
0.000234982
0.0159359
0.000200886
0.0157647
0.000171258
0.0155988
0.000165894
0.0154147
0.000184066
0.0152048
0.000209904
0.0149758
0.000228974
0.0147377
0.000238142
0.0144946
0.000243099
0.0142428
0.000251846
0.0139723
0.000270499
0.0136734
0.000298898
0.0133458
0.000327512
0.0130023
0.000343535
0.0126586
0.000343765
0.0123205
0.000338025
0.0119837
0.000336817
0.0116428
0.000340865
0.011293
0.000349832
0.0109182
0.000374804
0.0104921
0.000426099
0.010004
0.000488158
0.00947225
0.000531704
0.00891099
0.000561254
0.00829168
0.000619316
0.00756896
0.000722721
0.00674994
0.000819017
0.00591028
0.000839664
0.00513182
0.000778452
0.00445045
0.000681378
0.00385738
0.000593063
0.00332663
0.000530749
0.00283605
0.00049058
0.00236914
0.000466919
0.00191711
0.000452022
0.00147718
0.000439934
0.00105063
0.000426549
0.0006416
0.000409031
0.000255737
0.000385863
-0.000100993
0.00035673
-0.000422961
0.000321968
-0.000705789
0.000282828
-0.000945973
0.000240183
-0.0011411
0.000195131
-0.00129004
0.000148933
-0.00139229
0.000102249
-0.00144821
5.5928e-05
-0.00145857
1.03555e-05
-0.00142493
-3.36424e-05
-0.00134945
-7.54756e-05
-0.00123557
-0.000113885
-0.00108747
-0.000148096
-0.00090971
-0.00017776
-0.000706943
-0.000202767
-0.000483528
-0.000223415
-0.000244516
-0.000239012
-0.000244516
0.0200461
0.000118283
0.0200915
0.000145255
0.0201448
9.35658e-05
0.0201556
6.39628e-05
0.0201086
6.36259e-05
0.0200506
5.05575e-05
0.0200229
2.1569e-05
0.0200198
7.28393e-06
0.0200108
2.89456e-05
0.0199792
7.41288e-05
0.0199294
0.0001147
0.019872
0.000130254
0.0198158
0.000116708
0.0197706
8.32728e-05
0.0197492
4.80388e-05
0.0197573
3.087e-05
0.0197812
4.35814e-05
0.0197896
8.25928e-05
0.0197538
0.000129432
0.0196734
0.000161629
0.019574
0.000170042
0.019484
0.000163195
0.0194111
0.000157066
0.0193416
0.000160087
0.0192611
0.000166945
0.0191721
0.000167618
0.0190912
0.000159867
0.0190305
0.000152238
0.0189831
0.000155372
0.0189273
0.000171228
0.0188467
0.000191498
0.0187453
0.000206099
0.0186439
0.000212002
0.0185611
0.000214157
0.0184965
0.000219706
0.0184295
0.000231714
0.0183368
0.000247321
0.0182088
0.000262595
0.0180576
0.000275432
0.0179118
0.000285674
0.0177979
0.000294178
0.0177208
0.000302135
0.0176553
0.000312927
0.0175595
0.000330839
0.0174044
0.000355962
0.0171961
0.000379534
0.0169731
0.000388929
0.0167766
0.000380514
0.0166218
0.000364768
0.0164919
0.000358873
0.0163567
0.000373303
0.0161963
0.00040357
0.016012
0.000436078
0.0158214
0.000461085
0.0156426
0.000477689
0.0154821
0.000488073
0.0153321
0.000493504
0.015177
0.000498926
0.014999
0.000516016
0.0147815
0.000554263
0.0145145
0.000607873
0.0142054
0.000658967
0.0138855
0.000694724
0.0135907
0.000720889
0.013326
0.000752867
0.0130583
0.000799342
0.0127572
0.000862367
0.0124319
0.000944571
0.0121113
0.00104337
0.0117955
0.00113484
0.0114546
0.00118059
0.0110576
0.0011754
0.0106068
0.00113216
0.0101287
0.00107121
0.00965108
0.00100834
0.00918502
0.000956645
0.00873133
0.000920607
0.00828092
0.000902429
0.00782403
0.000896826
0.00735549
0.000895089
0.00687533
0.000889185
0.00638704
0.000874156
0.00589602
0.000847748
0.00540666
0.000811335
0.00492269
0.000766798
0.004448
0.000714876
0.00398615
0.00065698
0.00354054
0.000594535
0.00311386
0.000528936
0.00270822
0.000461566
0.00232495
0.000393623
0.00196522
0.000326084
0.00162993
0.000259818
0.0013204
0.000195641
0.00103807
0.000134238
0.000783793
7.65178e-05
0.000556886
2.41401e-05
0.000354749
-2.12775e-05
0.000170998
-5.52612e-05
-7.3518e-05
0.0205966
0.00056509
0.0203873
0.000354586
0.0203051
0.0001757
0.0202286
0.000140508
0.0201384
0.000153864
0.0200594
0.000129477
0.0200007
8.0293e-05
0.0199481
5.99187e-05
0.0198983
7.87001e-05
0.0198652
0.000107272
0.0198538
0.000126051
0.0198428
0.000141312
0.0198013
0.000158182
0.0197219
0.000162679
0.0196303
0.000139662
0.0195619
9.92438e-05
0.0195317
7.37744e-05
0.0195271
8.71766e-05
0.0195234
0.000133112
0.0195031
0.000181936
0.0194645
0.000208676
0.0194154
0.000212248
0.0193618
0.000210675
0.0193009
0.000220994
0.0192233
0.000244602
0.0191207
0.000270158
0.0189939
0.000286648
0.0188544
0.000291801
0.0187199
0.000289811
0.018606
0.000285157
0.0185172
0.000280322
0.0184459
0.000277435
0.0183774
0.000280486
0.0182975
0.000294078
0.0181979
0.000319274
0.0180784
0.000351192
0.0179448
0.000380925
0.0178067
0.000400718
0.0176731
0.000409056
0.0175481
0.000410598
0.0174318
0.000410546
0.0173228
0.000411094
0.0172203
0.000415399
0.0171191
0.000432034
0.017007
0.000468068
0.0168695
0.000517093
0.0166999
0.000558537
0.0165067
0.000573675
0.0163082
0.0005633
0.0161181
0.000548932
0.0159364
0.000555001
0.0157514
0.00058857
0.0155517
0.000635797
0.015337
0.000675743
0.0151196
0.000695175
0.0149146
0.000693038
0.0147297
0.000678401
0.0145609
0.000667686
0.0143981
0.000678819
0.0142321
0.000720339
0.0140567
0.000783202
0.0138682
0.000847448
0.0136639
0.000899023
0.0134455
0.000939307
0.0132204
0.000978036
0.0129974
0.0010223
0.0127843
0.00107547
0.0125878
0.0011411
0.0124122
0.00121894
0.0122514
0.00129566
0.012079
0.00135298
0.0118762
0.00137817
0.0116373
0.00137108
0.0113683
0.00134015
0.0110816
0.00129508
0.0107881
0.00125013
0.0104892
0.00121952
0.0101807
0.00121092
0.00985626
0.00122128
0.00951136
0.00123999
0.00914448
0.00125607
0.00875636
0.00126228
0.00834824
0.00125587
0.00792193
0.00123764
0.00747933
0.0012094
0.00702174
0.00117247
0.00655041
0.00112831
0.00606658
0.00107837
0.00557158
0.00102393
0.00506694
0.000966205
0.00455434
0.000906228
0.00403569
0.000844734
0.00351381
0.000781696
0.00299106
0.000718394
0.00247071
0.000654587
0.00195655
0.000590677
0.00145213
0.000528556
0.000959067
0.000471788
0.000476089
0.000427716
0.000402571
0.0199005
0.000292687
0.0200606
0.000194503
0.0200743
0.000162013
0.0200517
0.000163151
0.0200482
0.000157307
0.0200576
0.000120086
0.0200585
7.94004e-05
0.0200414
7.7016e-05
0.0200128
0.00010733
0.019984
0.000136084
0.0199616
0.000148375
0.0199434
0.000159583
0.0199195
0.000182043
0.0198784
0.000203833
0.0198128
0.000205215
0.0197257
0.000186394
0.0196294
0.000170015
0.0195393
0.000177317
0.0194644
0.00020799
0.0194031
0.000243225
0.0193466
0.000265236
0.0192869
0.000271851
0.0192227
0.000274878
0.0191556
0.000288156
0.0190831
0.00031709
0.0189976
0.000355694
0.018894
0.000390255
0.0187786
0.000407124
0.018667
0.000401391
0.018571
0.000381188
0.0184882
0.00036312
0.0184048
0.000360886
0.018309
0.000376241
0.0182028
0.00040026
0.0180988
0.000423287
0.0180067
0.000443271
0.017923
0.000464684
0.0178326
0.000491144
0.0177212
0.000520414
0.0175861
0.000545734
0.0174357
0.000560882
0.0172817
0.00056507
0.0171316
0.000565547
0.016988
0.000575595
0.0168499
0.000606179
0.0167115
0.000655549
0.0165633
0.000706735
0.0163982
0.000738786
0.0162173
0.000744179
0.01603
0.000736238
0.0158464
0.000738554
0.0156692
0.000765769
0.0154918
0.000813265
0.0153045
0.000862978
0.0151026
0.000897062
0.0148876
0.000908041
0.0146644
0.000901636
0.0144388
0.000893298
0.0142177
0.000899942
0.014007
0.000931014
0.0138049
0.00098531
0.0135975
0.00105481
0.0133668
0.0011297
0.0131067
0.00119943
0.0128309
0.0012539
0.0125632
0.00128997
0.0123224
0.00131625
0.012115
0.00134854
0.011937
0.00139689
0.0117752
0.00145746
0.0116143
0.00151394
0.0114418
0.00155068
0.0112527
0.0015601
0.0110509
0.00154195
0.0108397
0.00150632
0.0106193
0.00147054
0.0103879
0.00145094
0.0101437
0.00145508
0.00988587
0.00147911
0.00961302
0.00151284
0.00932381
0.00154528
0.00901699
0.00156909
0.00869145
0.00158141
0.00834653
0.00158256
0.00798176
0.00157417
0.00759627
0.00155796
0.00718916
0.00153541
0.00675968
0.00150785
0.00630718
0.00147643
0.00583119
0.0014422
0.00533149
0.00140592
0.00480822
0.00136801
0.00426144
0.00132847
0.0036928
0.00128704
0.00310452
0.00124286
0.00249988
0.00119532
0.00188297
0.00114546
0.00125813
0.00109663
0.000629045
0.0010568
0.00103162
0.0199905
1.69936e-05
0.0200703
0.000114744
0.0200695
0.000162857
0.0201015
0.000131129
0.0201289
0.000129885
0.0200999
0.000149064
0.0200304
0.000148969
0.0199641
0.000143243
0.0199189
0.000152518
0.0198863
0.000168732
0.0198542
0.000180432
0.0198221
0.0001917
0.0197917
0.000212417
0.0197576
0.00023794
0.0197103
0.000252537
0.0196463
0.000250429
0.0195711
0.000245238
0.0194935
0.000254875
0.0194205
0.000280944
0.0193567
0.000307116
0.0193047
0.00031721
0.0192647
0.000311803
0.0192323
0.000307267
0.0191992
0.000321263
0.019157
0.000359354
0.0191004
0.00041229
0.0190278
0.000462805
0.0189393
0.000495628
0.0188357
0.000504995
0.0187203
0.000496583
0.0186003
0.000483139
0.0184847
0.000476515
0.0183793
0.000481596
0.0182831
0.000496459
0.0181887
0.000517722
0.0180871
0.000544902
0.0179728
0.000578973
0.017846
0.000617879
0.0177107
0.000655723
0.0175697
0.000686744
0.0174219
0.000708728
0.0172643
0.000722611
0.0170985
0.000731403
0.0169326
0.000741418
0.0167768
0.000762042
0.0166334
0.000798923
0.0164943
0.000845893
0.0163463
0.000886769
0.0161813
0.000909131
0.016001
0.000916552
0.0158144
0.000925189
0.0156321
0.00094808
0.0154606
0.000984704
0.0152978
0.00102575
0.0151308
0.00106408
0.0149406
0.00109826
0.0147139
0.0011283
0.014454
0.00115325
0.0141795
0.00117441
0.0139123
0.00119825
0.0136633
0.00123433
0.0134284
0.00128965
0.0131949
0.00136326
0.0129509
0.00144342
0.0126929
0.00151183
0.0124273
0.00155565
0.0121653
0.00157816
0.0119167
0.00159721
0.0116839
0.00162971
0.0114638
0.00167755
0.0112507
0.00172702
0.0110414
0.00175993
0.0108356
0.00176594
0.0106305
0.00174705
0.0104201
0.00171668
0.0101982
0.00169243
0.00996204
0.00168715
0.00971278
0.00170433
0.00945321
0.00173868
0.00918545
0.0017806
0.00890977
0.00182097
0.00862487
0.00185399
0.0083288
0.00187748
0.00801958
0.00189178
0.00769543
0.00189833
0.00735452
0.00189886
0.00699502
0.00189491
0.00661519
0.00188767
0.00621325
0.00187837
0.00578733
0.00186812
0.00533553
0.00185772
0.00485596
0.00184758
0.00434695
0.00183748
0.00380732
0.00182666
0.00323645
0.00181374
0.00263482
0.00179696
0.00200474
0.00177555
0.00135069
0.00175067
0.000679315
0.00172818
0.00171093
0.0199808
-2.61063e-05
0.0200129
8.26865e-05
0.0200326
0.000143116
0.0200403
0.000123491
0.0200444
0.000125794
0.0200426
0.000150863
0.0200255
0.000166027
0.0200031
0.000165633
0.0199759
0.000179711
0.0199301
0.000214519
0.0198583
0.000252279
0.0197755
0.000274482
0.0197111
0.000276817
0.0196821
0.000266968
0.0196777
0.00025691
0.0196697
0.000258408
0.0196376
0.000277358
0.0195848
0.000307732
0.0195306
0.000335112
0.0194879
0.00034979
0.0194488
0.000356354
0.0193921
0.000368497
0.0193045
0.000394795
0.0191941
0.000431691
0.0190837
0.000469808
0.0189923
0.000503626
0.0189216
0.000533564
0.0188571
0.000560066
0.0187831
0.000578978
0.0186952
0.000584529
0.0186015
0.000576809
0.0185127
0.000565376
0.0184296
0.000564622
0.0183415
0.000584619
0.0182342
0.000625021
0.0181029
0.000676195
0.0179562
0.000725644
0.0178093
0.000764766
0.0176728
0.000792275
0.0175463
0.000813262
0.0174204
0.000834592
0.0172837
0.000859328
0.0171302
0.000884872
0.0169642
0.000907415
0.016798
0.000928244
0.0166433
0.000953636
0.0165019
0.000987309
0.0163638
0.00102483
0.0162149
0.00105809
0.0160466
0.00108482
0.0158609
0.00111092
0.0156666
0.00114238
0.0154732
0.00117811
0.015285
0.0012139
0.0150979
0.00125117
0.0148995
0.00129671
0.0146758
0.00135196
0.0144224
0.00140665
0.0141494
0.00144742
0.0138762
0.0014715
0.0136197
0.00149082
0.013386
0.00152327
0.0131695
0.00157978
0.0129564
0.00165653
0.0127314
0.00173689
0.0124851
0.0018019
0.0122201
0.00184317
0.0119491
0.00186818
0.0116862
0.00189265
0.0114377
0.00192609
0.011201
0.00196362
0.0109697
0.00199132
0.0107367
0.00199892
0.0104958
0.00198796
0.0102419
0.0019706
0.00997258
0.00196171
0.00968918
0.00197055
0.00939591
0.00199761
0.00909777
0.00203682
0.00879824
0.00208013
0.00849821
0.002121
0.00819645
0.00215575
0.00789069
0.00218325
0.0075785
0.00220396
0.00725771
0.00221912
0.00692642
0.00223015
0.00658278
0.00223856
0.00622474
0.00224572
0.00585018
0.00225294
0.00545679
0.0022615
0.00504203
0.00227249
0.00460308
0.00228652
0.00413692
0.00230364
0.00364052
0.00232306
0.00311121
0.00234305
0.0025473
0.00236087
0.001949
0.00237385
0.00131955
0.00238012
0.000665898
0.00238183
0.00237683
0.0203302
0.000139697
0.0202035
0.000209366
0.0201413
0.000205297
0.0200822
0.000182613
0.0200332
0.000174777
0.0200074
0.000176716
0.0199967
0.000176754
0.0199807
0.000181626
0.019957
0.000203377
0.0199255
0.000246017
0.0198846
0.00029316
0.0198351
0.000324033
0.019784
0.000327918
0.0197411
0.000309854
0.0197085
0.000289461
0.019677
0.000289913
0.0196338
0.000320567
0.0195739
0.000367617
0.0195041
0.00040497
0.019436
0.000417885
0.0193764
0.000415897
0.0193225
0.000422428
0.0192644
0.000452891
0.019193
0.000503118
0.0191062
0.00055657
0.019011
0.000598813
0.0189194
0.00062517
0.0188403
0.000639198
0.018772
0.000647312
0.018702
0.000654484
0.0186159
0.000662934
0.0185077
0.000673585
0.0183838
0.000688488
0.0182569
0.000711492
0.018136
0.000745927
0.0180208
0.000791447
0.0179033
0.000843113
0.0177751
0.000893022
0.0176343
0.000933015
0.0174896
0.000957952
0.0173551
0.000969162
0.0172389
0.000975467
0.0171347
0.00098914
0.0170237
0.00101838
0.01689
0.00106195
0.016733
0.00111057
0.0165662
0.00115415
0.0164025
0.00118858
0.0162431
0.00121748
0.0160794
0.00124851
0.0159024
0.00128794
0.0157083
0.00133642
0.0154979
0.00138852
0.0152748
0.00143705
0.0150466
0.00147934
0.0148239
0.00151944
0.0146129
0.00156296
0.0144097
0.0016098
0.0142034
0.0016537
0.0139853
0.00168964
0.013755
0.00172112
0.0135187
0.00175957
0.0132824
0.00181602
0.0130473
0.00189172
0.012809
0.0019752
0.0125621
0.0020488
0.0123048
0.00210043
0.0120413
0.00213165
0.0117791
0.00215491
0.0115232
0.00218193
0.0112729
0.00221398
0.0110215
0.00224264
0.0107612
0.0022593
0.0104854
0.00226375
0.0101913
0.0022647
0.00987981
0.00227317
0.00955508
0.00229528
0.00922282
0.00232987
0.00888843
0.00237121
0.00855542
0.00241314
0.00822484
0.00245158
0.00789574
0.00248485
0.00756615
0.00251283
0.00723395
0.00253617
0.00689722
0.00255584
0.00655437
0.00257301
0.00620394
0.00258898
0.0058445
0.00260517
0.00547434
0.00262309
0.00509151
0.00264433
0.00469364
0.00267036
0.00427797
0.00270219
0.00384128
0.00274033
0.00338001
0.00278433
0.00289054
0.00283252
0.0023698
0.00288161
0.00181634
0.00292731
0.00123192
0.00296454
0.000622466
0.00299128
0.0029993
0.0199694
0.000382458
0.0199773
0.000201433
0.0200604
0.000122198
0.0201017
0.000141352
0.0200819
0.000194555
0.0200392
0.00021945
0.0199941
0.000221863
0.0199447
0.000231012
0.0198939
0.000254115
0.0198634
0.000276588
0.0198634
0.000293147
0.0198757
0.000311676
0.0198671
0.000336527
0.0198184
0.000358536
0.0197396
0.000368264
0.0196559
0.00037362
0.0195835
0.000392994
0.01952
0.00043111
0.0194554
0.000469594
0.0193873
0.000485983
0.019324
0.000479148
0.0192744
0.000472063
0.0192372
0.00049012
0.0192013
0.000538992
0.0191555
0.000602337
0.0190968
0.000657559
0.0190298
0.000692123
0.0189605
0.000708499
0.0188896
0.000718254
0.0188116
0.000732479
0.0187191
0.000755435
0.0186082
0.000784523
0.0184815
0.000815167
0.0183474
0.000845564
0.0182162
0.000877158
0.0180958
0.000911821
0.0179891
0.000949786
0.0178924
0.0009898
0.0177959
0.00102947
0.0176888
0.00106509
0.0175646
0.00109328
0.0174248
0.00111534
0.0172743
0.00113962
0.0171164
0.00117628
0.0169511
0.00122726
0.0167796
0.00128203
0.0166076
0.00132621
0.0164407
0.00135543
0.0162784
0.00137982
0.0161126
0.00141426
0.0159353
0.00146525
0.0157442
0.00152749
0.015542
0.00159079
0.0153311
0.00164788
0.0151138
0.00169665
0.0148945
0.00173876
0.0146791
0.00177837
0.0144687
0.00182018
0.0142568
0.00186557
0.0140353
0.00191117
0.0138022
0.00195418
0.013562
0.0019998
0.0133182
0.00205979
0.0130699
0.00214009
0.0128146
0.00223042
0.0125545
0.00230897
0.0122953
0.00235961
0.0120419
0.00238503
0.0117937
0.00240307
0.0115453
0.00243036
0.0112899
0.00246942
0.0110224
0.00251011
0.0107403
0.00254138
0.0104428
0.00256125
0.0101302
0.00257727
0.00980401
0.00259941
0.00946672
0.00263256
0.0091219
0.0026747
0.00877307
0.00272004
0.00842286
0.00276335
0.00807247
0.00280197
0.00772181
0.00283551
0.00736996
0.00286467
0.00701579
0.00289034
0.0066582
0.00291343
0.0062963
0.00293492
0.00592929
0.00295598
0.00555642
0.00297804
0.00517677
0.00300274
0.00478922
0.00303188
0.00439233
0.00306725
0.00398406
0.00311047
0.0035617
0.00316269
0.00312204
0.00322398
0.00266156
0.00329301
0.00217686
0.00336631
0.00166571
0.00343845
0.00112862
0.00350163
0.000569941
0.00354996
0.00356924
0.0198733
0.000112181
0.0200216
5.31742e-05
0.0200517
9.21155e-05
0.0200289
0.000164136
0.0199985
0.000224898
0.0199729
0.000245075
0.0199579
0.000236886
0.0199381
0.00025081
0.0198999
0.000292334
0.0198538
0.000322657
0.0198208
0.000326181
0.0198025
0.000329933
0.01978
0.000359054
0.0197362
0.000402273
0.0196754
0.000429105
0.0196194
0.000429666
0.0195872
0.000425155
0.0195789
0.000439399
0.019577
0.000471507
0.0195607
0.000502306
0.0195182
0.00052163
0.0194496
0.000540657
0.0193634
0.000576309
0.0192729
0.000629509
0.0191919
0.000683318
0.0191288
0.000720721
0.0190797
0.000741173
0.0190294
0.000758753
0.0189608
0.000786909
0.018866
0.000827303
0.0187494
0.000871954
0.0186215
0.00091251
0.0184906
0.000946015
0.0183622
0.00097395
0.0182406
0.000998805
0.0181297
0.00102273
0.0180308
0.00104865
0.0179397
0.00108091
0.0178461
0.0011231
0.0177373
0.00117387
0.0176048
0.00122575
0.0174497
0.00127044
0.0172824
0.00130695
0.0171157
0.00134299
0.0169566
0.0013863
0.0168036
0.00143506
0.0166499
0.00147985
0.0164893
0.0015161
0.0163171
0.00155196
0.0161308
0.00160056
0.0159312
0.00166493
0.0157251
0.00173358
0.0155234
0.00179247
0.0153323
0.00183898
0.015147
0.00188194
0.0149556
0.00193018
0.0147493
0.00198467
0.0145283
0.00204122
0.0142979
0.00209589
0.0140629
0.00214618
0.013825
0.00219209
0.0135843
0.00224052
0.0133391
0.00230494
0.0130862
0.00239304
0.0128239
0.00249274
0.0125569
0.00257594
0.0122948
0.00262169
0.0120438
0.0026361
0.0117996
0.00264724
0.0115501
0.00267989
0.0112837
0.00273578
0.0109969
0.00279687
0.0106939
0.00284439
0.0103811
0.00287409
0.0100622
0.00289619
0.00973737
0.00292421
0.00940528
0.00296465
0.00906505
0.00301493
0.00871707
0.00306801
0.00836259
0.00311782
0.00800289
0.00316167
0.00763882
0.00319959
0.00727073
0.00323276
0.00689862
0.00326245
0.00652234
0.00328971
0.00614174
0.00331552
0.00575669
0.00334103
0.00536707
0.00336766
0.00497274
0.00339708
0.0045734
0.00343122
0.0041685
0.00347216
0.00375705
0.00352191
0.00333757
0.00358218
0.00290782
0.00365373
0.00246494
0.00373588
0.00200598
0.00382527
0.00152862
0.00391581
0.00103252
0.00399773
0.000520364
0.00406212
0.0040896
0.0196752
-0.000168964
0.0198472
-0.000118815
0.0199176
2.17532e-05
0.01996
0.000121663
0.0199907
0.00019419
0.0200058
0.000229975
0.0199889
0.000253792
0.0199528
0.000286948
0.0199244
0.000320714
0.0199092
0.000337866
0.019893
0.000342362
0.0198646
0.000358346
0.0198261
0.000397521
0.0197866
0.000441806
0.0197493
0.000466447
0.0197092
0.00046971
0.0196625
0.000471896
0.0196118
0.00049005
0.0195619
0.000521401
0.019512
0.000552272
0.0194563
0.000577346
0.0193915
0.00060546
0.0193205
0.000647216
0.0192493
0.000700755
0.0191804
0.000752208
0.019111
0.000790119
0.0190355
0.000816736
0.0189499
0.000844346
0.0188544
0.000882341
0.0187523
0.000929442
0.0186469
0.000977358
0.0185404
0.00101901
0.0184343
0.00105212
0.0183307
0.00107748
0.0182322
0.00109731
0.0181388
0.00111614
0.0180463
0.00114121
0.0179474
0.00117983
0.0178358
0.00123464
0.0177091
0.00130058
0.0175688
0.0013661
0.0174197
0.0014195
0.0172694
0.0014573
0.017125
0.00148738
0.0169887
0.00152262
0.016854
0.00156973
0.0167092
0.00162469
0.0165455
0.00167978
0.0163638
0.00173366
0.0161725
0.00179188
0.0159801
0.00185733
0.0157899
0.00192374
0.0156004
0.00198195
0.0154081
0.00203132
0.0152088
0.0020812
0.0149986
0.00214035
0.0147758
0.00220753
0.0145432
0.0022738
0.0143074
0.00233166
0.0140734
0.00238024
0.0138405
0.00242498
0.0136045
0.00247647
0.0133623
0.00254719
0.0131142
0.00264117
0.0128634
0.00274353
0.0126136
0.00282568
0.0123664
0.00286892
0.0121185
0.00288405
0.0118618
0.00290386
0.0115879
0.00295378
0.0112935
0.00303026
0.0109831
0.00310723
0.0106662
0.0031613
0.01035
0.00319029
0.0100356
0.00321063
0.00971881
0.00324097
0.00939446
0.00328899
0.00905924
0.00335016
0.00871247
0.00341478
0.00835522
0.00347507
0.00798914
0.00352775
0.00761568
0.00357304
0.0072359
0.00361255
0.00685042
0.00364793
0.00645962
0.0036805
0.00606379
0.00371135
0.00566321
0.00374162
0.0052582
0.00377266
0.00484915
0.00380613
0.00443643
0.00384394
0.0040203
0.00388828
0.00360078
0.00394144
0.00317745
0.0040055
0.00274936
0.00408183
0.00231491
0.00417033
0.00187203
0.00426815
0.00141871
0.00436914
0.000954147
0.00446229
0.000479492
0.00453678
0.00456909
0.0200876
-0.000119311
0.0199966
-2.77698e-05
0.0199396
7.87942e-05
0.0199459
0.000115343
0.0199927
0.00014736
0.020016
0.000206645
0.0199896
0.000280259
0.0199424
0.000334126
0.0199098
0.000353348
0.0198962
0.000351385
0.0198811
0.000357462
0.0198537
0.000385757
0.0198271
0.000424154
0.0198155
0.000453444
0.0198119
0.000470046
0.0197942
0.000487404
0.0197482
0.000517851
0.0196801
0.000558192
0.0196065
0.000594987
0.0195381
0.000620686
0.0194737
0.000641709
0.0194077
0.000671496
0.0193374
0.000717487
0.0192631
0.000775058
0.019183
0.000832335
0.0190938
0.000879263
0.0189969
0.000913697
0.0189003
0.000940903
0.0188137
0.000968937
0.0187391
0.00100409
0.0186679
0.00104855
0.0185869
0.00109996
0.0184869
0.00115213
0.018367
0.00119738
0.0182337
0.0012306
0.0180973
0.00125258
0.0179684
0.00127009
0.0178551
0.00129319
0.0177586
0.00133113
0.017671
0.00138814
0.017577
0.00146006
0.0174617
0.00153488
0.0173195
0.00159948
0.0171579
0.00164894
0.0169905
0.00169005
0.0168256
0.00173462
0.0166613
0.001789
0.0164901
0.00185101
0.0163082
0.00191552
0.0161201
0.00197996
0.0159338
0.00204367
0.0157522
0.00210533
0.0155699
0.00216423
0.0153781
0.0022231
0.0151733
0.00228605
0.0149603
0.00235337
0.0147472
0.0024206
0.0145375
0.00248344
0.0143276
0.00254156
0.0141109
0.00259701
0.0138838
0.0026521
0.0136484
0.0027118
0.0134107
0.0027849
0.0131762
0.00287574
0.0129467
0.00297301
0.0127192
0.0030531
0.0124866
0.00310155
0.0122397
0.003131
0.0119709
0.00317268
0.0116778
0.00324685
0.0113652
0.0033428
0.0110435
0.00342897
0.0107228
0.00348198
0.0104077
0.00350538
0.0100954
0.003523
0.00977859
0.00355774
0.00945097
0.00361661
0.00910956
0.00369157
0.00875481
0.00376954
0.00838881
0.00384107
0.00801373
0.00390283
0.00763109
0.00395568
0.00724176
0.00400188
0.00684621
0.00404348
0.00644473
0.00408198
0.00603759
0.00411849
0.00562514
0.00415406
0.0052079
0.00418991
0.00478652
0.00422751
0.00436178
0.00426868
0.00393455
0.00431551
0.00350564
0.00437035
0.00307561
0.00443553
0.00264463
0.00451281
0.00221231
0.00460266
0.00177767
0.00470279
0.00133942
0.00480739
0.000896621
0.00490508
0.000449179
0.00498422
0.00501827
0.0201103
-0.000172144
0.020129
-4.64594e-05
0.0201343
7.34861e-05
0.0201064
0.000143216
0.0200675
0.00018624
0.0200322
0.000241975
0.0200137
0.000298718
0.0200157
0.000332136
0.0200252
0.000343876
0.0200207
0.000355918
0.0199932
0.00038494
0.0199477
0.000431208
0.0198914
0.000480449
0.0198279
0.000516944
0.0197602
0.000537829
0.0196935
0.000554016
0.019634
0.000577351
0.0195826
0.000609599
0.0195328
0.000644831
0.0194742
0.000679285
0.0194005
0.000715406
0.0193151
0.000756902
0.0192295
0.000803045
0.0191559
0.000848726
0.0190984
0.000889812
0.0190508
0.000926877
0.0190008
0.000963701
0.018938
0.00100367
0.018859
0.00104797
0.018767
0.00109604
0.0186691
0.00114643
0.0185719
0.00119715
0.0184782
0.00124582
0.0183853
0.00129033
0.0182862
0.00132968
0.0181745
0.0013643
0.0180488
0.00139575
0.017915
0.001427
0.017783
0.00146316
0.0176606
0.0015106
0.0175476
0.00157297
0.0174357
0.00164683
0.0173131
0.00172211
0.0171729
0.00178909
0.0170171
0.00184581
0.0168535
0.00189823
0.0166889
0.00195367
0.0165243
0.00201554
0.0163564
0.00208347
0.0161813
0.00215506
0.015999
0.00222598
0.0158128
0.00229153
0.0156252
0.00235181
0.0154347
0.00241359
0.0152376
0.00248316
0.0150333
0.00255764
0.0148267
0.00262726
0.0146228
0.00268733
0.0144206
0.00274379
0.0142128
0.00280475
0.013994
0.00287093
0.0137665
0.00293931
0.0135384
0.00301302
0.0133149
0.00309916
0.0130932
0.00319475
0.0128641
0.0032822
0.0126192
0.00334642
0.0123551
0.00339508
0.0120729
0.00345497
0.0117753
0.00354443
0.0114663
0.00365174
0.0111511
0.00374422
0.0108344
0.00379862
0.0105185
0.00382137
0.0102007
0.00384077
0.00987563
0.0038828
0.00953807
0.00395416
0.00918592
0.00404373
0.00882033
0.00413512
0.0084441
0.0042173
0.00805977
0.00428716
0.00766885
0.0043466
0.00727188
0.00439885
0.0068689
0.00444646
0.00645985
0.00449103
0.00604479
0.00453355
0.00562396
0.00457489
0.00519784
0.00461603
0.00476717
0.00465818
0.00433293
0.00470291
0.00389632
0.00475212
0.00345868
0.00480799
0.00302132
0.00487289
0.00258534
0.00494879
0.00215137
0.00503662
0.00171947
0.0051347
0.00128905
0.0052378
0.000859294
0.00533484
0.000429276
0.00541424
0.00544755
0.0201147
-0.000154995
0.0200074
6.08417e-05
0.0199488
0.00013211
0.0199581
0.00013393
0.0199847
0.000159642
0.019984
0.00024259
0.0199484
0.000334379
0.0199002
0.000380369
0.0198656
0.000378433
0.0198556
0.00036588
0.0198592
0.000381325
0.0198567
0.000433749
0.0198335
0.00050368
0.0197868
0.000563579
0.0197262
0.000598519
0.0196658
0.000614346
0.0196144
0.000628779
0.0195694
0.000654618
0.019523
0.000691201
0.0194717
0.00073058
0.0194182
0.000768921
0.0193654
0.000809693
0.0193114
0.000857092
0.0192505
0.000909604
0.0191798
0.000960466
0.0191026
0.00100407
0.0190253
0.00104105
0.0189507
0.00107823
0.0188748
0.00112392
0.0187893
0.00118154
0.0186898
0.00124588
0.0185813
0.00130574
0.0184751
0.00135199
0.0183806
0.00138484
0.0182965
0.00141377
0.0182107
0.0014501
0.0181076
0.00149885
0.0179779
0.00155662
0.017825
0.00161614
0.0176629
0.00167266
0.017509
0.00172681
0.0173737
0.00178218
0.0172546
0.00184123
0.0171397
0.00190397
0.017016
0.0019695
0.016877
0.00203721
0.0167244
0.00210628
0.016564
0.00217599
0.0164002
0.00224723
0.0162335
0.00232175
0.0160612
0.00239832
0.0158811
0.00247163
0.0156945
0.00253836
0.0155048
0.00260331
0.0153131
0.00267482
0.0151176
0.00275316
0.0149167
0.00282821
0.0147121
0.00289195
0.0145064
0.00294947
0.0142985
0.00301262
0.0140842
0.00308518
0.0138623
0.00316127
0.0136369
0.00323837
0.0134127
0.00332344
0.0131865
0.00342091
0.0129484
0.0035203
0.0126898
0.00360497
0.0124115
0.00367342
0.0121218
0.00374466
0.011829
0.00383723
0.0115353
0.00394544
0.0112378
0.00404172
0.0109329
0.00410348
0.0106192
0.00413514
0.0102961
0.00416383
0.00996266
0.00421626
0.0096169
0.00429993
0.0092577
0.00440292
0.00888592
0.0045069
0.00850388
0.00459934
0.00811399
0.00467705
0.00771777
0.00474282
0.00731573
0.00480089
0.00690778
0.00485441
0.00649369
0.00490512
0.00607335
0.00495389
0.00564689
0.00500135
0.00521471
0.0050482
0.00477752
0.00509537
0.00433634
0.0051441
0.0038925
0.00519596
0.00344761
0.00525288
0.00300345
0.00531705
0.00256177
0.00539048
0.00212401
0.00547438
0.00169108
0.00556763
0.00126306
0.00566582
0.000839291
0.00575861
0.000418418
0.00583511
0.00586597
0.0202258
0.000128498
0.0202097
7.69099e-05
0.0201804
0.000161404
0.0201066
0.000207743
0.0200308
0.000235427
0.020004
0.00026943
0.0200266
0.000311766
0.0200612
0.000345789
0.0200688
0.000370766
0.0200342
0.000400507
0.0199748
0.000440769
0.0199182
0.000490301
0.0198735
0.000548395
0.0198254
0.000611645
0.0197558
0.000668175
0.0196664
0.000703726
0.0195788
0.000716369
0.0195124
0.000721053
0.0194673
0.000736306
0.0194295
0.000768361
0.0193877
0.000810667
0.019341
0.00085639
0.0192917
0.000906395
0.0192366
0.000964735
0.0191675
0.00102961
0.0190804
0.0010911
0.0189824
0.00113905
0.0188873
0.0011734
0.0188049
0.00120628
0.0187339
0.00125256
0.0186632
0.00131655
0.0185815
0.00138745
0.0184847
0.0014488
0.0183767
0.00149284
0.0182645
0.00152593
0.0181538
0.00156082
0.018047
0.00160564
0.0179429
0.0016607
0.0178359
0.00172313
0.0177175
0.00179107
0.0175817
0.0018626
0.0174306
0.00193327
0.0172739
0.00199793
0.0171222
0.00205571
0.0169797
0.00211196
0.0168429
0.002174
0.0167043
0.0022449
0.0165581
0.00232223
0.0164031
0.00240218
0.0162417
0.00248322
0.0160755
0.00256453
0.0159039
0.00264318
0.015726
0.00271625
0.0155436
0.00278573
0.0153607
0.00285771
0.0151794
0.00293448