/*--------------------------------*- C++ -*----------------------------------*\
| =========                 |                                                 |
| \\      /  F ield         | OpenFOAM: The Open Source CFD Toolbox           |
|  \\    /   O peration     | Version:  4.1                                   |
|   \\  /    A nd           | Web:      www.OpenFOAM.org                      |
|    \\/     M anipulation  |                                                 |
\*---------------------------------------------------------------------------*/
FoamFile
{
    version     2.0;
    format      ascii;
    class       surfaceScalarField;
    location    "0.2";
    object      phi_0;
}
// * * * * * * * * * * * * * * * * * * * * * * * * * * * * * * * * * * * * * //

dimensions      [0 3 -1 0 0 0 0];

internalField   nonuniform List<scalar> 
87025
(
0.0203695
0.000135547
0.0201585
0.000210994
0.0200053
0.000153266
0.0199283
7.70217e-05
0.0199106
1.76932e-05
0.019917
-6.39409e-06
0.0199222
-5.26547e-06
0.0199175
4.68376e-06
0.0198971
2.04551e-05
0.0198542
4.29004e-05
0.019789
6.51392e-05
0.0197161
7.2984e-05
0.0196557
6.03697e-05
0.0196177
3.79681e-05
0.0195911
2.66055e-05
0.0195522
3.88962e-05
0.0194847
6.74857e-05
0.0193939
9.07931e-05
0.0193005
9.3481e-05
0.0192195
8.09301e-05
0.0191491
7.04589e-05
0.0190761
7.29985e-05
0.0189921
8.39759e-05
0.0189018
9.03153e-05
0.0188156
8.61645e-05
0.0187372
7.83695e-05
0.0186585
7.87157e-05
0.0185671
9.14147e-05
0.0184593
0.000107784
0.0183442
0.000115156
0.0182336
0.000110616
0.018129
0.00010453
0.0180186
0.000110405
0.0178874
0.000131176
0.0177325
0.000154908
0.017568
0.000164564
0.0174137
0.000154298
0.0172794
0.000134251
0.0171554
0.000124052
0.0170157
0.000139708
0.0168355
0.000180213
0.0166104
0.000225011
0.0163632
0.00024725
0.0161285
0.000234669
0.015928
0.000200544
0.015757
0.000170976
0.0155913
0.000165711
0.0154073
0.000183944
0.0151976
0.000209782
0.0149687
0.000228817
0.0147308
0.000237958
0.0144879
0.000242914
0.0142362
0.000251686
0.0139658
0.000270374
0.013667
0.000298789
0.0133396
0.000327381
0.0129963
0.000343354
0.0126527
0.000343546
0.0123149
0.000337805
0.0119783
0.000336614
0.0116376
0.000340679
0.011288
0.000349671
0.0109133
0.000374693
0.0104873
0.000426027
0.0099992
0.000488063
0.00946765
0.000531549
0.00890655
0.000561097
0.00828732
0.000619231
0.00756465
0.000722669
0.00674577
0.000818877
0.00590639
0.000839382
0.0051283
0.000778094
0.00444727
0.000681031
0.0038545
0.000592771
0.00332399
0.000530509
0.00283361
0.000490377
0.00236686
0.000466745
0.001915
0.000451866
0.00147521
0.00043979
0.0010488
0.000426413
0.000639896
0.0004089
0.000254157
0.000385739
-0.000102455
0.000356612
-0.000424312
0.000321856
-0.000707035
0.000282723
-0.000947119
0.000240084
-0.00114216
0.000195037
-0.001291
0.000148843
-0.00139316
0.000102162
-0.001449
5.58436e-05
-0.00145928
1.02736e-05
-0.00142556
-3.37225e-05
-0.00135
-7.55547e-05
-0.00123604
-0.000113964
-0.00108786
-0.000148175
-0.000910023
-0.000177839
-0.000707177
-0.000202845
-0.000483684
-0.000223493
-0.000244594
-0.00023909
-0.000244594
0.020009
0.000128073
0.0200771
0.000142949
0.0201356
9.47224e-05
0.020146
6.66628e-05
0.0200976
6.6108e-05
0.0200387
5.25185e-05
0.0200103
2.30726e-05
0.0200065
8.46355e-06
0.0199971
2.9937e-05
0.0199651
7.48878e-05
0.019915
0.000115161
0.0198576
0.000130403
0.0198014
0.000116592
0.0197564
8.29935e-05
0.0197353
4.77141e-05
0.0197436
3.05977e-05
0.0197677
4.33958e-05
0.019776
8.24514e-05
0.0197402
0.000129241
0.0196599
0.000161315
0.0195607
0.000169607
0.019471
0.000162706
0.0193984
0.000156591
0.0193291
0.000159639
0.0192487
0.000166488
0.01916
0.000167121
0.0190794
0.000159345
0.019019
0.000151741
0.0189719
0.000154932
0.0189162
0.000170831
0.0188357
0.0001911
0.0187346
0.000205667
0.0186335
0.000211541
0.0185509
0.000213695
0.0184866
0.000219272
0.0184198
0.00023131
0.0183272
0.000246931
0.0181992
0.000262204
0.0180483
0.000275032
0.0179027
0.000285264
0.0177892
0.000293763
0.0177124
0.000301726
0.0176471
0.000312546
0.0175513
0.000330498
0.0173962
0.000355644
0.017188
0.000379188
0.0169652
0.000388516
0.0167691
0.000380048
0.0166146
0.000364308
0.0164849
0.000358478
0.0163499
0.000372987
0.0161895
0.000403294
0.0160054
0.000435792
0.015815
0.000460765
0.0156364
0.000477339
0.0154761
0.000487701
0.0153264
0.000493123
0.0151713
0.000498566
0.0149934
0.000515715
0.014776
0.000554027
0.014509
0.000607654
0.0142
0.000658705
0.0138803
0.000694397
0.0135858
0.000720533
0.0133213
0.000752527
0.0130538
0.000799038
0.0127528
0.000862096
0.0124278
0.000944321
0.0121073
0.00104311
0.0117917
0.00113452
0.0114509
0.00118018
0.011054
0.00117495
0.0106034
0.00113169
0.0101254
0.00107074
0.009648
0.0010079
0.00918214
0.000956238
0.00872864
0.000920243
0.0082784
0.000902106
0.00782166
0.000896533
0.00735326
0.000894812
0.00687325
0.000888915
0.0063851
0.00087389
0.00589422
0.000847488
0.00540499
0.000811082
0.00492116
0.000766554
0.00444661
0.000714642
0.00398489
0.000656756
0.00353941
0.000594321
0.00311284
0.00052873
0.00270732
0.000461368
0.00232416
0.000393431
0.00196454
0.000325899
0.00162935
0.000259637
0.00131992
0.000195465
0.00103767
0.000134067
0.000783484
7.6351e-05
0.000556661
2.39784e-05
0.000354602
-2.14345e-05
0.000170926
-5.54139e-05
-7.36684e-05
0.0205613
0.000488135
0.0203701
0.000334167
0.0202929
0.000171924
0.0202172
0.000142321
0.0201263
0.000157042
0.0200466
0.000132195
0.0199873
8.23527e-05
0.0199343
6.15482e-05
0.0198842
7.99638e-05
0.019851
0.000108138
0.0198396
0.000126557
0.0198284
0.000141558
0.0197868
0.000158208
0.0197074
0.000162452
0.0196159
0.000139194
0.0195478
9.86682e-05
0.0195179
7.32575e-05
0.0195136
8.67806e-05
0.0195101
0.00013276
0.0194899
0.000181496
0.0194514
0.000208089
0.0194026
0.000211564
0.0193492
0.000209991
0.0192885
0.000220363
0.0192109
0.000244003
0.0191085
0.000269537
0.0189819
0.000285974
0.0188426
0.000291082
0.0187084
0.000289068
0.0185948
0.000284409
0.0185064
0.00027958
0.0184353
0.000276714
0.018367
0.000279807
0.0182873
0.000293457
0.0181879
0.000318702
0.0180685
0.000350637
0.0179351
0.000380348
0.0177972
0.000400096
0.0176639
0.000408399
0.0175392
0.00040993
0.0174231
0.000409883
0.0173143
0.000410448
0.0172121
0.000414794
0.0171111
0.000431504
0.0169991
0.000467615
0.0168616
0.000516659
0.0166921
0.000558036
0.0164991
0.000573068
0.0163008
0.000562635
0.016111
0.000548306
0.0159295
0.00055448
0.0157446
0.000588139
0.015545
0.000635383
0.0153305
0.000675276
0.0151132
0.000694628
0.0149085
0.000692429
0.0147238
0.00067778
0.0145553
0.000667115
0.0143927
0.000678345
0.0142267
0.000719957
0.0140515
0.000782852
0.0138632
0.000847065
0.013659
0.000898584
0.0134407
0.000938835
0.0132156
0.000977564
0.0129928
0.00102184
0.0127799
0.00107503
0.0125836
0.00114067
0.0124082
0.00121851
0.0122475
0.0012952
0.0120752
0.00135248
0.0118725
0.00137763
0.0116337
0.00137051
0.0113649
0.00133955
0.0110783
0.00129448
0.010785
0.00124955
0.0104862
0.00121899
0.0101779
0.00121045
0.00985354
0.00122085
0.00950877
0.00123959
0.009142
0.00125568
0.00875401
0.00126188
0.00834603
0.00125547
0.00791987
0.00123725
0.00747741
0.00120901
0.00701996
0.00117209
0.00654878
0.00112794
0.00606509
0.00107801
0.00557023
0.00102359
0.00506574
0.000965866
0.00455327
0.000905898
0.00403476
0.000844412
0.00351301
0.000781383
0.00299038
0.000718089
0.00247016
0.000654291
0.00195612
0.000590391
0.00145182
0.00052828
0.000958862
0.000471522
0.000475989
0.00042746
0.00040232
0.0199535
0.000355635
0.0200737
0.000213946
0.0200717
0.000173936
0.0200427
0.000171316
0.0200368
0.000162975
0.0200449
0.000124074
0.0200449
8.23109e-05
0.0200273
7.91897e-05
0.0199984
0.000108882
0.0199694
0.000137054
0.0199471
0.000148887
0.0199289
0.000159807
0.019905
0.000182054
0.0198639
0.000203598
0.0197984
0.00020472
0.0197113
0.000185728
0.0196152
0.000169318
0.0195253
0.000176664
0.0194508
0.000207351
0.0193897
0.000242516
0.0193334
0.000264415
0.019274
0.000270952
0.01921
0.000273972
0.0191431
0.0002873
0.0190708
0.000316288
0.0189855
0.000354901
0.018882
0.000389407
0.0187669
0.000406178
0.0186556
0.000400356
0.0185599
0.000380126
0.0184774
0.000362105
0.0183942
0.000359958
0.0182986
0.000375382
0.0181926
0.000399425
0.0180889
0.000422447
0.0179971
0.000442433
0.0179135
0.00046387
0.0178233
0.000490358
0.017712
0.000519636
0.017577
0.000544935
0.0174269
0.000560044
0.0172731
0.000564208
0.0171232
0.000564707
0.0169799
0.00057483
0.016842
0.000605508
0.0167037
0.000654929
0.0165557
0.000706085
0.0163907
0.000738045
0.01621
0.000743361
0.0160229
0.00073542
0.0158395
0.000737816
0.0156625
0.000765131
0.0154852
0.000812677
0.0152981
0.000862367
0.0150964
0.00089638
0.0148815
0.000907289
0.0146584
0.000900858
0.014433
0.000892554
0.0142121
0.000899276
0.0140016
0.000930434
0.0137997
0.00098479
0.0135924
0.00105431
0.0133618
0.0011292
0.0131017
0.00119889
0.012826
0.0012533
0.0125585
0.00128932
0.012318
0.00131558
0.0121108
0.00134789
0.011933
0.00139629
0.0117713
0.00145687
0.0116105
0.00151334
0.011438
0.00155005
0.0112491
0.00155941
0.0110475
0.00154122
0.0108364
0.00150557
0.0106161
0.00146983
0.0103848
0.00145029
0.0101407
0.0014545
0.00988301
0.00147858
0.00961027
0.00151233
0.00932117
0.00154478
0.00901448
0.00156858
0.00868906
0.00158089
0.00834427
0.00158204
0.00797963
0.00157365
0.00759427
0.00155744
0.00718731
0.0015349
0.00675797
0.00150735
0.00630562
0.00147594
0.00582977
0.00144171
0.00533022
0.00140545
0.0048071
0.00136754
0.00426047
0.00132801
0.00369197
0.00128659
0.00310384
0.00124242
0.00249934
0.0011949
0.00188257
0.00114505
0.00125786
0.00109623
0.000628914
0.00105641
0.00103123
0.0200146
3.90175e-05
0.0200742
0.000154291
0.0200626
0.000185569
0.0200903
0.000143643
0.0201155
0.000137707
0.0200854
0.000154215
0.0200154
0.000152291
0.0199491
0.000145478
0.019904
0.000154043
0.0198713
0.000169675
0.0198393
0.0001809
0.0198073
0.00019183
0.0197771
0.000212305
0.0197431
0.000237593
0.0196958
0.000251942
0.0196319
0.000249639
0.0195569
0.000244366
0.0194795
0.000253997
0.0194069
0.000280042
0.0193433
0.00030612
0.0192916
0.00031609
0.0192519
0.000310612
0.0192198
0.0003061
0.0191869
0.000320186
0.0191448
0.000358363
0.0190884
0.000411323
0.019016
0.000461784
0.0189277
0.000494506
0.0188243
0.000503776
0.0187091
0.000495314
0.0185893
0.000481882
0.018474
0.00047531
0.0183689
0.00048045
0.018273
0.000495359
0.0181788
0.000516659
0.0180773
0.00054388
0.0179632
0.000577992
0.0178366
0.000616918
0.0177015
0.000654753
0.0175607
0.000685748
0.017413
0.000707703
0.0172557
0.00072157
0.01709
0.000730368
0.0169244
0.00074042
0.0167688
0.000761113
0.0166257
0.00079806
0.0164867
0.000845047
0.0163389
0.000885878
0.0161741
0.00090818
0.0159939
0.000915582
0.0158075
0.000924263
0.0156254
0.000947223
0.0154542
0.00098389
0.0152916
0.00102494
0.0151247
0.00106327
0.0149345
0.00109744
0.0147079
0.00112747
0.0144481
0.00115242
0.0141737
0.00117359
0.0139067
0.00119746
0.0136579
0.00123358
0.0134233
0.00128896
0.0131899
0.00136261
0.012946
0.00144276
0.0126882
0.00151111
0.0124227
0.00155485
0.0121609
0.00157733
0.0119124
0.0015964
0.0116798
0.00162894
0.0114598
0.00167682
0.0112469
0.00172628
0.0110378
0.00175915
0.0108321
0.0017651
0.0106271
0.00174619
0.0104169
0.00171582
0.0101951
0.00169162
0.00995895
0.00168641
0.00970979
0.00170366
0.00945033
0.00173805
0.00918268
0.00177998
0.0089071
0.00182035
0.00862232
0.00185336
0.00832637
0.00187684
0.00801727
0.00189113
0.00769324
0.00189769
0.00735246
0.00189822
0.0069931
0.00189427
0.0066134
0.00188704
0.0062116
0.00187774
0.00578582
0.00186749
0.00533416
0.0018571
0.00485474
0.00184697
0.00434588
0.00183687
0.0038064
0.00182606
0.00323568
0.00181315
0.0026342
0.00179637
0.00200427
0.00177497
0.00135039
0.00175012
0.000679161
0.00172763
0.0017104
0.0199558
3.14398e-05
0.019993
0.000117073
0.0200153
0.000163214
0.0200238
0.000135161
0.0200283
0.000133197
0.0200268
0.00015574
0.0200098
0.000169296
0.0199875
0.00016779
0.0199604
0.000181166
0.0199146
0.000215435
0.0198428
0.000252694
0.0197602
0.000274433
0.0196961
0.000276387
0.0196674
0.000266267
0.0196633
0.000256045
0.0196555
0.000257465
0.0196235
0.000276371
0.0195708
0.000306675
0.0195169
0.000333941
0.0194745
0.000348505
0.0194356
0.000355015
0.0193791
0.000367174
0.0192916
0.000393513
0.0191814
0.000430423
0.0190713
0.000468521
0.0189803
0.00050231
0.0189098
0.000532225
0.0188456
0.000558702
0.0187718
0.000577567
0.0186841
0.000583061
0.0185907
0.000575308
0.0185021
0.000563901
0.0184193
0.000563233
0.0183313
0.000583338
0.0182241
0.000623826
0.018093
0.000675034
0.0179465
0.000724468
0.0177999
0.000763552
0.0176636
0.000791032
0.0175373
0.000812018
0.0174117
0.000833369
0.0172751
0.000858127
0.0171218
0.000883681
0.016956
0.000906229
0.01679
0.000927079
0.0166356
0.000952513
0.0164944
0.000986225
0.0163565
0.00102376
0.0162077
0.001057
0.0160395
0.00108373
0.0158539
0.00110986
0.0156598
0.00114135
0.0154666
0.0011771
0.0152787
0.0012129
0.0150917
0.0012502
0.0148934
0.00129578
0.0146698
0.00135105
0.0144165
0.00140573
0.0141436
0.00144645
0.0138706
0.00147049
0.0136144
0.00148983
0.013381
0.00152234
0.0131647
0.00157892
0.0129517
0.00165572
0.0127268
0.00173606
0.0124806
0.00180102
0.0122157
0.00184223
0.0119449
0.00186722
0.0116821
0.00189171
0.0114337
0.00192518
0.0111973
0.00196272
0.010966
0.0019904
0.0107332
0.00199796
0.0104924
0.00198699
0.0102386
0.00196965
0.00996937
0.00196081
0.00968606
0.00196972
0.00939289
0.00199683
0.00909487
0.00203607
0.00879546
0.00207939
0.00849556
0.00212026
0.00819392
0.002155
0.00788827
0.00218249
0.00757621
0.0022032
0.00725555
0.00221835
0.00692438
0.00222938
0.00658087
0.00223779
0.00622295
0.00224496
0.00584852
0.00225217
0.00545527
0.00226074
0.00504064
0.00227173
0.00460184
0.00228577
0.00413582
0.00230289
0.00363956
0.00232231
0.00311041
0.0023423
0.00254665
0.00236013
0.0019485
0.00237312
0.00131922
0.0023794
0.000665731
0.00238112
0.00237613
0.0202885
0.000227137
0.0201692
0.00023637
0.0201151
0.000217342
0.0200607
0.000189607
0.0200142
0.000179633
0.0199898
0.000180153
0.0199799
0.000179249
0.0199643
0.000183372
0.0199409
0.000204563
0.0199096
0.000246717
0.0198689
0.000293372
0.0198196
0.000323764
0.0197688
0.000327225
0.0197262
0.000308858
0.0196939
0.000288319
0.0196626
0.000288746
0.0196196
0.000319398
0.0195599
0.000366372
0.0194903
0.000403562
0.0194225
0.000416315
0.0193632
0.000414262
0.0193095
0.000420839
0.0192517
0.000451389
0.0191804
0.000501657
0.0190939
0.00055508
0.0189989
0.000597252
0.0189076
0.000623538
0.0188288
0.000637523
0.0187607
0.000645626
0.018691
0.000652808
0.018605
0.000661278
0.018497
0.00067196
0.0183733
0.000686906
0.0182467
0.00070997
0.018126
0.000744469
0.018011
0.000790042
0.0178937
0.000841731
0.0177657
0.000891628
0.0176251
0.000931581
0.0174807
0.000956471
0.0173464
0.000967655
0.0172305
0.000973981
0.0171265
0.000987721
0.0170157
0.00101705
0.0168821
0.00106067
0.0167253
0.00110932
0.0165586
0.00115288
0.0163951
0.0011873
0.0162359
0.00121619
0.0160724
0.00124726
0.0158955
0.00128674
0.0157016
0.00133526
0.0154913
0.00138738
0.0152683
0.00143591
0.0150403
0.00147819
0.0148178
0.0015183
0.014607
0.00156183
0.014404
0.00160868
0.0141979
0.00165256
0.0139799
0.00168849
0.0137498
0.00171999
0.0135136
0.00175849
0.0132775
0.00181501
0.0130425
0.00189076
0.0128043
0.00197424
0.0125575
0.0020478
0.0123004
0.00209936
0.0120371
0.00213054
0.011775
0.00215381
0.0115193
0.00218086
0.0112691
0.00221293
0.0110179
0.00224159
0.0107576
0.00225824
0.0104819
0.00226269
0.0101879
0.00226366
0.00987654
0.00227218
0.00955192
0.00229434
0.00921978
0.00232897
0.00888552
0.00237033
0.00855265
0.00241226
0.0082222
0.0024507
0.00789323
0.00248397
0.00756378
0.00251194
0.0072317
0.00253528
0.00689509
0.00255495
0.00655236
0.00257212
0.00620206
0.00258808
0.00584274
0.00260428
0.00547271
0.0026222
0.00509001
0.00264344
0.00469227
0.00266947
0.00427674
0.00270131
0.00384018
0.00273944
0.00337906
0.00278344
0.00288973
0.00283163
0.00236914
0.00288073
0.00181584
0.00292642
0.00123158
0.00296366
0.000622294
0.0029904
0.00299842
0.0198732
0.000273145
0.0199324
0.000177163
0.0200321
0.000117702
0.0200795
0.000142222
0.0200621
0.000196979
0.0200206
0.000221665
0.0199763
0.000223561
0.0199274
0.000232217
0.0198772
0.000254816
0.0198471
0.000276784
0.0198476
0.000292913
0.0198602
0.000311113
0.0198518
0.00033569
0.0198032
0.00035743
0.0197246
0.000366925
0.0196412
0.000372151
0.0195691
0.000391488
0.0195059
0.000429562
0.0194415
0.00046792
0.0193737
0.000484136
0.0193108
0.000477196
0.0192615
0.00047014
0.0192246
0.000488316
0.0191889
0.000537288
0.0191434
0.000600642
0.0190848
0.000655787
0.0190181
0.000690255
0.0189491
0.000706574
0.0188784
0.000716334
0.0188006
0.000730605
0.0187082
0.000753613
0.0185975
0.000782736
0.018471
0.000813399
0.0183371
0.000843812
0.0182062
0.000875432
0.0180861
0.000910124
0.0179797
0.000948115
0.0178832
0.000988149
0.0177869
0.00102783
0.0176799
0.00106344
0.017556
0.00109162
0.0174163
0.00111371
0.0172659
0.00113803
0.0171082
0.00117477
0.0169431
0.00122581
0.0167718
0.00128059
0.0166
0.00132472
0.0164333
0.00135392
0.0162712
0.00137834
0.0161056
0.00141285
0.0159284
0.00146392
0.0157375
0.0015262
0.0155354
0.0015895
0.0153247
0.00164657
0.0151076
0.00169532
0.0148884
0.00173743
0.0146732
0.00177705
0.014463
0.00181889
0.0142513
0.00186429
0.0140299
0.0019099
0.013797
0.00195291
0.0135569
0.00199857
0.0133133
0.00205863
0.013065
0.002139
0.0128099
0.00222934
0.0125499
0.00230783
0.0122909
0.00235839
0.0120377
0.00238376
0.0117897
0.0024018
0.0115414
0.00242914
0.0112861
0.00246825
0.0110187
0.00250896
0.0107367
0.00254022
0.0104393
0.00256008
0.0101268
0.00257613
0.00980072
0.0025983
0.00946356
0.0026315
0.00911887
0.00267366
0.00877018
0.00271902
0.00842011
0.00276233
0.00806986
0.00280095
0.00771933
0.0028345
0.00736762
0.00286365
0.00701357
0.00288932
0.00665611
0.00291241
0.00629433
0.0029339
0.00592745
0.00295496
0.0055547
0.00297702
0.00517518
0.00300173
0.00478776
0.00303086
0.00439099
0.00306623
0.00398285
0.00310945
0.00356062
0.00316167
0.00312111
0.00322296
0.00266076
0.00329198
0.00217621
0.00336528
0.00166522
0.00343741
0.00112829
0.00350059
0.000569771
0.00354892
0.00356819
0.0198677
0.000146151
0.0199947
5.01189e-05
0.0200272
8.52309e-05
0.020007
0.000162427
0.0199785
0.000225434
0.0199541
0.000246144
0.0199398
0.000237856
0.0199205
0.000251518
0.0198826
0.000292638
0.019837
0.000322416
0.0198044
0.000325472
0.0197866
0.000328963
0.0197644
0.000357927
0.0197209
0.000400929
0.0196603
0.000427474
0.0196047
0.000427807
0.0195729
0.000423218
0.019565
0.00043747
0.0195634
0.000469556
0.0195472
0.000500272
0.0195049
0.000519525
0.0194365
0.000538565
0.0193505
0.000574287
0.0192603
0.000627525
0.0191796
0.000681291
0.0191168
0.000718607
0.0190681
0.000739011
0.019018
0.000756618
0.0189495
0.000784845
0.0188548
0.000825296
0.0187385
0.000869964
0.0186107
0.000910509
0.0184801
0.000944001
0.018352
0.000971933
0.0182306
0.000996798
0.01812
0.00102075
0.0180214
0.0010467
0.0179305
0.00107902
0.0178371
0.00112128
0.0177284
0.00117209
0.0175961
0.00122398
0.0174411
0.00126867
0.017274
0.00130518
0.0171075
0.00134125
0.0169487
0.00138461
0.0167959
0.00143339
0.0166424
0.00147817
0.0164819
0.00151443
0.0163099
0.00155033
0.0161238
0.00159901
0.0159242
0.00166345
0.0157183
0.0017321
0.0155169
0.00179096
0.015326
0.00183744
0.0151409
0.00188043
0.0149496
0.00192871
0.0147434
0.00198323
0.0145225
0.0020398
0.0142923
0.00209447
0.0140575
0.00214475
0.0138197
0.00219067
0.0135792
0.00223914
0.0133342
0.00230364
0.0130813
0.00239181
0.0128192
0.00249152
0.0125524
0.00257464
0.0122905
0.00262028
0.0120396
0.00263464
0.0117956
0.00264582
0.0115461
0.00267856
0.0112799
0.00273453
0.0109932
0.00279564
0.0106903
0.00284313
0.0103776
0.0028728
0.0100588
0.0028949
0.00973412
0.00292296
0.00940217
0.00296345
0.00906207
0.00301376
0.00871423
0.00306686
0.00835988
0.00311667
0.00800032
0.00316052
0.00763638
0.00319844
0.00726841
0.00323162
0.00689643
0.00326131
0.00652028
0.00328856
0.00613981
0.00331437
0.00575488
0.00333989
0.00536539
0.00336651
0.00497119
0.00339593
0.00457197
0.00343008
0.0041672
0.00347101
0.00375588
0.00352077
0.00333653
0.00358102
0.00290691
0.00365257
0.00246417
0.00373472
0.00200535
0.00382409
0.00152814
0.00391463
0.0010322
0.00399653
0.000520199
0.00406092
0.00408839
0.0196808
-0.000131711
0.0198441
-0.000113199
0.0199052
2.41204e-05
0.0199425
0.000125121
0.0199718
0.000196118
0.0199869
0.000231094
0.0199703
0.000254448
0.0199346
0.000287162
0.0199069
0.000320431
0.0198922
0.000337095
0.0198764
0.00034123
0.0198484
0.00035701
0.0198103
0.000396021
0.0197711
0.000440074
0.0197342
0.000464449
0.0196944
0.000467528
0.019648
0.000469657
0.0195976
0.000487815
0.0195481
0.000519144
0.0194984
0.000549954
0.0194429
0.000574987
0.0193784
0.00060312
0.0193077
0.000644928
0.0192368
0.000698487
0.0191681
0.000749901
0.019099
0.000787754
0.0190237
0.000814353
0.0189383
0.000842003
0.0188431
0.000880061
0.0187412
0.000927202
0.018636
0.000975122
0.0185297
0.00101676
0.0184239
0.00104985
0.0183206
0.00107521
0.0182224
0.00109504
0.0181292
0.0011139
0.0180369
0.00113905
0.0179381
0.00117775
0.0178268
0.00123265
0.0177002
0.00129864
0.01756
0.00136416
0.0174112
0.00141753
0.0172611
0.0014553
0.0171169
0.00148539
0.0169808
0.0015207
0.0168464
0.00156787
0.0167017
0.00162287
0.0165381
0.00167798
0.0163565
0.00173189
0.0161654
0.00179017
0.0159732
0.00185565
0.0157832
0.00192206
0.0155939
0.00198025
0.0154017
0.00202963
0.0152026
0.00207954
0.0149926
0.00213874
0.0147699
0.00220595
0.0145374
0.00227222
0.0143018
0.00233006
0.0140679
0.00237863
0.0138352
0.00242338
0.0135994
0.00247494
0.0133573
0.00254574
0.0131094
0.00263979
0.0128587
0.00274214
0.0126092
0.0028242
0.0123621
0.00286734
0.0121143
0.00288245
0.0118578
0.00290234
0.011584
0.00295238
0.0112896
0.00302893
0.0109793
0.00310588
0.0106626
0.00315989
0.0103465
0.00318884
0.0100323
0.00320919
0.00971563
0.00323958
0.00939142
0.00328766
0.00905632
0.00334886
0.00870967
0.00341351
0.00835254
0.0034738
0.00798659
0.00352648
0.00761326
0.00357176
0.0072336
0.00361127
0.00684825
0.00364666
0.00645759
0.00367923
0.00606189
0.00371007
0.00566143
0.00374035
0.00525655
0.00377139
0.00484763
0.00380486
0.00443503
0.00384267
0.00401903
0.00388701
0.00359964
0.00394016
0.00317644
0.00400422
0.00274848
0.00408054
0.00231417
0.00416903
0.00187142
0.00426684
0.00141825
0.00436781
0.000953836
0.00446094
0.000479335
0.00453542
0.00456773
0.0200597
-0.000169779
0.0199757
-2.9256e-05
0.019918
8.17987e-05
0.0199263
0.000116842
0.0199736
0.000148851
0.0199968
0.000207909
0.0199705
0.000280758
0.0199238
0.000333864
0.0198918
0.000352431
0.0198788
0.000350016
0.0198642
0.000355845
0.0198373
0.000383969
0.0198111
0.000422163
0.0198
0.000451229
0.0197968
0.000467666
0.0197793
0.000484959
0.0197336
0.00051539
0.0196657
0.000555691
0.0195925
0.000592405
0.0195244
0.000618029
0.0194603
0.00063904
0.0193946
0.000668877
0.0193246
0.000714933
0.0192505
0.000772532
0.0191706
0.000829786
0.0190817
0.000876666
0.018985
0.000911064
0.0188887
0.00093827
0.0188025
0.00096634
0.0187281
0.00100155
0.0186572
0.00104607
0.0185764
0.00109753
0.0184766
0.00114971
0.0183568
0.00119494
0.0182237
0.00122814
0.0180875
0.0012501
0.0179589
0.00126765
0.0178459
0.00129082
0.0177496
0.00132886
0.0176623
0.00138597
0.0175685
0.00145795
0.0174533
0.00153279
0.0173112
0.00159737
0.0171498
0.0016468
0.0169825
0.00168794
0.0168179
0.00173256
0.0166537
0.001787
0.0164827
0.00184906
0.016301
0.00191359
0.0161131
0.00197805
0.0159269
0.00204179
0.0157456
0.00210345
0.0155634
0.00216237
0.0153718
0.00222127
0.0151671
0.00228425
0.0149542
0.0023516
0.0147413
0.00241884
0.0145319
0.00248168
0.0143222
0.0025398
0.0141055
0.00259526
0.0138786
0.00265037
0.0136434
0.00271011
0.0134058
0.00278328
0.0131715
0.00287417
0.0129421
0.00297144
0.0127149
0.00305146
0.0124824
0.00309984
0.0122355
0.0031293
0.0119668
0.00317108
0.0116738
0.00324537
0.0113614
0.00334136
0.0110398
0.00342748
0.0107193
0.00348041
0.0104043
0.00350376
0.0100921
0.00352141
0.00977547
0.00355622
0.00944797
0.00361516
0.00910667
0.00369017
0.00875203
0.00376815
0.00838615
0.00383968
0.00801119
0.00390143
0.00762868
0.00395428
0.00723948
0.00400047
0.00684406
0.00404208
0.00644271
0.00408058
0.0060357
0.00411709
0.00562338
0.00415266
0.00520627
0.00418851
0.00478502
0.00422611
0.00436041
0.00426727
0.00393331
0.00431411
0.00350453
0.00436895
0.00307463
0.00443411
0.00264378
0.00451138
0.00221159
0.00460122
0.00177709
0.00470134
0.00133898
0.00480592
0.000896324
0.00490359
0.000449029
0.00498271
0.00501676
0.0201111
-0.000168902
0.0201236
-4.18014e-05
0.0201209
8.45428e-05
0.0200873
0.000150395
0.0200469
0.000189309
0.0200119
0.000242898
0.0199941
0.00029855
0.0199968
0.000331129
0.0200069
0.000342304
0.0200029
0.000354022
0.0199759
0.000382852
0.0199309
0.000428956
0.0198751
0.000478008
0.019812
0.000514303
0.0197446
0.00053504
0.0196784
0.000551159
0.0196194
0.000574481
0.0195683
0.000606719
0.0195188
0.000641927
0.0194605
0.000676364
0.019387
0.000712492
0.0193019
0.000754011
0.0192166
0.000800168
0.0191433
0.000845841
0.0190862
0.000886915
0.0190389
0.000923982
0.0189891
0.00096083
0.0189266
0.00100084
0.0188477
0.00104518
0.018756
0.00109329
0.0186583
0.00114372
0.0185614
0.00119446
0.0184679
0.00124315
0.0183752
0.00128765
0.0182764
0.001327
0.0181648
0.00136164
0.0180394
0.00139312
0.0179058
0.00142441
0.017774
0.00146065
0.0176518
0.00150818
0.0175391
0.00157064
0.0174273
0.00164455
0.0173049
0.00171984
0.0171648
0.00178681
0.0170093
0.00184353
0.0168458
0.00189597
0.0166814
0.00195146
0.016517
0.00201339
0.0163493
0.00208136
0.0161743
0.00215299
0.0159922
0.00222392
0.0158062
0.00228948
0.0156188
0.00234977
0.0154285
0.00241159
0.0152315
0.00248121
0.0150274
0.00255571
0.0148209
0.00262532
0.0146172
0.00268538
0.0144151
0.00274186
0.0142075
0.00280285
0.0139889
0.00286907
0.0137615
0.00293748
0.0135335
0.00301123
0.0133103
0.00309742
0.0130887
0.00319303
0.0128597
0.00328044
0.0126149
0.00334462
0.0123509
0.0033933
0.0120687
0.00345327
0.0117713
0.00354283
0.0114625
0.00365016
0.0111474
0.00374257
0.0108309
0.00379688
0.0105151
0.0038196
0.0101975
0.00383904
0.00987251
0.00388116
0.00953506
0.0039526
0.00918302
0.00404221
0.00881754
0.00413362
0.00844143
0.00421579
0.00805723
0.00428563
0.00766644
0.00434507
0.0072696
0.00439731
0.00686675
0.00444493
0.00645784
0.00448949
0.00604291
0.00453202
0.00562221
0.00457336
0.00519622
0.00461449
0.00476569
0.00465665
0.00433158
0.00470138
0.0038951
0.00475058
0.00345759
0.00480645
0.00302037
0.00487134
0.00258451
0.00494724
0.00215068
0.00503506
0.00171891
0.00513311
0.00128863
0.0052362
0.000859009
0.00533321
0.000429133
0.00541259
0.00544589
0.0201351
2.43924e-05
0.0199786
0.00011468
0.019922
0.000141206
0.0199346
0.000137727
0.019963
0.000160964
0.0199629
0.000243007
0.0199279
0.000333511
0.0198805
0.000378548
0.0198468
0.000375986
0.0198377
0.000363157
0.019842
0.000378558
0.0198399
0.000430974
0.0198171
0.000500816
0.0197709
0.000560547
0.0197106
0.000595318
0.0196507
0.000611052
0.0195997
0.000625483
0.0195551
0.000651361
0.019509
0.000687968
0.0194581
0.000727346
0.0194049
0.00076569
0.0193524
0.00080649
0.0192986
0.00085393
0.019238
0.000906467
0.0191676
0.000957327
0.0190906
0.00100091
0.0190136
0.0010379
0.0189393
0.00107513
0.0188636
0.00112089
0.0187783
0.00117858
0.018679
0.00124297
0.0185707
0.00130281
0.0184648
0.00134903
0.0183706
0.00138188
0.0182867
0.00141085
0.0182011
0.00144725
0.0180982
0.00149609
0.0179686
0.00155392
0.0178158
0.00161347
0.017654
0.00167002
0.0175004
0.00172421
0.0173653
0.00177961
0.0172465
0.00183871
0.0171318
0.00190149
0.0170083
0.00196706
0.0168694
0.00203481
0.016717
0.00210392
0.0165567
0.00217366
0.0163931
0.00224494
0.0162266
0.0023195
0.0160544
0.0023961
0.0158745
0.00246941
0.0156881
0.00253615
0.0154986
0.00260113
0.0153071
0.0026727
0.0151117
0.00275107
0.0149109
0.00282611
0.0147065
0.00288983
0.014501
0.00294737
0.0142932
0.00301057
0.0140791
0.00308318
0.0138573
0.0031593
0.0136321
0.00323643
0.013408
0.00332155
0.0131819
0.00341905
0.0129439
0.00351845
0.0126855
0.00360309
0.0124072
0.00367154
0.0121177
0.00374283
0.011825
0.00383548
0.0115315
0.0039437
0.0112341
0.00403992
0.0109294
0.00410161
0.0106158
0.00413323
0.0102928
0.00416197
0.00995951
0.0042145
0.00961386
0.00429825
0.00925478
0.00440129
0.00888312
0.00450528
0.00850121
0.0045977
0.00811145
0.00467539
0.00771536
0.00474115
0.00731345
0.00479922
0.00690564
0.00485274
0.00649168
0.00490345
0.00607148
0.00495222
0.00564515
0.00499969
0.00521311
0.00504654
0.00477605
0.00509371
0.004335
0.00514243
0.0038913
0.00519429
0.00344654
0.00525121
0.00300251
0.00531537
0.00256096
0.00538879
0.00212334
0.00547268
0.00169054
0.00556591
0.00126265
0.00566408
0.000839017
0.00575684
0.000418281
0.00583333
0.00586417
0.0201389
0.000134661
0.0201729
8.06809e-05
0.0201505
0.000163565
0.0200797
0.000208605
0.0200059
0.000234689
0.0199815
0.000267457
0.0200057
0.000309302
0.0200414
0.000342862
0.0200498
0.000367551
0.0200158
0.000397156
0.019957
0.000437354
0.0199011
0.000486856
0.019857
0.000544939
0.0198094
0.000608164
0.0197401
0.000664617
0.0196511
0.000700055
0.019564
0.000712621
0.019498
0.000717315
0.0194533
0.000732646
0.0194159
0.000764783
0.0193744
0.000807139
0.019328
0.000852898
0.019279
0.000902953
0.0192241
0.000961352
0.0191552
0.00102626
0.0190684
0.00108773
0.0189706
0.00113565
0.0188758
0.00116999
0.0187937
0.00120292
0.018723
0.00124932
0.0186526
0.0013134
0.018571
0.00138433
0.0184744
0.00144565
0.0183666
0.00148967
0.0182547
0.00152277
0.0181442
0.00155773
0.0180377
0.00160263
0.0179338
0.00165777
0.017827
0.00172027
0.0177088
0.00178827
0.0175731
0.00185984
0.0174222
0.00193054
0.0172657
0.00199522
0.0171142
0.00205301
0.016972
0.00210929
0.0168354
0.00217139
0.0166969
0.00224236
0.0165509
0.00231973
0.0163961
0.00239973
0.0162348
0.0024808
0.0160688
0.00256214
0.0158974
0.0026408
0.0157196
0.00271388
0.0155374
0.00278338
0.0153547
0.0028554
0.0151735
0.0029322
0.0149915
0.00300814
0.014804