/*--------------------------------*- C++ -*----------------------------------*\
| =========                 |                                                 |
| \\      /  F ield         | OpenFOAM: The Open Source CFD Toolbox           |
|  \\    /   O peration     | Version:  4.1                                   |
|   \\  /    A nd           | Web:      www.OpenFOAM.org                      |
|    \\/     M anipulation  |                                                 |
\*---------------------------------------------------------------------------*/
FoamFile
{
    version     2.0;
    format      ascii;
    class       volScalarField;
    location    "0.2";
    object      pMean;
}
// * * * * * * * * * * * * * * * * * * * * * * * * * * * * * * * * * * * * * //

dimensions      [0 2 -2 0 0 0 0];

internalField   nonuniform List<scalar> 
43750
(
202.717
201.455
201.319
200.769
200.311
199.893
199.489
199.096
198.718
198.357
198.014
197.688
197.378
197.085
196.808
196.547
196.303
196.074
195.863
195.668
195.488
195.326
195.179
195.049
194.935
194.837
194.756
194.69
194.641
194.609
194.593
194.592
194.608
194.64
194.689
194.753
194.833
194.93
195.043
195.171
195.315
195.475
195.65
195.842
196.049
196.271
196.508
196.76
197.027
197.308
197.603
197.912
198.235
198.57
198.919
199.28
199.652
200.037
200.433
200.839
201.254
201.678
202.109
202.546
202.987
203.433
203.88
204.328
204.776
205.222
205.67
206.121
206.577
207.034
207.49
207.943
208.389
208.827
209.256
209.675
210.082
210.478
210.862
211.234
211.592
211.939
212.272
212.592
212.898
213.188
213.462
213.718
213.953
214.167
214.357
214.52
214.654
214.757
214.827
214.862
202.6
201.415
201.3
200.746
200.283
199.865
199.462
199.071
198.693
198.332
197.989
197.663
197.353
197.059
196.782
196.521
196.277
196.049
195.836
195.641
195.461
195.298
195.151
195.02
194.906
194.808
194.726
194.66
194.611
194.578
194.561
194.56
194.575
194.607
194.655
194.718
194.798
194.894
195.006
195.134
195.277
195.437
195.611
195.802
196.008
196.229
196.465
196.715
196.981
197.26
197.555
197.862
198.183
198.518
198.865
199.224
199.596
199.979
200.373
200.778
201.192
201.614
202.043
202.479
202.919
203.363
203.811
204.26
204.708
205.157
205.607
206.063
206.523
206.984
207.443
207.897
208.345
208.786
209.217
209.638
210.049
210.448
210.835
211.211
211.574
211.924
212.262
212.585
212.894
213.188
213.465
213.724
213.962
214.178
214.37
214.534
214.669
214.772
214.842
214.878
202.693
201.427
201.28
200.722
200.26
199.842
199.436
199.043
198.664
198.303
197.959
197.632
197.322
197.028
196.751
196.489
196.244
196.015
195.803
195.607
195.426
195.263
195.115
194.984
194.869
194.77
194.687
194.621
194.57
194.536
194.518
194.517
194.531
194.561
194.608
194.671
194.75
194.844
194.954
195.081
195.223
195.381
195.554
195.743
195.947
196.166
196.401
196.65
196.913
197.191
197.482
197.788
198.107
198.439
198.783
199.14
199.508
199.888
200.279
200.679
201.089
201.507
201.933
202.364
202.802
203.245
203.691
204.14
204.591
205.044
205.499
205.956
206.414
206.871
207.327
207.779
208.227
208.668
209.101
209.525
209.94
210.344
210.737
211.118
211.487
211.843
212.186
212.515
212.83
213.128
213.409
213.671
213.912
214.13
214.324
214.489
214.626
214.731
214.801
214.837
202.428
201.283
201.189
200.647
200.19
199.775
199.374
198.983
198.607
198.247
197.903
197.576
197.266
196.972
196.693
196.432
196.186
195.957
195.744
195.547
195.366
195.201
195.053
194.921
194.805
194.705
194.621
194.553
194.502
194.467
194.448
194.445
194.458
194.487
194.532
194.594
194.671
194.764
194.873
194.998
195.139
195.295
195.466
195.653
195.855
196.073
196.305
196.552
196.814
197.089
197.379
197.682
197.999
198.328
198.671
199.025
199.391
199.768
200.156
200.553
200.96
201.376
201.799
202.228
202.663
203.103
203.548
203.996
204.446
204.899
205.354
205.81
206.267
206.724
207.179
207.631
208.079
208.52
208.953
209.379
209.795
210.202
210.597
210.982
211.354
211.714
212.061
212.393
212.71
213.011
213.294
213.558
213.801
214.022
214.217
214.385
214.524
214.63
214.702
214.738
202.528
201.277
201.144
200.595
200.137
199.719
199.314
198.919
198.541
198.18
197.836
197.508
197.197
196.902
196.624
196.361
196.114
195.884
195.67
195.473
195.291
195.125
194.976
194.843
194.726
194.624
194.539
194.47
194.417
194.381
194.36
194.355
194.367
194.395
194.438
194.497
194.573
194.664
194.771
194.893
195.032
195.186
195.355
195.539
195.739
195.954
196.184
196.428
196.687
196.96
197.247
197.548
197.861
198.188
198.527
198.878
199.241
199.615
199.999
200.394
200.797
201.21
201.63
202.056
202.489
202.927
203.369
203.816
204.265
204.717
205.171
205.627
206.083
206.539
206.992
207.442
207.888
208.328
208.762
209.187
209.604
210.011
210.408
210.794
211.167
211.528
211.875
212.209
212.526
212.827
213.11
213.374
213.616
213.836
214.031
214.199
214.337
214.443
214.516
214.552
202.391
201.155
201.031
200.49
200.038
199.624
199.221
198.829
198.452
198.091
197.747
197.42
197.108
196.813
196.533
196.27
196.023
195.791
195.576
195.377
195.194
195.027
194.876
194.742
194.623
194.52
194.434
194.363
194.308
194.27
194.247
194.24
194.25
194.275
194.316
194.373
194.446
194.535
194.639
194.76
194.896
195.047
195.213
195.395
195.592
195.804
196.03
196.272
196.527
196.797
197.081
197.378
197.688
198.012
198.347
198.696
199.055
199.425
199.807
200.197
200.598
201.006
201.423
201.847
202.277
202.713
203.154
203.598
204.046
204.497
204.95
205.404
205.859
206.313
206.765
207.214
207.658
208.097
208.53
208.955
209.371
209.779
210.176
210.561
210.935
211.295
211.642
211.974
212.29
212.589
212.87
213.131
213.371
213.588
213.781
213.946
214.083
214.188
214.26
214.295
202.212
201.049
200.943
200.393
199.935
199.522
199.12
198.728
198.349
197.988
197.644
197.315
197.003
196.707
196.426
196.162
195.913
195.681
195.465
195.264
195.08
194.911
194.759
194.623
194.502
194.397
194.309
194.236
194.18
194.139
194.114
194.105
194.111
194.134
194.173
194.227
194.297
194.383
194.485
194.602
194.735
194.882
195.046
195.224
195.418
195.626
195.849
196.087
196.339
196.605
196.884
197.178
197.484
197.803
198.135
198.479
198.834
199.2
199.577
199.964
200.361
200.766
201.179
201.599
202.026
202.459
202.897
203.339
203.785
204.234
204.686
205.138
205.591
206.043
206.494
206.941
207.384
207.822
208.254
208.678
209.094
209.5
209.897
210.282
210.655
211.014
211.36
211.69
212.004
212.3
212.577
212.834
213.07
213.283
213.471
213.632
213.765
213.867
213.937
213.972
202.134
200.928
200.817
200.274
199.818
199.402
199
198.609
198.23
197.868
197.522
197.193
196.88
196.582
196.301
196.035
195.785
195.552
195.334
195.132
194.946
194.776
194.621
194.483
194.36
194.253
194.162
194.088
194.028
193.985
193.957
193.946
193.949
193.969
194.005
194.056
194.123
194.205
194.304
194.417
194.546
194.69
194.85
195.025
195.214
195.418
195.637
195.87
196.118
196.38
196.655
196.944
197.246
197.561
197.888
198.227
198.578
198.939
199.312
199.694
200.086
200.487
200.896
201.312
201.736
202.165
202.6
203.039
203.482
203.929
204.378
204.828
205.278
205.729
206.177
206.622
207.063
207.5
207.93
208.353
208.768
209.173
209.569
209.952
210.324
210.683
211.026
211.353
211.665
211.957
212.23
212.483
212.714
212.921
213.104
213.261
213.389
213.487
213.555
213.588
202.024
200.794
200.677
200.135
199.682
199.266
198.863
198.469
198.091
197.729
197.383
197.054
196.74
196.441
196.158
195.891
195.64
195.404
195.185
194.981
194.793
194.621
194.464
194.324
194.198
194.089
193.996
193.918
193.856
193.809
193.779
193.764
193.765
193.781
193.813
193.861
193.924
194.003
194.097
194.207
194.331
194.471
194.626
194.797
194.982
195.181
195.395
195.624
195.867
196.124
196.394
196.678
196.974
197.284
197.606
197.94
198.286
198.642
199.009
199.387
199.774
200.17
200.574
200.986
201.405
201.83
202.261
202.697
203.137
203.58
204.025
204.472
204.92
205.367
205.812
206.256
206.694
207.129
207.557
207.978
208.392
208.795
209.189
209.572
209.942
210.298
210.639
210.964
211.272
211.561
211.83
212.078
212.304
212.506
212.684
212.835
212.958
213.053
213.117
213.149
201.851
200.645
200.53
199.987
199.532
199.117
198.713
198.32
197.94
197.576
197.229
196.897
196.582
196.282
195.998
195.729
195.476
195.239
195.018
194.812
194.621
194.447
194.288
194.145
194.017
193.905
193.808
193.727
193.662
193.612
193.578
193.56
193.557
193.57
193.598
193.641
193.701
193.775
193.865
193.97
194.09
194.225
194.376
194.541
194.721
194.915
195.124
195.347
195.585
195.836
196.101
196.379
196.67
196.973
197.29
197.618
197.958
198.309
198.671
199.042
199.423
199.814
200.213
200.619
201.034
201.454
201.88
202.312
202.747
203.186
203.628
204.071
204.515
204.958
205.4
205.84
206.276
206.708
207.134
207.553
207.963
208.365
208.757
209.138
209.505
209.859
210.197
210.52
210.825
211.11
211.375
211.619
211.84
212.038
212.209
212.356
212.475
212.565
212.626
212.657
201.708
200.48
200.361
199.818
199.363
198.947
198.542
198.148
197.767
197.404
197.056
196.725
196.408
196.106
195.82
195.55
195.296
195.056
194.832
194.625
194.432
194.254
194.093
193.947
193.816
193.701
193.601
193.517
193.448
193.395
193.357
193.335
193.328
193.336
193.36
193.399
193.453
193.523
193.608
193.708
193.823
193.953
194.098
194.258
194.432
194.621
194.823
195.041
195.272
195.517
195.775
196.047
196.332
196.629
196.939
197.261
197.594
197.939
198.294
198.659
199.034
199.419
199.812
200.213
200.621
201.035
201.456
201.882
202.313
202.747
203.184
203.622
204.062
204.501
204.94
205.376
205.808
206.236
206.659
207.075
207.483
207.882
208.27
208.648
209.013
209.364
209.7
210.019
210.321
210.603
210.864
211.104
211.321
211.513
211.681
211.822
211.937
212.024
212.083
212.112
201.525
200.309
200.185
199.639
199.182
198.766
198.361
197.967
197.586
197.22
196.869
196.535
196.217
195.914
195.627
195.354
195.098
194.856
194.63
194.419
194.224
194.044
193.879
193.73
193.596
193.477
193.374
193.286
193.214
193.157
193.114
193.088
193.077
193.08
193.099
193.133
193.182
193.247
193.326
193.421
193.53
193.654
193.794
193.947
194.115
194.298
194.494
194.705
194.93
195.168
195.419
195.684
195.962
196.252
196.555
196.869
197.196
197.533
197.881
198.239
198.607
198.985
199.371
199.765
200.166
200.574
200.989
201.41
201.834
202.262
202.693
203.127
203.561
203.995
204.429
204.861
205.289
205.713
206.132
206.543
206.948
207.343
207.729
208.103
208.464
208.813
209.145
209.461
209.759
210.038
210.295
210.531
210.744
210.932
211.096
211.234
211.345
211.428
211.485
211.513
201.285
200.103
199.989
199.44
198.982
198.565
198.159
197.762
197.381
197.015
196.665
196.33
196.01
195.706
195.417
195.142
194.883
194.639
194.411
194.197
193.999
193.816
193.648
193.495
193.358
193.236
193.128
193.036
192.96
192.898
192.851
192.82
192.803
192.802
192.816
192.845
192.888
192.947
193.021
193.109
193.212
193.33
193.462
193.609
193.771
193.946
194.136
194.34
194.557
194.788
195.032
195.289
195.559
195.842
196.136
196.443
196.761
197.091
197.431
197.781
198.142
198.511
198.889
199.276
199.67
200.071
200.479
200.892
201.309
201.731
202.156
202.583
203.011
203.441
203.868
204.294
204.717
205.137
205.55
205.957
206.358
206.749
207.13
207.5
207.858
208.202
208.531
208.844
209.138
209.413
209.667
209.899
210.108
210.294
210.453
210.587
210.696
210.777
210.831
210.858
201.103
199.906
199.782
199.228
198.769
198.353
197.949
197.553
197.168
196.799
196.446
196.109
195.788
195.482
195.19
194.913
194.652
194.405
194.174
193.958
193.756
193.57
193.398
193.242
193.101
192.974
192.863
192.767
192.685
192.619
192.568
192.531
192.51
192.503
192.511
192.534
192.572
192.624
192.692
192.774
192.87
192.981
193.106
193.246
193.4
193.568
193.75
193.946
194.155
194.378
194.614
194.863
195.125
195.399
195.685
195.983
196.293
196.613
196.945
197.287
197.638
197.999
198.369
198.747
199.133
199.525
199.925
200.33
200.74
201.154
201.571
201.992
202.413
202.835
203.257
203.676
204.094
204.507
204.915
205.317
205.712
206.098
206.475
206.84
207.193
207.533
207.858
208.166
208.456
208.728
208.978
209.206
209.412
209.594
209.751
209.883
209.988
210.067
210.12
210.146
200.902
199.672
199.553
199.004
198.544
198.123
197.713
197.315
196.931
196.562
196.21
195.871
195.548
195.239
194.946
194.667
194.403
194.153
193.919
193.7
193.495
193.305
193.13
192.97
192.825
192.694
192.578
192.477
192.391
192.32
192.263
192.221
192.194
192.182
192.184
192.201
192.232
192.279
192.339
192.414
192.503
192.607
192.725
192.857
193.002
193.162
193.336
193.524
193.725
193.938
194.166
194.405
194.658
194.923
195.2
195.489
195.789
196.1
196.423
196.755
197.097
197.448
197.809
198.177
198.554
198.937
199.328
199.724
200.125
200.53
200.94
201.351
201.765
202.18
202.594
203.006
203.416
203.823
204.224
204.62
205.009
205.389
205.76
206.121
206.469
206.804
207.123
207.427
207.713
207.98
208.227
208.452
208.654
208.833
208.986
209.115
209.219
209.296
209.348
209.374
200.632
199.434
199.315
198.759
198.296
197.878
197.471
197.072
196.685
196.314
195.958
195.618
195.292
194.981
194.685
194.403
194.137
193.885
193.647
193.424
193.216
193.022
192.844
192.679
192.529
192.394
192.274
192.168
192.077
192
191.938
191.89
191.857
191.839
191.834
191.845
191.87
191.909
191.962
192.03
192.112
192.207
192.317
192.441
192.579
192.73
192.895
193.074
193.265
193.47
193.688
193.918
194.161
194.416
194.683
194.962
195.252
195.553
195.864
196.186
196.517
196.858
197.209
197.567
197.933
198.307
198.687
199.073
199.464
199.86
200.26
200.663
201.067
201.473
201.879
202.283
202.685
203.083
203.478
203.866
204.248
204.621
204.986
205.34
205.682
206.012
206.326
206.625
206.906
207.168
207.411
207.632
207.831
208.006
208.158
208.284
208.386
208.462
208.513
208.538
200.377
199.157
199.041
198.496
198.038
197.616
197.205
196.804
196.418
196.046
195.689
195.347
195.02
194.707
194.408
194.124
193.854
193.599
193.358
193.132
192.919
192.722
192.539
192.37
192.216
192.076
191.95
191.839
191.742
191.66
191.592
191.538
191.499
191.473
191.463
191.466
191.484
191.515
191.561
191.62
191.694
191.782
191.884
191.999
192.127
192.27
192.425
192.594
192.777
192.971
193.179
193.399
193.632
193.876
194.133
194.401
194.68
194.97
195.27
195.581
195.901
196.231
196.569
196.916
197.271
197.633
198.002
198.377
198.758
199.143
199.532
199.924
200.319
200.715
201.111
201.506
201.899
202.288
202.674
203.054
203.428
203.794
204.151
204.498
204.833
205.156
205.464
205.758
206.033
206.291
206.529
206.746
206.942
207.114
207.263
207.387
207.486
207.561
207.611
207.635
200.142
198.913
198.786
198.23
197.765
197.342
196.933
196.53
196.141
195.766
195.407
195.063
194.733
194.418
194.116
193.829
193.556
193.297
193.053
192.823
192.606
192.405
192.217
192.044
191.884
191.74
191.609
191.492
191.389
191.301
191.226
191.166
191.12
191.088
191.07
191.066
191.075
191.099
191.137
191.188
191.253
191.332
191.425
191.531
191.65
191.782
191.928
192.087
192.258
192.443
192.64
192.849
193.071
193.304
193.549
193.806
194.073
194.351
194.64
194.939
195.247
195.564
195.891
196.225
196.568
196.918
197.274
197.637
198.006
198.379
198.756
199.137
199.519
199.904
200.289
200.674
201.056
201.436
201.812
202.183
202.547
202.905
203.253
203.592
203.92
204.235
204.537
204.823
205.093
205.346
205.579
205.791
205.983
206.151
206.297
206.419
206.517
206.59
206.639
206.663
199.786
198.589
198.479
197.932
197.471
197.048
196.635
196.232
195.843
195.468
195.108
194.762
194.429
194.111
193.807
193.517
193.241
192.979
192.73
192.496
192.276
192.07
191.877
191.699
191.535
191.384
191.248
191.125
191.016
190.921
190.841
190.774
190.72
190.681
190.656
190.643
190.645
190.661
190.69
190.732
190.788
190.858
190.941
191.037
191.146
191.269
191.404
191.552
191.712
191.886
192.071
192.269
192.478
192.7
192.933
193.177
193.432
193.697
193.973
194.259
194.554
194.859
195.172
195.494
195.823
196.16
196.503
196.853
197.208
197.567
197.932
198.299
198.669
199.041
199.414
199.786
200.158
200.526
200.891
201.251
201.605
201.953
202.292
202.621
202.94
203.248
203.541
203.821
204.084
204.329
204.557
204.765
204.951
205.116
205.258
205.378
205.473
205.545
205.593
205.617
199.527
198.314
198.19
197.632
197.166
196.743
196.332
195.928
195.536
195.159
194.795
194.447
194.112
193.791
193.484
193.191
192.911
192.645
192.393
192.154
191.929
191.718
191.521
191.338
191.168
191.012
190.87
190.74
190.625
190.524
190.436
190.361
190.3
190.253
190.22
190.199
190.193
190.199
190.219
190.252
190.299
190.359
190.432
190.517
190.616
190.728
190.852
190.988
191.138
191.299
191.473
191.658
191.855
192.063
192.283
192.514
192.756
193.008
193.27
193.542
193.823
194.114
194.413
194.72
195.036
195.358
195.687
196.022
196.363
196.708
197.058
197.411
197.767
198.125
198.484
198.843
199.201
199.557
199.909
200.257
200.6
200.936
201.264
201.584
201.892
202.19
202.475
202.746
203.001
203.24
203.461
203.662
203.844
204.005
204.144
204.26
204.353
204.424
204.47
204.494
199.221
197.986
197.861
197.312
196.85
196.424
196.008
195.602
195.209
194.831
194.466
194.116
193.779
193.455
193.145
192.848
192.565
192.295
192.039
191.796
191.567
191.351
191.149
190.96
190.784
190.622
190.474
190.338
190.216
190.108
190.013
189.931
189.862
189.807
189.765
189.735
189.72
189.717
189.728
189.751
189.788
189.837
189.899
189.974
190.061
190.161
190.273
190.398
190.535
190.684
190.844
191.017
191.2
191.395
191.601
191.818
192.046
192.284
192.531
192.788
193.055
193.33
193.614
193.906
194.206
194.512
194.826
195.146
195.47
195.8
196.135
196.473
196.813
197.155
197.499
197.843
198.186
198.527
198.866
199.2
199.53
199.853
200.169
200.476
200.774
201.061
201.336
201.597
201.843
202.074
202.288
202.483
202.658
202.814
202.948
203.061
203.152
203.219
203.265
203.288
198.888
197.652
197.524
196.971
196.509
196.085
195.672
195.266
194.871
194.49
194.123
193.77
193.43
193.103
192.79
192.49
192.202
191.929
191.668
191.421
191.187
190.966
190.758
190.564
190.382
190.214
190.059
189.917
189.788
189.672
189.569
189.479
189.403
189.339
189.288
189.25
189.225
189.213
189.214
189.227
189.253
189.291
189.342
189.405
189.481
189.569
189.669
189.781
189.905
190.04
190.187
190.345
190.515
190.696
190.887
191.089
191.301
191.524
191.756
191.997
192.248
192.507
192.775
193.05
193.333
193.623
193.92
194.223
194.531
194.844
195.161
195.482
195.805
196.131
196.458
196.785
197.112
197.437
197.759
198.078
198.393
198.702
199.004
199.298
199.583
199.857
200.12
200.371
200.607
200.828
201.032
201.22
201.389
201.538
201.667
201.776
201.863
201.929
201.973
201.995
198.473
197.287
197.179
196.63
196.165
195.738
195.323
194.915
194.519
194.136
193.767
193.412
193.069
192.74
192.423
192.119
191.828
191.55
191.285
191.032
190.794
190.567
190.353
190.153
189.965
189.79
189.628
189.479
189.343
189.219
189.108
189.01
188.925
188.852
188.792
188.744
188.709
188.687
188.677
188.68
188.694
188.721
188.761
188.813
188.876
188.951
189.038
189.137
189.248
189.369
189.502
189.646
189.801
189.966
190.142
190.328
190.524
190.73
190.945
191.17
191.403
191.645
191.895
192.153
192.418
192.691
192.969
193.254
193.543
193.837
194.136
194.439
194.743
195.051
195.359
195.668
195.976
196.283
196.589
196.891
197.188
197.481
197.767
198.045
198.316
198.576
198.826
199.063
199.288
199.498
199.692
199.87
200.031
200.173
200.297
200.4
200.484
200.546
200.588
200.609
198.128
196.934
196.812
196.257
195.796
195.375
194.96
194.551
194.153
193.768
193.397
193.039
192.694
192.36
192.04
191.733
191.438
191.155
190.885
190.628
190.384
190.153
189.933
189.727
189.532
189.351
189.182
189.025
188.881
188.75
188.63
188.524
188.429
188.347
188.277
188.22
188.175
188.142
188.121
188.112
188.115
188.13
188.157
188.196
188.246
188.308
188.382
188.466
188.562
188.669
188.788
188.916
189.056
189.205
189.365
189.534
189.713
189.902
190.099
190.306
190.521
190.744
190.976
191.215
191.461
191.714
191.973
192.238
192.507
192.782
193.06
193.342
193.627
193.914
194.202
194.49
194.779
195.066
195.352
195.635
195.913
196.187
196.455
196.717
196.97
197.214
197.448
197.671
197.882
198.079
198.262
198.429
198.581
198.715
198.831
198.928
199.007
199.066
199.105
199.125
197.786
196.556
196.435
195.889
195.427
194.999
194.582
194.171
193.772
193.386
193.012
192.652
192.303
191.967
191.643
191.331
191.032
190.745
190.471
190.209
189.959
189.722
189.497
189.284
189.083
188.894
188.718
188.554
188.402
188.262
188.135
188.019
187.915
187.824
187.744
187.677
187.621
187.577
187.545
187.524
187.515
187.518
187.532
187.557
187.594
187.642
187.701
187.771
187.852
187.943
188.045
188.158
188.281
188.413
188.556
188.708
188.869
189.039
189.219
189.406
189.602
189.806
190.017
190.236
190.462
190.693
190.931
191.175
191.423
191.676
191.933
192.193
192.455
192.72
192.986
193.252
193.518
193.784
194.047
194.308
194.566
194.819
195.067
195.308
195.542
195.768
195.985
196.191
196.386
196.568
196.737
196.892
197.032
197.155
197.263
197.353
197.426
197.48
197.517
197.535
197.382
196.162
196.042
195.499
195.039
194.614
194.196
193.784
193.382
192.993
192.616
192.253
191.901
191.561
191.233
190.918
190.614
190.322
190.043
189.775
189.519
189.276
189.044
188.825
188.617
188.422
188.237
188.066
187.905
187.758
187.621
187.496
187.383
187.281
187.192
187.114
187.047
186.992
186.948
186.915
186.894
186.884
186.885
186.896
186.919
186.953
186.997
187.052
187.117
187.192
187.278
187.373
187.478
187.593
187.717
187.851
187.993
188.144
188.303
188.471
188.646
188.829
189.02
189.217
189.421
189.63
189.845
190.066
190.291
190.52
190.753
190.989
191.228
191.468
191.71
191.952
192.193
192.434
192.673
192.911
193.144
193.374
193.598
193.818
194.03
194.234
194.431
194.617
194.793
194.958
195.111
195.251
195.377
195.489
195.586
195.668
195.733
195.783
195.816
195.832
196.936
195.757
195.65
195.1
194.637
194.21
193.792
193.38
192.977
192.587
192.208
191.841
191.487
191.143
190.811
190.491
190.183
189.887
189.602
189.329
189.067
188.818
188.579
188.353
188.138
187.935
187.743
187.563
187.395
187.237
187.091
186.957
186.834
186.722
186.622
186.532
186.454
186.387
186.331
186.286
186.251
186.228
186.215
186.213
186.221
186.24
186.269
186.307
186.356
186.415
186.484
186.561
186.648
186.745
186.85
186.963
187.085
187.216
187.354
187.501
187.654
187.815
187.983
188.157
188.338
188.523
188.714
188.91
189.11
189.314
189.521
189.732
189.944
190.158
190.373
190.588
190.803
191.017
191.229
191.439
191.646
191.849
192.048
192.241
192.428
192.609
192.781
192.945
193.1
193.245
193.378
193.501
193.611
193.708
193.793
193.864
193.921
193.964
193.993
194.007
196.523
195.346
195.24
194.692
194.229
193.803
193.383
192.968
192.562
192.168
191.786
191.417
191.058
190.711
190.375
190.051
189.738
189.437
189.147
188.868
188.601
188.345
188.1
187.867
187.645
187.434
187.234
187.046
186.868
186.702
186.547
186.402
186.269
186.146
186.035
185.934
185.844
185.765
185.696
185.637
185.59
185.552
185.525
185.508
185.501
185.504
185.517
185.539
185.571
185.613
185.663
185.722
185.791
185.868
185.953
186.046
186.148
186.256
186.373
186.497
186.627
186.764
186.908
187.057
187.213
187.373
187.538
187.708
187.881
188.058
188.238
188.42
188.604
188.789
188.974
189.16
189.346
189.53
189.712
189.892
190.069
190.242
190.412
190.576
190.735
190.887
191.033
191.17
191.3
191.42
191.532
191.633
191.724
191.805
191.874
191.932
191.979
192.014
192.037
192.049
196.119
194.93
194.82
194.271
193.806
193.377
192.955
192.539
192.132
191.736
191.352
190.979
190.617
190.266
189.927
189.598
189.28
188.974
188.678
188.393
188.12
187.857
187.606
187.366
187.136
186.917
186.71
186.512
186.326
186.151
185.986
185.831
185.688
185.554
185.431
185.319
185.217
185.124
185.043
184.971
184.909
184.857
184.815
184.783
184.76
184.747
184.743
184.748
184.762
184.785
184.817
184.857
184.906
184.962
185.027
185.099
185.179
185.266
185.359
185.459
185.565
185.677
185.795
185.919
186.047
186.181
186.318
186.46
186.605
186.752
186.902
187.053
187.206
187.36
187.514
187.668
187.821
187.972
188.121
188.268
188.411
188.551
188.687
188.818
188.944
189.064
189.179
189.286
189.386
189.479
189.563
189.64
189.709
189.768
189.82
189.862
189.896
189.921
189.938
189.947
195.74
194.508
194.397
193.847
193.377
192.946
192.523
192.104
191.694
191.295
190.908
190.531
190.166
189.811
189.466
189.133
188.81
188.498
188.197
187.907
187.627
187.358
187.099
186.851
186.614
186.387
186.171
185.965
185.769
185.584
185.409
185.245
185.09
184.945
184.811
184.686
184.572
184.467
184.371
184.286
184.21
184.143
184.086
184.038
183.998
183.968
183.947
183.934
183.93
183.934
183.947
183.967
183.995
184.03
184.073
184.123
184.18
184.243
184.312
184.388
184.469
184.555
184.646
184.743
184.842
184.947
185.055
185.166
185.28
185.396
185.513
185.632
185.752
185.872
185.991
186.11
186.227
186.342
186.454
186.564
186.67
186.772
186.871
186.964
187.053
187.136
187.214
187.286
187.352
187.412
187.465
187.512
187.554
187.588
187.618
187.642
187.66
187.674
187.683
187.687
195.347
194.096
193.959
193.406
192.94
192.507
192.079
191.656
191.243
190.842
190.451
190.072
189.702
189.343
188.994
188.656
188.329
188.011
187.704
187.408
187.121
186.846
186.58
186.324
186.079
185.844
185.619
185.404
185.199
185.004
184.819
184.644
184.478
184.321
184.175
184.039
183.911
183.792
183.684
183.583
183.493
183.411
183.338
183.273
183.217
183.17
183.13
183.099
183.076
183.06
183.053
183.052
183.059
183.072
183.093
183.119
183.152
183.19
183.235
183.284
183.339
183.398
183.461
183.528
183.598
183.672
183.748
183.827
183.908
183.99
184.073
184.156
184.24
184.323
184.405
184.485
184.563
184.638
184.71
184.779
184.843
184.903
184.959
185.011
185.057
185.098
185.134
185.165
185.191
185.212
185.228
185.24
185.248
185.254
185.256
185.257
185.257
185.256
185.255
185.254
194.79
193.605
193.495
192.945
192.476
192.043
191.617
191.194
190.779
190.374
189.981
189.598
189.225
188.861
188.508
188.165
187.832
187.509
187.196
186.893
186.601
186.318
186.045
185.782
185.529
185.285
185.051
184.827
184.613
184.408
184.213
184.026
183.849
183.682
183.523
183.374
183.234
183.102
182.979
182.865
182.759
182.661
182.572
182.491
182.417
182.352
182.294
182.243
182.201
182.165
182.136
182.113
182.098
182.089
182.085
182.088
182.096
182.109
182.127
182.149
182.175
182.206
182.24
182.276
182.315
182.357
182.4
182.444
182.489
182.536
182.581
182.627
182.672
182.714
182.755
182.794
182.829
182.861
182.888
182.91
182.928
182.942
182.95
182.953
182.95
182.943
182.931
182.914
182.893
182.868
182.84
182.81
182.78
182.748
182.719
182.691
182.668
182.649
182.636
182.629
194.361
193.172
193.052
192.492
192.019
191.585
191.155
190.728
190.31
189.902
189.504
189.117
188.74
188.372
188.014
187.666
187.328
186.999
186.68
186.37
186.071
185.78
185.5
185.228
184.967
184.715
184.472
184.238
184.013
183.798
183.591
183.394
183.206
183.026
182.855
182.693
182.539
182.394
182.257
182.128
182.007
181.893
181.788
181.69
181.599
181.515
181.439
181.369
181.306
181.248
181.198
181.154
181.114
181.081
181.053
181.03
181.012
180.998
180.989
180.983
180.98
180.98
180.983
180.988
180.994
181.002
181.01
181.018
181.026
181.033
181.04
181.044
181.046
181.046
181.043
181.036
181.024
181.008
180.985
180.958
180.924
180.884
180.839
180.787
180.73
180.667
180.599
180.527
180.451
180.372
180.292
180.212
180.133
180.058
179.989
179.927
179.875
179.834
179.805
179.791
193.869
192.669
192.564
192.015
191.544
191.106
190.674
190.246
189.826
189.415
189.015
188.624
188.242
187.87
187.508
187.155
186.811
186.477
186.151
185.836
185.529
185.232
184.943
184.664
184.394
184.133
183.88
183.637
183.402
183.176
182.959
182.75
182.55
182.357
182.174
181.998
181.83
181.67
181.519
181.374
181.237
181.107
180.985
180.87
180.761
180.659
180.564
180.474
180.39
180.312
180.24
180.172
180.109
180.052
179.998
179.949
179.903
179.861
179.823
179.787
179.754
179.722
179.693
179.664
179.636
179.607
179.578
179.549
179.517
179.484
179.447
179.408
179.365
179.318
179.267
179.21
179.148
179.079
179.003
178.919
178.828
178.729
178.624
178.51
178.39
178.264
178.132
177.995
177.854
177.712
177.569
177.429
177.293
177.164
177.046
176.942
176.854
176.785
176.738
176.713
193.428
192.225
192.102
191.54
191.063
190.624
190.19
189.759
189.335
188.921
188.516
188.121
187.736
187.36
186.992
186.634
186.284
185.944
185.613
185.29
184.977
184.671
184.375
184.088
183.81
183.539
183.278
183.024
182.78
182.543
182.314
182.094
181.882
181.677
181.48
181.291
181.109
180.934
180.767
180.606
180.453
180.306
180.166
180.033
179.906
179.785
179.669
179.559
179.455
179.355
179.26
179.169
179.082
179
178.92
178.844
178.77
178.7
178.631
178.564
178.498
178.434
178.37
178.306
178.241
178.175
178.107
178.037
177.964
177.888
177.807
177.721
177.63
177.533
177.429
177.319
177.201
177.074
176.939
176.794
176.639
176.475
176.301
176.118
175.927
175.728
175.521
175.309
175.094
174.876
174.659
174.446
174.24
174.047
173.868
173.711
173.578
173.474
173.401
173.365
192.906
191.711
191.597
191.045
190.572
190.13
189.691
189.257
188.83
188.413
188.005
187.607
187.217
186.836
186.463
186.1
185.744
185.398
185.06
184.731
184.411
184.098
183.794
183.499
183.211
182.932
182.661
182.398
182.143
181.896
181.656
181.424
181.2
180.982
180.772
180.569
180.373
180.184
180.001
179.825
179.655
179.492
179.334
179.182
179.035
178.894
178.758
178.627
178.5
178.378
178.26
178.145
178.034
177.925
177.82
177.715
177.614
177.513
177.414
177.315
177.216
177.116
177.016
176.916
176.812
176.707
176.598
176.486
176.369
176.246
176.118
175.983
175.84
175.69
175.531
175.362
175.184
174.994
174.794
174.581
174.356
174.119
173.869
173.608
173.336
173.053
172.762
172.463
172.158
171.851
171.546
171.245
170.955
170.681
170.428
170.204
170.014
169.865
169.763
169.708
192.529
191.257
191.115
190.553
190.075
189.629
189.189
188.752
188.321
187.9
187.488
187.086
186.692
186.306
185.928
185.559
185.198
184.846
184.501
184.165
183.837
183.517
183.205
182.901
182.604
182.316
182.035
181.762
181.496
181.237
180.986
180.742
180.505
180.275
180.051
179.834
179.623
179.419
179.221
179.029
178.843
178.661
178.486
178.315
178.149
177.988
177.831
177.678
177.529
177.384
177.242
177.102
176.965
176.83
176.697
176.565
176.434
176.303
176.172
176.04
175.907
175.772
175.635
175.495
175.352
175.205
175.053
174.896
174.732
174.562
174.383
174.195
173.999
173.791
173.572
173.341
173.098
172.841
172.569
172.282
171.979
171.661
171.327
170.978
170.614
170.236
169.846
169.446
169.037
168.625
168.213
167.807