/*--------------------------------*- C++ -*----------------------------------*\
| =========                 |                                                 |
| \\      /  F ield         | OpenFOAM: The Open Source CFD Toolbox           |
|  \\    /   O peration     | Version:  4.1                                   |
|   \\  /    A nd           | Web:      www.OpenFOAM.org                      |
|    \\/     M anipulation  |                                                 |
\*---------------------------------------------------------------------------*/
FoamFile
{
    version     2.0;
    format      ascii;
    class       volScalarField;
    location    "0.2";
    object      pPrime2Mean;
}
// * * * * * * * * * * * * * * * * * * * * * * * * * * * * * * * * * * * * * //

dimensions      [0 4 -4 0 0 0 0];

internalField   nonuniform List<scalar> 
43750
(
1.83367e+09
1.82066e+09
1.80709e+09
1.79363e+09
1.78028e+09
1.76705e+09
1.75392e+09
1.7409e+09
1.72799e+09
1.71519e+09
1.7025e+09
1.68991e+09
1.67743e+09
1.66507e+09
1.6528e+09
1.64065e+09
1.6286e+09
1.61665e+09
1.60482e+09
1.59308e+09
1.58146e+09
1.56994e+09
1.55853e+09
1.54722e+09
1.53601e+09
1.52492e+09
1.51393e+09
1.50304e+09
1.49226e+09
1.48159e+09
1.47102e+09
1.46057e+09
1.45022e+09
1.43998e+09
1.42985e+09
1.41982e+09
1.40991e+09
1.4001e+09
1.39041e+09
1.38083e+09
1.37136e+09
1.362e+09
1.35276e+09
1.34364e+09
1.33463e+09
1.32573e+09
1.31696e+09
1.30829e+09
1.29976e+09
1.29134e+09
1.28304e+09
1.27487e+09
1.26682e+09
1.2589e+09
1.2511e+09
1.24343e+09
1.2359e+09
1.22849e+09
1.22122e+09
1.21408e+09
1.20708e+09
1.20022e+09
1.1935e+09
1.18692e+09
1.18048e+09
1.17419e+09
1.16804e+09
1.16205e+09
1.1562e+09
1.15051e+09
1.14498e+09
1.1396e+09
1.13438e+09
1.12933e+09
1.12444e+09
1.11971e+09
1.11515e+09
1.11076e+09
1.10654e+09
1.1025e+09
1.09864e+09
1.09495e+09
1.09144e+09
1.08812e+09
1.08498e+09
1.08203e+09
1.07926e+09
1.07669e+09
1.0743e+09
1.07211e+09
1.07012e+09
1.06831e+09
1.06671e+09
1.0653e+09
1.06409e+09
1.06309e+09
1.06228e+09
1.06168e+09
1.06127e+09
1.06107e+09
1.83368e+09
1.82063e+09
1.80705e+09
1.79359e+09
1.78023e+09
1.76699e+09
1.75386e+09
1.74084e+09
1.72793e+09
1.71513e+09
1.70244e+09
1.68985e+09
1.67737e+09
1.665e+09
1.65274e+09
1.64058e+09
1.62853e+09
1.61659e+09
1.60476e+09
1.59302e+09
1.58139e+09
1.56988e+09
1.55846e+09
1.54715e+09
1.53595e+09
1.52485e+09
1.51386e+09
1.50297e+09
1.49219e+09
1.48152e+09
1.47096e+09
1.4605e+09
1.45015e+09
1.43991e+09
1.42977e+09
1.41975e+09
1.40983e+09
1.40003e+09
1.39034e+09
1.38075e+09
1.37128e+09
1.36192e+09
1.35268e+09
1.34355e+09
1.33454e+09
1.32564e+09
1.31686e+09
1.3082e+09
1.29966e+09
1.29124e+09
1.28294e+09
1.27477e+09
1.26672e+09
1.2588e+09
1.251e+09
1.24333e+09
1.23579e+09
1.22838e+09
1.2211e+09
1.21397e+09
1.20697e+09
1.2001e+09
1.19338e+09
1.18679e+09
1.18035e+09
1.17406e+09
1.16791e+09
1.16191e+09
1.15607e+09
1.15037e+09
1.14483e+09
1.13945e+09
1.13423e+09
1.12918e+09
1.12428e+09
1.11955e+09
1.11499e+09
1.11059e+09
1.10637e+09
1.10233e+09
1.09847e+09
1.09478e+09
1.09126e+09
1.08794e+09
1.0848e+09
1.08184e+09
1.07907e+09
1.07649e+09
1.07411e+09
1.07192e+09
1.06992e+09
1.06812e+09
1.06651e+09
1.0651e+09
1.0639e+09
1.06289e+09
1.06208e+09
1.06147e+09
1.06107e+09
1.06087e+09
1.83357e+09
1.82054e+09
1.80695e+09
1.79349e+09
1.78013e+09
1.76688e+09
1.75375e+09
1.74073e+09
1.72782e+09
1.71502e+09
1.70232e+09
1.68973e+09
1.67726e+09
1.66489e+09
1.65262e+09
1.64046e+09
1.62842e+09
1.61647e+09
1.60463e+09
1.5929e+09
1.58127e+09
1.56975e+09
1.55833e+09
1.54702e+09
1.53582e+09
1.52472e+09
1.51373e+09
1.50284e+09
1.49206e+09
1.48139e+09
1.47082e+09
1.46036e+09
1.45001e+09
1.43976e+09
1.42962e+09
1.4196e+09
1.40968e+09
1.39988e+09
1.39018e+09
1.38059e+09
1.37112e+09
1.36176e+09
1.35251e+09
1.34339e+09
1.33437e+09
1.32547e+09
1.31669e+09
1.30802e+09
1.29948e+09
1.29105e+09
1.28275e+09
1.27457e+09
1.26652e+09
1.25859e+09
1.25079e+09
1.24312e+09
1.23557e+09
1.22816e+09
1.22088e+09
1.21374e+09
1.20673e+09
1.19986e+09
1.19313e+09
1.18654e+09
1.1801e+09
1.1738e+09
1.16764e+09
1.16164e+09
1.15579e+09
1.15009e+09
1.14455e+09
1.13916e+09
1.13394e+09
1.12887e+09
1.12397e+09
1.11923e+09
1.11466e+09
1.11027e+09
1.10604e+09
1.10199e+09
1.09812e+09
1.09443e+09
1.09091e+09
1.08758e+09
1.08443e+09
1.08147e+09
1.0787e+09
1.07612e+09
1.07373e+09
1.07153e+09
1.06953e+09
1.06773e+09
1.06612e+09
1.0647e+09
1.0635e+09
1.06249e+09
1.06168e+09
1.06107e+09
1.06067e+09
1.06047e+09
1.83344e+09
1.82041e+09
1.80681e+09
1.79334e+09
1.77997e+09
1.76673e+09
1.75359e+09
1.74056e+09
1.72765e+09
1.71485e+09
1.70215e+09
1.68956e+09
1.67708e+09
1.66471e+09
1.65245e+09
1.64029e+09
1.62824e+09
1.61629e+09
1.60445e+09
1.59271e+09
1.58109e+09
1.56956e+09
1.55814e+09
1.54683e+09
1.53563e+09
1.52453e+09
1.51353e+09
1.50264e+09
1.49186e+09
1.48118e+09
1.47061e+09
1.46015e+09
1.44979e+09
1.43955e+09
1.42941e+09
1.41938e+09
1.40946e+09
1.39965e+09
1.38995e+09
1.38036e+09
1.37088e+09
1.36152e+09
1.35227e+09
1.34313e+09
1.33411e+09
1.3252e+09
1.31642e+09
1.30775e+09
1.2992e+09
1.29077e+09
1.28246e+09
1.27428e+09
1.26622e+09
1.25828e+09
1.25047e+09
1.2428e+09
1.23524e+09
1.22783e+09
1.22054e+09
1.21339e+09
1.20638e+09
1.1995e+09
1.19276e+09
1.18617e+09
1.17971e+09
1.1734e+09
1.16724e+09
1.16123e+09
1.15537e+09
1.14966e+09
1.14411e+09
1.13872e+09
1.13349e+09
1.12841e+09
1.1235e+09
1.11876e+09
1.11418e+09
1.10978e+09
1.10554e+09
1.10148e+09
1.0976e+09
1.0939e+09
1.09038e+09
1.08704e+09
1.08389e+09
1.08092e+09
1.07814e+09
1.07556e+09
1.07316e+09
1.07096e+09
1.06895e+09
1.06714e+09
1.06553e+09
1.06411e+09
1.0629e+09
1.06189e+09
1.06108e+09
1.06047e+09
1.06006e+09
1.05986e+09
1.8333e+09
1.82024e+09
1.80663e+09
1.79313e+09
1.77977e+09
1.76651e+09
1.75337e+09
1.74034e+09
1.72742e+09
1.71461e+09
1.70192e+09
1.68933e+09
1.67685e+09
1.66447e+09
1.65221e+09
1.64005e+09
1.62799e+09
1.61605e+09
1.60421e+09
1.59247e+09
1.58084e+09
1.56931e+09
1.55789e+09
1.54658e+09
1.53537e+09
1.52426e+09
1.51327e+09
1.50238e+09
1.49159e+09
1.48091e+09
1.47034e+09
1.45987e+09
1.44951e+09
1.43926e+09
1.42912e+09
1.41908e+09
1.40916e+09
1.39934e+09
1.38964e+09
1.38004e+09
1.37056e+09
1.36119e+09
1.35193e+09
1.34279e+09
1.33377e+09
1.32485e+09
1.31606e+09
1.30739e+09
1.29883e+09
1.29039e+09
1.28208e+09
1.27389e+09
1.26581e+09
1.25788e+09
1.25006e+09
1.24237e+09
1.23481e+09
1.22739e+09
1.22009e+09
1.21293e+09
1.2059e+09
1.19901e+09
1.19227e+09
1.18566e+09
1.1792e+09
1.17288e+09
1.16671e+09
1.16069e+09
1.15482e+09
1.1491e+09
1.14354e+09
1.13813e+09
1.13289e+09
1.1278e+09
1.12288e+09
1.11813e+09
1.11354e+09
1.10912e+09
1.10488e+09
1.10081e+09
1.09692e+09
1.09321e+09
1.08967e+09
1.08632e+09
1.08316e+09
1.08018e+09
1.0774e+09
1.0748e+09
1.0724e+09
1.07019e+09
1.06817e+09
1.06636e+09
1.06474e+09
1.06332e+09
1.0621e+09
1.06109e+09
1.06027e+09
1.05966e+09
1.05925e+09
1.05905e+09
1.8331e+09
1.82002e+09
1.80638e+09
1.79288e+09
1.7795e+09
1.76624e+09
1.75309e+09
1.74006e+09
1.72714e+09
1.71433e+09
1.70163e+09
1.68904e+09
1.67655e+09
1.66418e+09
1.65191e+09
1.63975e+09
1.62769e+09
1.61574e+09
1.6039e+09
1.59216e+09
1.58053e+09
1.569e+09
1.55758e+09
1.54626e+09
1.53505e+09
1.52394e+09
1.51294e+09
1.50204e+09
1.49125e+09
1.48057e+09
1.46999e+09
1.45952e+09
1.44916e+09
1.4389e+09
1.42875e+09
1.41871e+09
1.40878e+09
1.39896e+09
1.38925e+09
1.37965e+09
1.37016e+09
1.36078e+09
1.35152e+09
1.34237e+09
1.33333e+09
1.32442e+09
1.31561e+09
1.30693e+09
1.29836e+09
1.28992e+09
1.2816e+09
1.27339e+09
1.26531e+09
1.25737e+09
1.24954e+09
1.24184e+09
1.23427e+09
1.22683e+09
1.21952e+09
1.21235e+09
1.20531e+09
1.19841e+09
1.19166e+09
1.18504e+09
1.17856e+09
1.17223e+09
1.16605e+09
1.16001e+09
1.15413e+09
1.14839e+09
1.14281e+09
1.1374e+09
1.13214e+09
1.12704e+09
1.1221e+09
1.11733e+09
1.11273e+09
1.1083e+09
1.10404e+09
1.09996e+09
1.09606e+09
1.09233e+09
1.08878e+09
1.08542e+09
1.08225e+09
1.07926e+09
1.07646e+09
1.07386e+09
1.07144e+09
1.06922e+09
1.0672e+09
1.06538e+09
1.06375e+09
1.06233e+09
1.0611e+09
1.06008e+09
1.05926e+09
1.05865e+09
1.05824e+09
1.05804e+09
1.83288e+09
1.81974e+09
1.80608e+09
1.79256e+09
1.77917e+09
1.7659e+09
1.75275e+09
1.73972e+09
1.72679e+09
1.71398e+09
1.70128e+09
1.68869e+09
1.6762e+09
1.66383e+09
1.65156e+09
1.63939e+09
1.62733e+09
1.61538e+09
1.60353e+09
1.59179e+09
1.58016e+09
1.56863e+09
1.5572e+09
1.54588e+09
1.53466e+09
1.52355e+09
1.51254e+09
1.50165e+09
1.49085e+09
1.48016e+09
1.46958e+09
1.4591e+09
1.44873e+09
1.43847e+09
1.42831e+09
1.41827e+09
1.40833e+09
1.3985e+09
1.38878e+09
1.37918e+09
1.36968e+09
1.3603e+09
1.35102e+09
1.34187e+09
1.33282e+09
1.32389e+09
1.31508e+09
1.30638e+09
1.29781e+09
1.28935e+09
1.28102e+09
1.27281e+09
1.26472e+09
1.25675e+09
1.24891e+09
1.2412e+09
1.23362e+09
1.22617e+09
1.21885e+09
1.21166e+09
1.20461e+09
1.1977e+09
1.19092e+09
1.18429e+09
1.17779e+09
1.17145e+09
1.16525e+09
1.15919e+09
1.15329e+09
1.14754e+09
1.14195e+09
1.13651e+09
1.13124e+09
1.12612e+09
1.12117e+09
1.11638e+09
1.11177e+09
1.10732e+09
1.10305e+09
1.09894e+09
1.09502e+09
1.09128e+09
1.08772e+09
1.08435e+09
1.08116e+09
1.07816e+09
1.07534e+09
1.07272e+09
1.0703e+09
1.06807e+09
1.06603e+09
1.0642e+09
1.06256e+09
1.06113e+09
1.05991e+09
1.05888e+09
1.05805e+09
1.05744e+09
1.05702e+09
1.05682e+09
1.83247e+09
1.81937e+09
1.80571e+09
1.79218e+09
1.77878e+09
1.76551e+09
1.75235e+09
1.73932e+09
1.72639e+09
1.71358e+09
1.70087e+09
1.68828e+09
1.67579e+09
1.66341e+09
1.65114e+09
1.63897e+09
1.62691e+09
1.61496e+09
1.60311e+09
1.59136e+09
1.57972e+09
1.56819e+09
1.55676e+09
1.54543e+09
1.53421e+09
1.5231e+09
1.51209e+09
1.50118e+09
1.49038e+09
1.47969e+09
1.4691e+09
1.45861e+09
1.44824e+09
1.43797e+09
1.42781e+09
1.41775e+09
1.40781e+09
1.39797e+09
1.38824e+09
1.37863e+09
1.36912e+09
1.35972e+09
1.35044e+09
1.34127e+09
1.33222e+09
1.32328e+09
1.31446e+09
1.30575e+09
1.29717e+09
1.2887e+09
1.28035e+09
1.27212e+09
1.26402e+09
1.25604e+09
1.24818e+09
1.24046e+09
1.23286e+09
1.22539e+09
1.21806e+09
1.21085e+09
1.20379e+09
1.19686e+09
1.19006e+09
1.18341e+09
1.1769e+09
1.17054e+09
1.16432e+09
1.15825e+09
1.15232e+09
1.14656e+09
1.14095e+09
1.13549e+09
1.13019e+09
1.12506e+09
1.12008e+09
1.11528e+09
1.11064e+09
1.10617e+09
1.10188e+09
1.09776e+09
1.09382e+09
1.09006e+09
1.08648e+09
1.08309e+09
1.07988e+09
1.07686e+09
1.07404e+09
1.0714e+09
1.06896e+09
1.06672e+09
1.06467e+09
1.06283e+09
1.06118e+09
1.05974e+09
1.0585e+09
1.05747e+09
1.05664e+09
1.05602e+09
1.05561e+09
1.0554e+09
1.83212e+09
1.81895e+09
1.80527e+09
1.79173e+09
1.77833e+09
1.76505e+09
1.7519e+09
1.73885e+09
1.72593e+09
1.71311e+09
1.70041e+09
1.68781e+09
1.67532e+09
1.66294e+09
1.65067e+09
1.6385e+09
1.62643e+09
1.61448e+09
1.60262e+09
1.59088e+09
1.57923e+09
1.56769e+09
1.55626e+09
1.54493e+09
1.5337e+09
1.52258e+09
1.51157e+09
1.50065e+09
1.48985e+09
1.47915e+09
1.46855e+09
1.45806e+09
1.44768e+09
1.4374e+09
1.42723e+09
1.41716e+09
1.40721e+09
1.39736e+09
1.38763e+09
1.378e+09
1.36848e+09
1.35908e+09
1.34978e+09
1.3406e+09
1.33154e+09
1.32259e+09
1.31375e+09
1.30503e+09
1.29643e+09
1.28795e+09
1.27958e+09
1.27134e+09
1.26322e+09
1.25523e+09
1.24735e+09
1.23961e+09
1.232e+09
1.22451e+09
1.21716e+09
1.20994e+09
1.20285e+09
1.1959e+09
1.18909e+09
1.18241e+09
1.17588e+09
1.1695e+09
1.16326e+09
1.15716e+09
1.15122e+09
1.14543e+09
1.13979e+09
1.13432e+09
1.129e+09
1.12384e+09
1.11884e+09
1.11402e+09
1.10935e+09
1.10486e+09
1.10055e+09
1.09641e+09
1.09244e+09
1.08866e+09
1.08506e+09
1.08165e+09
1.07842e+09
1.07538e+09
1.07254e+09
1.06989e+09
1.06743e+09
1.06517e+09
1.06311e+09
1.06125e+09
1.0596e+09
1.05814e+09
1.0569e+09
1.05586e+09
1.05502e+09
1.05439e+09
1.05398e+09
1.05377e+09
1.83166e+09
1.81845e+09
1.80475e+09
1.79122e+09
1.77781e+09
1.76453e+09
1.75138e+09
1.73833e+09
1.72541e+09
1.71259e+09
1.69988e+09
1.68728e+09
1.67479e+09
1.66241e+09
1.65014e+09
1.63796e+09
1.6259e+09
1.61393e+09
1.60208e+09
1.59033e+09
1.57868e+09
1.56714e+09
1.5557e+09
1.54436e+09
1.53313e+09
1.522e+09
1.51098e+09
1.50006e+09
1.48925e+09
1.47854e+09
1.46793e+09
1.45744e+09
1.44704e+09
1.43676e+09
1.42658e+09
1.4165e+09
1.40654e+09
1.39668e+09
1.38693e+09
1.3773e+09
1.36777e+09
1.35835e+09
1.34904e+09
1.33985e+09
1.33077e+09
1.32181e+09
1.31295e+09
1.30422e+09
1.2956e+09
1.2871e+09
1.27872e+09
1.27046e+09
1.26232e+09
1.25431e+09
1.24642e+09
1.23866e+09
1.23103e+09
1.22352e+09
1.21615e+09
1.2089e+09
1.20179e+09
1.19482e+09
1.18799e+09
1.18129e+09
1.17474e+09
1.16833e+09
1.16206e+09
1.15595e+09
1.14998e+09
1.14417e+09
1.1385e+09
1.133e+09
1.12765e+09
1.12247e+09
1.11745e+09
1.11259e+09
1.10791e+09
1.10339e+09
1.09905e+09
1.09489e+09
1.09089e+09
1.08709e+09
1.08346e+09
1.08003e+09
1.07678e+09
1.07372e+09
1.07085e+09
1.06818e+09
1.0657e+09
1.06343e+09
1.06135e+09
1.05948e+09
1.05781e+09
1.05635e+09
1.05509e+09
1.05404e+09
1.0532e+09
1.05257e+09
1.05214e+09
1.05194e+09
1.83098e+09
1.81782e+09
1.80415e+09
1.79062e+09
1.77723e+09
1.76395e+09
1.7508e+09
1.73776e+09
1.72483e+09
1.71201e+09
1.6993e+09
1.6867e+09
1.67421e+09
1.66182e+09
1.64954e+09
1.63737e+09
1.6253e+09
1.61333e+09
1.60147e+09
1.58972e+09
1.57806e+09
1.56652e+09
1.55507e+09
1.54373e+09
1.53249e+09
1.52136e+09
1.51033e+09
1.4994e+09
1.48858e+09
1.47786e+09
1.46725e+09
1.45674e+09
1.44634e+09
1.43604e+09
1.42586e+09
1.41577e+09
1.4058e+09
1.39593e+09
1.38617e+09
1.37652e+09
1.36698e+09
1.35754e+09
1.34822e+09
1.33901e+09
1.32992e+09
1.32093e+09
1.31207e+09
1.30332e+09
1.29469e+09
1.28617e+09
1.27777e+09
1.26949e+09
1.26133e+09
1.2533e+09
1.24539e+09
1.23761e+09
1.22995e+09
1.22242e+09
1.21502e+09
1.20776e+09
1.20063e+09
1.19363e+09
1.18677e+09
1.18005e+09
1.17347e+09
1.16703e+09
1.16074e+09
1.15459e+09
1.1486e+09
1.14276e+09
1.13707e+09
1.13154e+09
1.12616e+09
1.12095e+09
1.1159e+09
1.11101e+09
1.1063e+09
1.10175e+09
1.09738e+09
1.09319e+09
1.08917e+09
1.08534e+09
1.08169e+09
1.07823e+09
1.07495e+09
1.07187e+09
1.06898e+09
1.06628e+09
1.06379e+09
1.06149e+09
1.0594e+09
1.05751e+09
1.05582e+09
1.05434e+09
1.05308e+09
1.05202e+09
1.05116e+09
1.05053e+09
1.0501e+09
1.04989e+09
1.83014e+09
1.8171e+09
1.80348e+09
1.78997e+09
1.77658e+09
1.76331e+09
1.75016e+09
1.73712e+09
1.72419e+09
1.71137e+09
1.69866e+09
1.68606e+09
1.67357e+09
1.66118e+09
1.64889e+09
1.63672e+09
1.62465e+09
1.61267e+09
1.60081e+09
1.58905e+09
1.57739e+09
1.56584e+09
1.55439e+09
1.54304e+09
1.53179e+09
1.52065e+09
1.50962e+09
1.49868e+09
1.48785e+09
1.47713e+09
1.46651e+09
1.45599e+09
1.44557e+09
1.43527e+09
1.42506e+09
1.41497e+09
1.40498e+09
1.3951e+09
1.38532e+09
1.37566e+09
1.3661e+09
1.35666e+09
1.34732e+09
1.3381e+09
1.32898e+09
1.31999e+09
1.3111e+09
1.30233e+09
1.29368e+09
1.28514e+09
1.27672e+09
1.26843e+09
1.26025e+09
1.25219e+09
1.24426e+09
1.23645e+09
1.22877e+09
1.22122e+09
1.2138e+09
1.20651e+09
1.19935e+09
1.19232e+09
1.18543e+09
1.17868e+09
1.17207e+09
1.16561e+09
1.15929e+09
1.15311e+09
1.14709e+09
1.14122e+09
1.13549e+09
1.12993e+09
1.12452e+09
1.11927e+09
1.1142e+09
1.10928e+09
1.10453e+09
1.09995e+09
1.09555e+09
1.09133e+09
1.08728e+09
1.08342e+09
1.07973e+09
1.07624e+09
1.07294e+09
1.06983e+09
1.06691e+09
1.06419e+09
1.06167e+09
1.05935e+09
1.05724e+09
1.05533e+09
1.05363e+09
1.05214e+09
1.05086e+09
1.04978e+09
1.04892e+09
1.04828e+09
1.04785e+09
1.04764e+09
1.82943e+09
1.81637e+09
1.80275e+09
1.78926e+09
1.77588e+09
1.76261e+09
1.74946e+09
1.73643e+09
1.72349e+09
1.71067e+09
1.69797e+09
1.68536e+09
1.67286e+09
1.66048e+09
1.64819e+09
1.63601e+09
1.62393e+09
1.61196e+09
1.60009e+09
1.58832e+09
1.57666e+09
1.5651e+09
1.55364e+09
1.54229e+09
1.53103e+09
1.51989e+09
1.50884e+09
1.4979e+09
1.48706e+09
1.47632e+09
1.46569e+09
1.45516e+09
1.44474e+09
1.43442e+09
1.4242e+09
1.4141e+09
1.40409e+09
1.3942e+09
1.38441e+09
1.37473e+09
1.36516e+09
1.35569e+09
1.34634e+09
1.3371e+09
1.32797e+09
1.31896e+09
1.31005e+09
1.30126e+09
1.29259e+09
1.28402e+09
1.27559e+09
1.26726e+09
1.25906e+09
1.25098e+09
1.24303e+09
1.23519e+09
1.22749e+09
1.21991e+09
1.21246e+09
1.20514e+09
1.19795e+09
1.1909e+09
1.18398e+09
1.1772e+09
1.17056e+09
1.16406e+09
1.15771e+09
1.1515e+09
1.14544e+09
1.13953e+09
1.13378e+09
1.12818e+09
1.12274e+09
1.11746e+09
1.11234e+09
1.10739e+09
1.1026e+09
1.09799e+09
1.09356e+09
1.08929e+09
1.08521e+09
1.08131e+09
1.0776e+09
1.07408e+09
1.07075e+09
1.0676e+09
1.06465e+09
1.06191e+09
1.05936e+09
1.05702e+09
1.05488e+09
1.05295e+09
1.05123e+09
1.04972e+09
1.04842e+09
1.04734e+09
1.04648e+09
1.04582e+09
1.04539e+09
1.04517e+09
1.82865e+09
1.81558e+09
1.80198e+09
1.78849e+09
1.77511e+09
1.76186e+09
1.74871e+09
1.73567e+09
1.72274e+09
1.70993e+09
1.69721e+09
1.68461e+09
1.67211e+09
1.65972e+09
1.64743e+09
1.63524e+09
1.62316e+09
1.61119e+09
1.59931e+09
1.58754e+09
1.57587e+09
1.5643e+09
1.55283e+09
1.54147e+09
1.53022e+09
1.51906e+09
1.508e+09
1.49705e+09
1.4862e+09
1.47545e+09
1.46481e+09
1.45427e+09
1.44383e+09
1.4335e+09
1.42328e+09
1.41315e+09
1.40314e+09
1.39323e+09
1.38342e+09
1.37373e+09
1.36414e+09
1.35466e+09
1.34528e+09
1.33603e+09
1.32688e+09
1.31784e+09
1.30891e+09
1.3001e+09
1.29141e+09
1.28283e+09
1.27436e+09
1.26601e+09
1.25779e+09
1.24968e+09
1.2417e+09
1.23384e+09
1.2261e+09
1.21849e+09
1.21101e+09
1.20366e+09
1.19645e+09
1.18936e+09
1.18241e+09
1.1756e+09
1.16892e+09
1.16239e+09
1.156e+09
1.14976e+09
1.14366e+09
1.13771e+09
1.13192e+09
1.12628e+09
1.1208e+09
1.11549e+09
1.11033e+09
1.10534e+09
1.10052e+09
1.09587e+09
1.09139e+09
1.08709e+09
1.08297e+09
1.07904e+09
1.07529e+09
1.07173e+09
1.06836e+09
1.06518e+09
1.06221e+09
1.05943e+09
1.05686e+09
1.05448e+09
1.05232e+09
1.05037e+09
1.04863e+09
1.0471e+09
1.04578e+09
1.04469e+09
1.04381e+09
1.04315e+09
1.04271e+09
1.04249e+09
1.82776e+09
1.81475e+09
1.80115e+09
1.78767e+09
1.7743e+09
1.76105e+09
1.7479e+09
1.73486e+09
1.72194e+09
1.70912e+09
1.69641e+09
1.6838e+09
1.6713e+09
1.6589e+09
1.64661e+09
1.63442e+09
1.62233e+09
1.61035e+09
1.59847e+09
1.58669e+09
1.57502e+09
1.56344e+09
1.55197e+09
1.5406e+09
1.52933e+09
1.51817e+09
1.5071e+09
1.49614e+09
1.48528e+09
1.47452e+09
1.46387e+09
1.45332e+09
1.44286e+09
1.43252e+09
1.42228e+09
1.41214e+09
1.40211e+09
1.39218e+09
1.38236e+09
1.37265e+09
1.36304e+09
1.35355e+09
1.34415e+09
1.33487e+09
1.3257e+09
1.31664e+09
1.3077e+09
1.29886e+09
1.29014e+09
1.28153e+09
1.27304e+09
1.26467e+09
1.25642e+09
1.24828e+09
1.24027e+09
1.23238e+09
1.22462e+09
1.21698e+09
1.20947e+09
1.20208e+09
1.19483e+09
1.18771e+09
1.18072e+09
1.17387e+09
1.16716e+09
1.16059e+09
1.15416e+09
1.14788e+09
1.14174e+09
1.13576e+09
1.12993e+09
1.12425e+09
1.11873e+09
1.11337e+09
1.10817e+09
1.10314e+09
1.09827e+09
1.09358e+09
1.08906e+09
1.08472e+09
1.08056e+09
1.07659e+09
1.0728e+09
1.0692e+09
1.06579e+09
1.06258e+09
1.05957e+09
1.05676e+09
1.05415e+09
1.05175e+09
1.04956e+09
1.04758e+09
1.04581e+09
1.04426e+09
1.04293e+09
1.04182e+09
1.04093e+09
1.04026e+09
1.03981e+09
1.03959e+09
1.82698e+09
1.8139e+09
1.80029e+09
1.7868e+09
1.77344e+09
1.76018e+09
1.74704e+09
1.734e+09
1.72108e+09
1.70826e+09
1.69554e+09
1.68294e+09
1.67043e+09
1.65803e+09
1.64574e+09
1.63354e+09
1.62145e+09
1.60946e+09
1.59758e+09
1.58579e+09
1.57411e+09
1.56253e+09
1.55105e+09
1.53967e+09
1.52839e+09
1.51722e+09
1.50614e+09
1.49517e+09
1.4843e+09
1.47353e+09
1.46286e+09
1.45229e+09
1.44183e+09
1.43147e+09
1.42121e+09
1.41106e+09
1.40102e+09
1.39107e+09
1.38123e+09
1.3715e+09
1.36187e+09
1.35235e+09
1.34294e+09
1.33364e+09
1.32445e+09
1.31537e+09
1.3064e+09
1.29753e+09
1.28878e+09
1.28015e+09
1.27164e+09
1.26324e+09
1.25496e+09
1.24679e+09
1.23875e+09
1.23083e+09
1.22303e+09
1.21536e+09
1.20781e+09
1.20039e+09
1.1931e+09
1.18594e+09
1.17892e+09
1.17203e+09
1.16528e+09
1.15867e+09
1.1522e+09
1.14588e+09
1.1397e+09
1.13367e+09
1.12779e+09
1.12207e+09
1.11651e+09
1.1111e+09
1.10586e+09
1.10078e+09
1.09587e+09
1.09113e+09
1.08657e+09
1.08218e+09
1.07798e+09
1.07396e+09
1.07012e+09
1.06648e+09
1.06303e+09
1.05978e+09
1.05673e+09
1.05388e+09
1.05124e+09
1.04881e+09
1.04659e+09
1.04458e+09
1.04279e+09
1.04122e+09
1.03987e+09
1.03874e+09
1.03784e+09
1.03715e+09
1.0367e+09
1.03648e+09
1.82606e+09
1.81298e+09
1.79937e+09
1.78588e+09
1.77252e+09
1.75926e+09
1.74612e+09
1.73309e+09
1.72016e+09
1.70734e+09
1.69462e+09
1.68202e+09
1.66951e+09
1.65711e+09
1.6448e+09
1.63261e+09
1.62051e+09
1.60852e+09
1.59663e+09
1.58483e+09
1.57314e+09
1.56156e+09
1.55007e+09
1.53868e+09
1.52739e+09
1.51621e+09
1.50512e+09
1.49414e+09
1.48325e+09
1.47247e+09
1.46179e+09
1.45121e+09
1.44073e+09
1.43036e+09
1.42009e+09
1.40991e+09
1.39985e+09
1.38989e+09
1.38003e+09
1.37028e+09
1.36063e+09
1.35109e+09
1.34166e+09
1.33233e+09
1.32311e+09
1.31401e+09
1.30501e+09
1.29612e+09
1.28735e+09
1.27869e+09
1.27015e+09
1.26171e+09
1.2534e+09
1.24521e+09
1.23713e+09
1.22918e+09
1.22134e+09
1.21363e+09
1.20605e+09
1.19859e+09
1.19127e+09
1.18407e+09
1.17701e+09
1.17007e+09
1.16328e+09
1.15663e+09
1.15012e+09
1.14375e+09
1.13752e+09
1.13144e+09
1.12552e+09
1.11975e+09
1.11414e+09
1.10868e+09
1.10339e+09
1.09826e+09
1.09331e+09
1.08852e+09
1.08391e+09
1.07947e+09
1.07522e+09
1.07115e+09
1.06727e+09
1.06358e+09
1.06009e+09
1.05679e+09
1.0537e+09
1.05081e+09
1.04814e+09
1.04567e+09
1.04341e+09
1.04137e+09
1.03956e+09
1.03796e+09
1.03658e+09
1.03544e+09
1.03452e+09
1.03383e+09
1.03337e+09
1.03314e+09
1.825e+09
1.81198e+09
1.79838e+09
1.78491e+09
1.77154e+09
1.75829e+09
1.74515e+09
1.73212e+09
1.71919e+09
1.70637e+09
1.69365e+09
1.68104e+09
1.66853e+09
1.65613e+09
1.64382e+09
1.63162e+09
1.61952e+09
1.60752e+09
1.59562e+09
1.58383e+09
1.57213e+09
1.56053e+09
1.54903e+09
1.53763e+09
1.52634e+09
1.51514e+09
1.50404e+09
1.49305e+09
1.48215e+09
1.47136e+09
1.46066e+09
1.45007e+09
1.43957e+09
1.42918e+09
1.41889e+09
1.40871e+09
1.39862e+09
1.38864e+09
1.37876e+09
1.36899e+09
1.35932e+09
1.34976e+09
1.3403e+09
1.33095e+09
1.32171e+09
1.31258e+09
1.30355e+09
1.29464e+09
1.28583e+09
1.27714e+09
1.26857e+09
1.26011e+09
1.25176e+09
1.24353e+09
1.23542e+09
1.22743e+09
1.21956e+09
1.21181e+09
1.20419e+09
1.19669e+09
1.18932e+09
1.18208e+09
1.17497e+09
1.168e+09
1.16116e+09
1.15447e+09
1.1479e+09
1.14149e+09
1.13521e+09
1.12909e+09
1.12312e+09
1.1173e+09
1.11163e+09
1.10612e+09
1.10078e+09
1.0956e+09
1.09059e+09
1.08575e+09
1.08108e+09
1.07659e+09
1.07229e+09
1.06817e+09
1.06424e+09
1.0605e+09
1.05696e+09
1.05362e+09
1.05048e+09
1.04754e+09
1.04482e+09
1.04232e+09
1.04003e+09
1.03795e+09
1.0361e+09
1.03448e+09
1.03309e+09
1.03192e+09
1.03098e+09
1.03028e+09
1.02981e+09
1.02957e+09
1.82394e+09
1.81094e+09
1.79736e+09
1.78389e+09
1.77053e+09
1.75727e+09
1.74413e+09
1.7311e+09
1.71817e+09
1.70535e+09
1.69263e+09
1.68002e+09
1.6675e+09
1.65509e+09
1.64278e+09
1.63058e+09
1.61847e+09
1.60647e+09
1.59456e+09
1.58276e+09
1.57105e+09
1.55945e+09
1.54794e+09
1.53653e+09
1.52522e+09
1.51402e+09
1.50291e+09
1.4919e+09
1.48099e+09
1.47018e+09
1.45947e+09
1.44886e+09
1.43835e+09
1.42794e+09
1.41763e+09
1.40743e+09
1.39732e+09
1.38732e+09
1.37742e+09
1.36763e+09
1.35793e+09
1.34835e+09
1.33887e+09
1.32949e+09
1.32022e+09
1.31106e+09
1.30201e+09
1.29307e+09
1.28424e+09
1.27551e+09
1.26691e+09
1.25841e+09
1.25003e+09
1.24176e+09
1.23362e+09
1.22559e+09
1.21768e+09
1.20989e+09
1.20223e+09
1.19469e+09
1.18728e+09
1.17999e+09
1.17284e+09
1.16582e+09
1.15893e+09
1.15218e+09
1.14557e+09
1.1391e+09
1.13278e+09
1.1266e+09
1.12058e+09
1.1147e+09
1.10898e+09
1.10342e+09
1.09801e+09
1.09278e+09
1.08771e+09
1.08281e+09
1.07809e+09
1.07355e+09
1.06918e+09
1.06501e+09
1.06102e+09
1.05723e+09
1.05363e+09
1.05024e+09
1.04705e+09
1.04408e+09
1.04131e+09
1.03876e+09
1.03643e+09
1.03432e+09
1.03244e+09
1.03079e+09
1.02936e+09
1.02817e+09
1.02722e+09
1.0265e+09
1.02602e+09
1.02578e+09
1.82296e+09
1.80989e+09
1.79629e+09
1.78281e+09
1.76945e+09
1.7562e+09
1.74306e+09
1.73002e+09
1.7171e+09
1.70427e+09
1.69155e+09
1.67893e+09
1.66642e+09
1.65401e+09
1.6417e+09
1.62948e+09
1.61737e+09
1.60536e+09
1.59345e+09
1.58164e+09
1.56992e+09
1.55831e+09
1.54679e+09
1.53537e+09
1.52405e+09
1.51284e+09
1.50171e+09
1.49069e+09
1.47977e+09
1.46894e+09
1.45822e+09
1.44759e+09
1.43706e+09
1.42664e+09
1.41631e+09
1.40608e+09
1.39596e+09
1.38594e+09
1.37602e+09
1.3662e+09
1.35648e+09
1.34687e+09
1.33737e+09
1.32796e+09
1.31867e+09
1.30948e+09
1.30039e+09
1.29142e+09
1.28256e+09
1.2738e+09
1.26516e+09
1.25663e+09
1.24821e+09
1.23991e+09
1.23172e+09
1.22365e+09
1.21571e+09
1.20788e+09
1.20017e+09
1.19258e+09
1.18512e+09
1.17779e+09
1.17059e+09
1.16352e+09
1.15659e+09
1.14979e+09
1.14313e+09
1.1366e+09
1.13022e+09
1.12399e+09
1.1179e+09
1.11197e+09
1.10619e+09
1.10057e+09
1.09511e+09
1.08981e+09
1.08468e+09
1.07972e+09
1.07494e+09
1.07033e+09
1.06591e+09
1.06167e+09
1.05763e+09
1.05378e+09
1.05012e+09
1.04668e+09
1.04344e+09
1.0404e+09
1.03759e+09
1.03499e+09
1.03262e+09
1.03047e+09
1.02855e+09
1.02686e+09
1.02541e+09
1.0242e+09
1.02323e+09
1.02249e+09
1.022e+09
1.02176e+09
1.82179e+09
1.80876e+09
1.79517e+09
1.78169e+09
1.76833e+09
1.75507e+09
1.74193e+09
1.7289e+09
1.71597e+09
1.70315e+09
1.69043e+09
1.67781e+09
1.66529e+09
1.65287e+09
1.64056e+09
1.62834e+09
1.61622e+09
1.6042e+09
1.59228e+09
1.58046e+09
1.56874e+09
1.55711e+09
1.54559e+09
1.53416e+09
1.52283e+09
1.5116e+09
1.50046e+09
1.48943e+09
1.47848e+09
1.46764e+09
1.4569e+09
1.44626e+09
1.43572e+09
1.42527e+09
1.41492e+09
1.40468e+09
1.39453e+09
1.38449e+09
1.37454e+09
1.3647e+09
1.35496e+09
1.34533e+09
1.33579e+09
1.32636e+09
1.31703e+09
1.30782e+09
1.2987e+09
1.2897e+09
1.2808e+09
1.27201e+09
1.26333e+09
1.25476e+09
1.24631e+09
1.23797e+09
1.22974e+09
1.22163e+09
1.21363e+09
1.20576e+09
1.19801e+09
1.19038e+09
1.18287e+09
1.17549e+09
1.16824e+09
1.16112e+09
1.15413e+09
1.14727e+09
1.14055e+09
1.13397e+09
1.12754e+09
1.12124e+09
1.1151e+09
1.1091e+09
1.10326e+09
1.09757e+09
1.09205e+09
1.08669e+09
1.08149e+09
1.07647e+09
1.07162e+09
1.06695e+09
1.06246e+09
1.05816e+09
1.05405e+09
1.05014e+09
1.04642e+09
1.04292e+09
1.03961e+09
1.03653e+09
1.03366e+09
1.03101e+09
1.02859e+09
1.02639e+09
1.02444e+09
1.02272e+09
1.02123e+09
1.02e+09
1.019e+09
1.01825e+09
1.01775e+09
1.0175e+09
1.8207e+09
1.80761e+09
1.794e+09
1.78052e+09
1.76715e+09
1.7539e+09
1.74076e+09
1.72772e+09
1.71479e+09
1.70197e+09
1.68925e+09
1.67662e+09
1.66411e+09
1.65168e+09
1.63936e+09
1.62714e+09
1.61501e+09
1.60299e+09
1.59106e+09
1.57923e+09
1.5675e+09
1.55587e+09
1.54433e+09
1.53289e+09
1.52155e+09
1.5103e+09
1.49915e+09
1.4881e+09
1.47715e+09
1.4663e+09
1.45554e+09
1.44487e+09
1.43431e+09
1.42384e+09
1.41348e+09
1.40321e+09
1.39305e+09
1.38298e+09
1.37301e+09
1.36314e+09
1.35338e+09
1.34371e+09
1.33415e+09
1.32469e+09
1.31533e+09
1.30608e+09
1.29694e+09
1.2879e+09
1.27896e+09
1.27014e+09
1.26142e+09
1.25281e+09
1.24432e+09
1.23594e+09
1.22767e+09
1.21951e+09
1.21147e+09
1.20355e+09
1.19575e+09
1.18808e+09
1.18052e+09
1.17308e+09
1.16578e+09
1.1586e+09
1.15156e+09
1.14465e+09
1.13787e+09
1.13123e+09
1.12472e+09
1.11837e+09
1.11216e+09
1.1061e+09
1.10019e+09
1.09444e+09
1.08885e+09
1.08342e+09
1.07815e+09
1.07306e+09
1.06814e+09
1.0634e+09
1.05884e+09
1.05447e+09
1.05029e+09
1.04631e+09
1.04253e+09
1.03895e+09
1.03559e+09
1.03244e+09
1.02952e+09
1.02681e+09
1.02434e+09
1.0221e+09
1.0201e+09
1.01834e+09
1.01682e+09
1.01556e+09
1.01454e+09
1.01377e+09
1.01326e+09
1.01301e+09
1.81947e+09
1.80639e+09
1.79277e+09
1.77929e+09
1.76592e+09
1.75267e+09
1.73954e+09
1.7265e+09
1.71357e+09
1.70075e+09
1.68802e+09
1.67539e+09
1.66287e+09
1.65044e+09
1.63812e+09
1.62589e+09
1.61376e+09
1.60173e+09
1.58979e+09
1.57796e+09
1.56621e+09
1.55457e+09
1.54302e+09
1.53157e+09
1.52022e+09
1.50895e+09
1.49779e+09
1.48672e+09
1.47576e+09
1.46488e+09
1.45411e+09
1.44343e+09
1.43285e+09
1.42236e+09
1.41197e+09
1.40168e+09
1.39149e+09
1.3814e+09
1.37141e+09
1.36151e+09
1.35172e+09
1.34203e+09
1.33244e+09
1.32295e+09
1.31356e+09
1.30428e+09
1.2951e+09
1.28602e+09
1.27705e+09
1.26819e+09
1.25943e+09
1.25079e+09
1.24225e+09
1.23383e+09
1.22551e+09
1.21731e+09
1.20923e+09
1.20126e+09
1.19341e+09
1.18568e+09
1.17807e+09
1.17058e+09
1.16322e+09
1.15599e+09
1.14888e+09
1.1419e+09
1.13506e+09
1.12836e+09
1.1218e+09
1.11538e+09
1.1091e+09
1.10297e+09
1.09699e+09
1.09117e+09
1.0855e+09
1.07999e+09
1.07466e+09
1.06949e+09
1.0645e+09
1.05968e+09
1.05504e+09
1.0506e+09
1.04635e+09
1.0423e+09
1.03844e+09
1.0348e+09
1.03137e+09
1.02815e+09
1.02516e+09
1.0224e+09
1.01987e+09
1.01758e+09
1.01553e+09
1.01373e+09
1.01217e+09
1.01088e+09
1.00983e+09
1.00905e+09
1.00852e+09
1.00826e+09
1.81818e+09
1.80509e+09
1.79148e+09
1.778e+09
1.76464e+09
1.7514e+09
1.73826e+09
1.72523e+09
1.71229e+09
1.69947e+09
1.68674e+09
1.67411e+09
1.66158e+09
1.64916e+09
1.63683e+09
1.62459e+09
1.61245e+09
1.60042e+09
1.58847e+09
1.57662e+09
1.56488e+09
1.55322e+09
1.54166e+09
1.53019e+09
1.51883e+09
1.50755e+09
1.49638e+09
1.48529e+09
1.47431e+09
1.46342e+09
1.45262e+09
1.44193e+09
1.43133e+09
1.42082e+09
1.41041e+09
1.4001e+09
1.38989e+09
1.37977e+09
1.36975e+09
1.35983e+09
1.35001e+09
1.34029e+09
1.33066e+09
1.32114e+09
1.31172e+09
1.30241e+09
1.29319e+09
1.28408e+09
1.27507e+09
1.26617e+09
1.25737e+09
1.24868e+09
1.2401e+09
1.23163e+09
1.22327e+09
1.21503e+09
1.20689e+09
1.19887e+09
1.19097e+09
1.18319e+09
1.17552e+09
1.16798e+09
1.16056e+09
1.15326e+09
1.1461e+09
1.13906e+09
1.13215e+09
1.12538e+09
1.11875e+09
1.11226e+09
1.10591e+09
1.0997e+09
1.09365e+09
1.08775e+09
1.08201e+09
1.07643e+09
1.07101e+09
1.06577e+09
1.06069e+09
1.0558e+09
1.05108e+09
1.04656e+09
1.04223e+09
1.03809e+09
1.03417e+09
1.03044e+09
1.02694e+09
1.02366e+09
1.0206e+09
1.01777e+09
1.01518e+09
1.01283e+09
1.01073e+09
1.00888e+09
1.00729e+09
1.00595e+09
1.00488e+09
1.00408e+09
1.00354e+09
1.00327e+09
1.81671e+09
1.8037e+09
1.79012e+09
1.77666e+09
1.76331e+09
1.75007e+09
1.73693e+09
1.7239e+09
1.71098e+09
1.69815e+09
1.68542e+09
1.67278e+09
1.66025e+09
1.64782e+09
1.63548e+09
1.62324e+09
1.6111e+09
1.59905e+09
1.5871e+09
1.57524e+09
1.56348e+09
1.55182e+09
1.54025e+09
1.52877e+09
1.51739e+09
1.5061e+09
1.49491e+09
1.48381e+09
1.47281e+09
1.4619e+09
1.45109e+09
1.44037e+09
1.42975e+09
1.41922e+09
1.40879e+09
1.39845e+09
1.38821e+09
1.37807e+09
1.36803e+09
1.35808e+09
1.34822e+09
1.33847e+09
1.32882e+09
1.31927e+09
1.30981e+09
1.30046e+09
1.29121e+09
1.28206e+09
1.27301e+09
1.26407e+09