/*--------------------------------*- C++ -*----------------------------------*\
| =========                 |                                                 |
| \\      /  F ield         | OpenFOAM: The Open Source CFD Toolbox           |
|  \\    /   O peration     | Version:  4.1                                   |
|   \\  /    A nd           | Web:      www.OpenFOAM.org                      |
|    \\/     M anipulation  |                                                 |
\*---------------------------------------------------------------------------*/
FoamFile
{
    version     2.0;
    format      ascii;
    class       volScalarField;
    location    "0.2";
    object      s;
}
// * * * * * * * * * * * * * * * * * * * * * * * * * * * * * * * * * * * * * //

dimensions      [0 0 0 0 0 0 0];

internalField   nonuniform List<scalar> 
43750
(
1
1
1
1
1
1
1
1
1
1
1
1
1
1
1
1
1
1
1
1
1
1
1
1
1
1
1
1
1
1
1
1
1
1
1
1
1
1
1
1
1
1
1
1
1
1
1
1
1
1
1
1
1
1
1
1
1
1
1
1
1
1
1
1
1
0.999999
0.999992
0.999914
0.99916
0.992902
0.951056
0.743042
0.378277
0.161206
0.0595518
0.0192328
0.00541806
0.00131908
0.000273594
4.74488e-05
6.71741e-06
7.5172e-07
6.34007e-08
3.75422e-09
1.82988e-10
1.14943e-11
1.54572e-12
2.90537e-13
5.33464e-14
2.7552e-14
8.27281e-13
1.47783e-11
4.53934e-12
6.34198e-13
6.11924e-14
4.29203e-15
2.18746e-16
8.12828e-18
2.83875e-19
5.3324e-21
1
1
1
1
1
1
1
1
1
1
1
1
1
1
1
1
1
1
1
1
1
1
1
1
1
1
1
1
1
1
1
1
1
1
1
1
1
1
1
1
1
1
1
1
1
1
1
1
1
1
1
1
1
1
1
1
1
1
1
1
1
1
1
1
1
1
0.999999
0.999992
0.99992
0.999309
0.99537
0.977328
0.917982
0.836676
0.780002
0.702185
0.573688
0.415076
0.266326
0.153845
0.0796276
0.0367147
0.0150483
0.00547748
0.00176846
0.000505501
0.000127574
2.83175e-05
5.50135e-06
9.29673e-07
1.35619e-07
1.69013e-08
1.77701e-09
1.55238e-10
1.10481e-11
6.23969e-13
2.69449e-14
1.05184e-15
4.93613e-17
1.02033e-18
1
1
1
1
1
1
1
1
1
1
1
1
1
1
1
1
1
1
1
1
1
1
1
1
1
1
1
1
1
1
1
1
1
1
1
1
1
1
1
1
1
1
1
1
1
1
1
1
1
1
1
1
1
1
1
1
1
1
1
1
1
1
1
1
1
1
1
0.999999
0.999995
0.999954
0.999702
0.998514
0.994088
0.982738
0.971637
0.957896
0.933548
0.88383
0.756854
0.529275
0.326286
0.179742
0.0889858
0.0397145
0.0159978
0.0058156
0.00190503
0.000560729
0.000147668
3.45898e-05
7.15131e-06
1.29209e-06
2.01457e-07
2.66709e-08
2.93578e-09
2.62372e-10
1.8268e-11
9.28842e-13
3.06579e-14
4.93127e-16
1
1
1
1
1
1
1
1
1
1
1
1
1
1
1
1
1
1
1
1
1
1
1
1
1
1
1
1
1
1
1
1
1
1
1
1
1
1
1
1
1
1
1
1
1
1
1
1
1
1
1
1
1
1
1
1
1
1
1
1
1
1
1
1
1
1
1
1
0.999999
0.999996
0.999974
0.999871
0.999475
0.998404
0.9965
0.992658
0.982654
0.949975
0.834629
0.577846
0.356284
0.199437
0.101497
0.0469897
0.0197918
0.00757936
0.00263495
0.000829407
0.000235472
5.99765e-05
1.36093e-05
2.72596e-06
4.76247e-07
7.14371e-08
9.00844e-09
9.26571e-10
7.45894e-11
4.39951e-12
1.68812e-13
3.15454e-15
1
1
1
1
1
1
1
1
1
1
1
1
1
1
1
1
1
1
1
1
1
1
1
1
1
1
1
1
1
1
1
1
1
1
1
1
1
1
1
1
1
1
1
1
1
1
1
1
1
1
1
1
1
1
1
1
1
1
1
1
1
1
1
1
1
1
1
1
1
0.999999
0.999996
0.999981
0.999916
0.999681
0.998852
0.995768
0.984173
0.941598
0.789171
0.524772
0.31576
0.173491
0.0871354
0.0400008
0.0167729
0.00641592
0.00223439
0.0007064
0.000201937
5.19235e-05
1.19258e-05
2.42475e-06
4.31306e-07
6.60821e-08
8.54059e-09
9.04417e-10
7.524e-11
4.61114e-12
1.84551e-13
3.60478e-15
1
1
1
1
1
1
1
1
1
1
1
1
1
1
1
1
1
1
1
1
1
1
1
1
1
1
1
1
1
1
1
1
1
1
1
1
1
1
1
1
1
1
1
1
1
1
1
1
1
1
1
1
1
1
1
1
1
1
1
1
1
1
1
1
1
1
1
1
1
1
0.999998
0.99999
0.999946
0.999733
0.998753
0.994325
0.974902
0.895551
0.65402
0.401369
0.226266
0.117088
0.0556621
0.0243161
0.00975793
0.00359317
0.00121185
0.00037332
0.000104647
2.65577e-05
6.06164e-06
1.23346e-06
2.21193e-07
3.44197e-08
4.55069e-09
4.96379e-10
4.27784e-11
2.71475e-12
1.12396e-13
2.26635e-15
1
1
1
1
1
1
1
1
1
1
1
1
1
1
1
1
1
1
1
1
1
1
1
1
1
1
1
1
1
1
1
1
1
1
1
1
1
1
1
1
1
1
1
1
1
1
1
1
1
1
1
1
1
1
1
1
1
1
1
1
1
1
1
1
1
1
1
1
1
1
0.999998
0.999989
0.999939
0.999668
0.998257
0.991449
0.96143
0.84134
0.560907
0.32933
0.176172
0.0862303
0.0387098
0.0159549
0.00603859
0.00209723
0.000667379
0.000194133
5.14502e-05
1.23676e-05
2.68035e-06
5.19533e-07
8.90952e-08
1.33203e-08
1.70101e-09
1.80211e-10
1.51711e-11
9.47697e-13
3.88461e-14
7.78223e-16
1
1
1
1
1
1
1
1
1
1
1
1
1
1
1
1
1
1
1
1
1
1
1
1
1
1
1
1
1
1
1
1
1
1
1
1
1
1
1
1
1
1
1
1
1
1
1
1
1
1
1
1
1
1
1
1
1
1
1
1
1
1
1
1
1
1
1
1
1
1
0.999998
0.999987
0.999926
0.999587
0.997841
0.989469
0.95266
0.806407
0.516774
0.294803
0.152517
0.0718955
0.0309524
0.012186
0.00438921
0.00144576
0.000434994
0.000119313
2.97488e-05
6.71618e-06
1.36569e-06
2.48353e-07
3.99986e-08
5.62858e-09
6.78866e-10
6.82388e-11
5.47971e-12
3.284e-13
1.29859e-14
2.52064e-16
1
1
1
1
1
1
1
1
1
1
1
1
1
1
1
1
1
1
1
1
1
1
1
1
1
1
1
1
1
1
1
1
1
1
1
1
1
1
1
1
1
1
1
1
1
1
1
1
1
1
1
1
1
1
1
1
1
1
1
1
1
1
1
1
1
1
1
1
1
1
0.999998
0.999986
0.999919
0.999549
0.997649
0.988587
0.948949
0.79242
0.501354
0.282437
0.14387
0.0665063
0.0279527
0.0106939
0.00372508
0.00118089
0.000340252
8.89244e-05
2.10187e-05
4.47576e-06
8.54277e-07
1.45177e-07
2.1771e-08
2.84562e-09
3.18521e-10
2.97448e-11
2.22561e-12
1.24855e-13
4.64773e-15
8.54136e-17
1
1
1
1
1
1
1
1
1
1
1
1
1
1
1
1
1
1
1
1
1
1
1
1
1
1
1
1
1
1
1
1
1
1
1
1
1
1
1
1
1
1
1
1
1
1
1
1
1
1
1
1
1
1
1
1
1
1
1
1
1
1
1
1
1
1
1
1
1
1
0.999998
0.999986
0.999919
0.999547
0.997638
0.988553
0.948849
0.79208
0.500571
0.281359
0.142737
0.0655449
0.0272771
0.0102923
0.00352158
0.00109178
0.000306203
7.74981e-05
1.76416e-05
3.59629e-06
6.52875e-07
1.04809e-07
1.47432e-08
1.79523e-09
1.86054e-10
1.60108e-11
1.1011e-12
5.67769e-14
1.94784e-15
3.31505e-17
1
1
1
1
1
1
1
1
1
1
1
1
1
1
1
1
1
1
1
1
1
1
1
1
1
1
1
1
1
1
1
1
1
1
1
1
1
1
1
1
1
1
1
1
1
1
1
1
1
1
1
1
1
1
1
1
1
1
1
1
1
1
1
1
1
1
1
1
1
1
0.999998
0.999987
0.999923
0.999572
0.997761
0.989099
0.95102
0.799592
0.506471
0.284486
0.144086
0.0660219
0.0274023
0.0103055
0.00350863
0.00107903
0.000299084
7.44807e-05
1.66003e-05
3.29598e-06
5.79313e-07
8.94369e-08
1.20094e-08
1.38464e-09
1.34723e-10
1.07926e-11
6.8571e-13
3.2476e-14
1.02019e-15
1.59022e-17
1
1
1
1
1
1
1
1
1
1
1
1
1
1
1
1
1
1
1
1
1
1
1
1
1
1
1
1
1
1
1
1
1
1
1
1
1
1
1
1
1
1
1
1
1
1
1
1
1
1
1
1
1
1
1
1
1
1
1
1
1
1
1
1
1
1
1
1
1
1
0.999998
0.99999
0.999938
0.999652
0.998152
0.990842
0.958071
0.825106
0.529484
0.297259
0.150018
0.0683514
0.0282022
0.0105428
0.00356909
0.0010924
0.000301422
7.47015e-05
1.65463e-05
3.25208e-06
5.63165e-07
8.51628e-08
1.11267e-08
1.23934e-09
1.15556e-10
8.79419e-12
5.26104e-13
2.32655e-14
6.77697e-16
9.75329e-18
1
1
1
1
1
1
1
1
1
1
1
1
1
1
1
1
1
1
1
1
1
1
1
1
1
1
1
1
1
1
1
1
1
1
1
1
1
1
1
1
1
1
1
1
1
1
1
1
1
1
1
1
1
1
1
1
1
1
1
1
1
1
1
1
1
1
1
1
1
1
0.999999
0.999992
0.99995
0.999714
0.998459
0.992243
0.963976
0.847806
0.557886
0.315128
0.159974
0.0731809
0.0301946
0.011248
0.00378302
0.00114788
0.000313763
7.70871e-05
1.69346e-05
3.3063e-06
5.69015e-07
8.54879e-08
1.10753e-08
1.2167e-09
1.11173e-10
8.22687e-12
4.74575e-13
2.00742e-14
5.55024e-16
7.5361e-18
1
1
1
1
1
1
1
1
1
1
1
1
1
1
1
1
1
1
1
1
1
1
1
1
1
1
1
1
1
1
1
1
1
1
1
1
1
1
1
1
1
1
1
1
1
1
1
1
1
1
1
1
1
1
1
1
1
1
1
1
1
1
1
1
1
1
1
1
1
1
0.999999
0.999993
0.999957
0.999752
0.99865
0.99313
0.967756
0.862392
0.579482
0.329351
0.168428
0.0775922
0.0322533
0.0121017
0.00409601
0.00124861
0.000341707
8.35791e-05
1.81983e-05
3.51325e-06
5.98278e-07
8.89492e-08
1.1406e-08
1.24247e-09
1.1262e-10
8.26368e-12
4.71567e-13
1.9614e-14
5.29949e-16
6.99034e-18
1
1
1
1
1
1
1
1
1
1
1
1
1
1
1
1
1
1
1
1
1
1
1
1
1
1
1
1
1
1
1
1
1
1
1
1
1
1
1
1
1
1
1
1
1
1
1
1
1
1
1
1
1
1
1
1
1
1
1
1
1
1
1
1
1
1
1
1
1
1
0.999999
0.999994
0.999962
0.999781
0.998797
0.993832
0.97081
0.874331
0.599122
0.342358
0.176236
0.0817502
0.0342259
0.0129396
0.00441557
0.00135795
0.000375384
9.28945e-05
2.04707e-05
3.9875e-06
6.80274e-07
1.00775e-07
1.28151e-08
1.37886e-09
1.23085e-10
8.87175e-12
4.96916e-13
2.03768e-14
5.44085e-16
7.10305e-18
1
1
1
1
1
1
1
1
1
1
1
1
1
1
1
1
1
1
1
1
1
1
1
1
1
1
1
1
1
1
1
1
1
1
1
1
1
1
1
1
1
1
1
1
1
1
1
1
1
1
1
1
1
1
1
1
1
1
1
1
1
1
1
1
1
1
1
1
1
1
0.999999
0.999995
0.999967
0.999807
0.998937
0.994521
0.973894
0.886686
0.621781
0.357458
0.185171
0.0864074
0.0363662
0.0138084
0.00472635
0.00145607
0.00040275
9.98009e-05
2.20497e-05
4.31391e-06
7.40753e-07
1.10514e-07
1.41493e-08
1.53082e-09
1.37175e-10
9.90687e-12
5.54078e-13
2.25407e-14
5.95338e-16
7.68018e-18
1
1
1
1
1
1
1
1
1
1
1
1
1
1
1
1
1
1
1
1
1
1
1
1
1
1
1
1
1
1
1
1
1
1
1
1
1
1
1
1
1
1
1
1
1
1
1
1
1
1
1
1
1
1
1
1
1
1
1
1
1
1
1
1
1
1
1
1
1
1
0.999999
0.999995
0.999971
0.999832
0.999076
0.995217
0.977071
0.899627
0.64848
0.37592
0.196344
0.0924237
0.0392654
0.0150652
0.00521929
0.00162888
0.000456498
0.000114344
2.5486e-05
5.02707e-06
8.71108e-07
1.313e-07
1.6998e-08
1.85974e-09
1.68403e-10
1.22712e-11
6.9115e-13
2.82205e-14
7.44313e-16
9.54105e-18
1
1
1
1
1
1
1
1
1
1
1
1
1
1
1
1
1
1
1
1
1
1
1
1
1
1
1
1
1
1
1
1
1
1
1
1
1
1
1
1
1
1
1
1
1
1
1
1
1
1
1
1
1
1
1
1
1
1
1
1
1
1
1
1
1
1
1
1
1
1
0.999999
0.999996
0.999975
0.999856
0.999207
0.995892
0.980202
0.912617
0.678725
0.397111
0.208734
0.0987498
0.0421019
0.0161856
0.0056059
0.00175095
0.000492294
0.000123961
2.7803e-05
5.51997e-06
9.62816e-07
1.46126e-07
1.90617e-08
2.10371e-09
1.92404e-10
1.41792e-11
8.08708e-13
3.35033e-14
8.97873e-16
1.17014e-17
1
1
1
1
1
1
1
1
1
1
1
1
1
1
1
1
1
1
1
1
1
1
1
1
1
1
1
1
1
1
1
1
1
1
1
1
1
1
1
1
1
1
1
1
1
1
1
1
1
1
1
1
1
1
1
1
1
1
1
1
1
1
1
1
1
1
1
1
1
1
0.999999
0.999996
0.999979
0.999876
0.99932
0.996483
0.983037
0.924745
0.711489
0.422563
0.224647
0.107448
0.0463204
0.0180145
0.00631972
0.00199534
0.000565625
0.000143572
3.24738e-05
6.50325e-06
1.14395e-06
1.75035e-07
2.30118e-08
2.55886e-09
2.35736e-10
1.74925e-11
1.00395e-12
4.18136e-14
1.12545e-15
1.47426e-17
1
1
1
1
1
1
1
1
1
1
1
1
1
1
1
1
1
1
1
1
1
1
1
1
1
1
1
1
1
1
1
1
1
1
1
1
1
1
1
1
1
1
1
1
1
1
1
1
1
1
1
1
1
1
1
1
1
1
1
1
1
1
1
1
1
1
1
1
1
1
1
0.999997
0.999981
0.999891
0.999403
0.996934
0.985264
0.93457
0.741743
0.448105
0.241072
0.116475
0.0506508
0.0198482
0.00701104
0.00223008
0.00063764
0.000163435
3.73949e-05
7.5888e-06
1.35516e-06
2.10861e-07
2.8239e-08
3.20417e-09
3.01738e-10
2.29288e-11
1.35009e-12
5.77919e-14
1.60011e-15
2.15029e-17
1
1
1
1
1
1
1
1
1
1
1
1
1
1
1
1
1
1
1
1
1
1
1
1
1
1
1
1
1
1
1
1
1
1
1
1
1
1
1
1
1
1
1
1
1
1
1
1
1
1
1
1
1
1
1
1
1
1
1
1
1
1
1
1
1
1
1
1
1
1
1
0.999997
0.999983
0.999903
0.999469
0.997273
0.986913
0.941865
0.766487
0.471387
0.257224
0.125944
0.0554552
0.0219766
0.00783584
0.00250899
0.000719613
0.000184394
4.20819e-05
8.54305e-06
1.52912e-06
2.38884e-07
3.21675e-08
3.67493e-09
3.48888e-10
2.67604e-11
1.59233e-12
6.89515e-14
1.93344e-15
2.63641e-17
1
1
1
1
1
1
1
1
1
1
1
1
1
1
1
1
1
1
1
1
1
1
1
1
1
1
1
1
1
1
1
1
1
1
1
1
1
1
1
1
1
1
1
1
1
1
1
1
1
1
1
1
1
1
1
1
1
1
1
1
1
1
1
1
1
1
1
1
1
1
1
0.999998
0.999985
0.999915
0.999532
0.997584
0.988342
0.947939
0.788053
0.492549
0.272325
0.135105
0.0603109
0.0242535
0.00879111
0.00287245
0.000844103
0.000221859
5.18715e-05
1.07038e-05
1.93961e-06
3.0613e-07
4.16138e-08
4.79953e-09
4.60298e-10
3.57e-11
2.15039e-12
9.43636e-14
2.68392e-15
3.71582e-17
1
1
1
1
1
1
1
1
1
1
1
1
1
1
1
1
1
1
1
1
1
1
1
1
1
1
1
1
1
1
1
1
1
1
1
1
1
1
1
1
1
1
1
1
1
1
1
1
1
1
1
1
1
1
1
1
1
1
1
1
1
1
1
1
1
1
1
1
1
1
1
0.999998
0.999988
0.999928
0.999599
0.997904
0.989784
0.953963
0.810588
0.515146
0.288243
0.144611
0.065252
0.0264956
0.00967469
0.0031692
0.000930647
0.000245727
5.79304e-05
1.20951e-05
2.21925e-06
3.54607e-07
4.878e-08
5.69104e-09
5.51958e-10
4.32881e-11
2.63674e-12
1.17017e-13
3.36617e-15
4.71304e-17
1
1
1
1
1
1
1
1
1
1
1
1
1
1
1
1
1
1
1
1
1
1
1
1
1
1
1
1
1
1
1
1
1
1
1
1
1
1
1
1
1
1
1
1
1
1
1
1
1
1
1
1
1
1
1
1
1
1
1
1
1
1
1
1
1
1
1
1
1
1
1
0.999998
0.99999
0.999939
0.999658
0.9982
0.991144
0.959732
0.832885
0.541113
0.306316
0.155635
0.0711624
0.029321
0.010894
0.00365046
0.00109964
0.000295554
7.07372e-05
1.50101e-05
2.80322e-06
4.5639e-07
6.40051e-08
7.61415e-09
7.52951e-10
6.01976e-11
3.73688e-12
1.68954e-13
4.94883e-15
7.05032e-17
1
1
1
1
1
1
1
1
1
1
1
1
1
1
1
1
1
1
1
1
1
1
1
1
1
1
1
1
1
1
1
1
1
1
1
1
1
1
1
1
1
1
1
1
1
1
1
1
1
1
1
1
1
1
1
1
1
1
1
1
1
1
1
1
1
1
1
1
1
1
1
0.999999
0.999991
0.999948
0.999706
0.99844
0.992271
0.964627
0.852205
0.568263
0.325447
0.167513
0.0775526
0.0323003
0.0120892
0.00405718
0.00122106
0.000330233
7.9694e-05
1.70566e-05
3.21398e-06
5.28272e-07
7.48508e-08
9.00361e-09
9.00988e-10
7.29472e-11
4.58883e-12
2.1036e-13
6.24987e-15
9.03316e-17
1
1
1
1
1
1
1
1
1
1
1
1
1
1
1
1
1
1
1
1
1
1
1
1
1
1
1
1
1
1
1
1
1
1
1
1
1
1
1
1
1
1
1
1
1
1
1
1
1
1
1
1
1
1
1
1
1
1
1
1
1
1
1
1
1
1
1
1
1
1
1
0.999999
0.999993
0.999955
0.999745
0.998633
0.993183
0.968617
0.86805
0.594202
0.344662
0.180122
0.0847159
0.0359056
0.0137289
0.00473339
0.001465
0.000404214
9.92555e-05
2.15851e-05
4.12929e-06
6.88798e-07
9.90474e-08
1.20955e-08
1.22948e-09
1.01178e-10
6.47353e-12
3.01999e-13
9.13455e-15
1.34437e-16
1
1
1
1
1
1
1
1
1
1
1
1
1
1
1
1
1
1
1
1
1
1
1
1
1
1
1
1
1
1
1
1
1
1
1
1
1
1
1
1
1
1
1
1
1
1
1
1
1
1
1
1
1
1
1
1
1
1
1
1
1
1
1
1
1
1
1
1
1
1
1
0.999999
0.999994
0.999962
0.99978
0.998812
0.994029
0.972283
0.882411
0.620015
0.363913
0.192931
0.0921749
0.0396067
0.0152642
0.00526983
0.00163473
0.000455227
0.000113033
2.48706e-05
4.81422e-06
8.12496e-07
1.18193e-07
1.46001e-08
1.50122e-09
1.24983e-10
8.09158e-12
3.82074e-13
1.17003e-14
1.74376e-16
1
1
1
1
1
1
1
1
1
1
1
1
1
1
1
1
1
1
1
1
1
1
1
1
1
1
1
1
1
1
1
1
1
1
1
1
1
1
1
1
1
1
1
1
1
1
1
1
1
1
1
1
1
1
1
1
1
1
1
1
1
1
1
1
1
1
1
1
1
1
1
0.999999
0.999995
0.999968
0.999815
0.998998
0.994921
0.976171
0.897646
0.649675
0.385069
0.206729
0.100238
0.0439082
0.0173881
0.00620752
0.00198306
0.000564513
0.000143002
3.20831e-05
6.33069e-06
1.08876e-06
1.61323e-07
2.02873e-08
2.1225e-09
1.79715e-10
1.18282e-11
5.67566e-13
1.76554e-14
2.67193e-16
1
1
1
1
1
1
1
1
1
1
1
1
1
1
1
1
1
1
1
1
1
1
1
1
1
1
1
1
1
1
1
1
1
1
1
1
1
1
1
1
1
1
1
1
1
1
1
1
1
1
1
1
1
1
1
1
1
1
1
1
1
1
1
1
1
1
1
1
1
1
1
0.999999
0.999996
0.999974
0.999852
0.99919
0.995858
0.980341
0.914382
0.687332
0.411746
0.223111
0.109351
0.0484491
0.0193224
0.00690756
0.00221714
0.000638469
0.000163855
3.72517e-05
7.44957e-06
1.29867e-06
1.95086e-07
2.4877e-08
2.63955e-09
2.26687e-10
1.51342e-11
7.36692e-13
2.32482e-14
3.56892e-16
1
1
1
1
1
1
1
1
1
1
1
1
1
1
1
1
1
1
1
1
1
1
1
1
1
1
1
1
1
1
1
1
1
1
1
1
1
1
1
1
1
1
1
1
1
1
1
1
1
1
1
1
1
1
1
1
1
1
1
1
1
1
1
1
1
1
1
1
1
1
1
1
0.999997
0.99998
0.999886
0.999374
0.996764
0.984449
0.931297
0.733073
0.446629
0.244775
0.121199
0.0541496
0.0219107
0.0080727
0.00267727
0.000791729
0.00020812
4.83971e-05
9.89071e-06
1.76097e-06
2.70047e-07
3.51396e-08
3.80318e-09
3.33027e-10
2.26594e-11
1.12353e-12
3.60933e-14
5.6377e-16
1
1
1
1
1
1
1
1
1
1
1
1
1
1
1
1
1
1
1
1
1
1
1
1
1
1
1
1
1
1
1
1
1
1
1
1
1
1
1
1
1
1
1
1
1
1
1
1
1
1
1
1
1
1
1
1
1
1
1
1
1
1
1
1
1
1
1
1
1
1
1
1
0.999998
0.999986
0.999916
0.999533
0.997561
0.988125
0.946724
0.783295
0.489726
0.272536
0.136853
0.0621356
0.0253803
0.00924964
0.00305052
0.000907693
0.000241183
5.68015e-05
1.17672e-05
2.12487e-06
3.3061e-07
4.36614e-08
4.79715e-09
4.26532e-10
2.94741e-11
1.48447e-12
4.84472e-14
7.68719e-16
1
1
1
1
1
1
1
1
1
1
1
1
1
1
1
1
1
1
1
1
1
1
1
1
1
1
1
1
1
1
1
1
1
1
1
1
1
1
1
1
1
1
1
1
1
1
1
1
1
1
1
1
1
1
1
1
1
1
1
1
1
1
1
1
1
1
1
1
1
1
1
1
0.999998
0.99999
0.99994
0.999663
0.998216
0.991191
0.959809
0.832966
0.540146
0.306102
0.156114
0.0717643
0.0298487
0.0112867
0.00383541
0.0011635
0.00031467
7.54805e-05
1.59403e-05
2.93605e-06
4.66107e-07
6.281e-08
7.04057e-09
6.38445e-10
4.49732e-11
2.30472e-12
7.61632e-14
1.2179e-15
1
1
1
1
1
1
1
1
1
1
1
1
1
1
1
1
1
1
1
1
1
1
1
1
1
1
1
1
1
1
1
1
1
1
1
1
1
1
1
1
1
1
1
1
1
1
1
1
1
1
1
1
1
1
1
1
1
1
1
1
1
1
1
1
1
1
1
1
1
1
1
1
0.999999
0.999993
0.999958
0.999763
0.99873
0.993633
0.97043
0.874507
0.601113
0.34556
0.179343
0.0839762
0.0354011
0.0133335
0.00449424
0.00137086
0.000374565
9.09181e-05
1.94478e-05
3.63115e-06
5.84783e-07
7.99939e-08
9.10787e-09
8.3936e-10
6.01159e-11
3.16159e-12
1.08535e-13
1.81449e-15
1
1
1
1
1
1
1
1
1
1
1
1
1
1
1
1
1
1
1
1
1
1
1
1
1
1
1
1
1
1
1
1
1
1
1
1
1
1
1
1
1
1
1
1
1
1
1
1
1
1
1
1
1
1
1
1
1
1
1
1
1
1
1
1
1
1
1
1
1
1
1
1
0.999999
0.999995
0.999971
0.999837
0.999116
0.995504
0.97875
0.907946
0.669507
0.392295
0.207211
0.0986261
0.0423079
0.0164179
0.00576623
0.00181369
0.000507623
0.00012575
2.74127e-05
5.21412e-06
8.55446e-07
1.19227e-07
1.3744e-08
1.27214e-09
9.07002e-11
4.66033e-12
1.5774e-13
2.6228e-15
1
1
1
1
1
1
1
1
1
1
1
1
1
1
1
1
1
1
1
1
1
1
1
1
1
1
1
1
1
1
1
1
1
1
1
1
1
1
1
1
1
1
1
1
1
1
1
1
1
1
1
1
1
1
1
1
1
1
1
1
1
1
1
1
1
1
1
1
1
1
1
1
0.999999
0.999997
0.999981
0.999889
0.999394
0.996878
0.985001
0.933749
0.740223
0.447205
0.241123
0.116941
0.0510739
0.0200868
0.00706945
0.00221105
0.000620342
0.000155571
3.44218e-05
6.65092e-06
1.10896e-06
1.57238e-07
1.89362e-08
1.85424e-09
1.40913e-10
7.76225e-12
2.72085e-13
4.59556e-15
1
1
1
1
1
1
1
1
1
1
1
1
1
1
1
1
1
1
1
1
1
1
1
1
1
1
1
1
1
1
1
1
1
1
1
1
1
1
1
1
1
1
1
1
1
1
1
1
1
1
1
1
1
1
1
1
1
1
1
1
1
1
1
1
1
1
1
1
1
1
1
1
1
0.999998
0.999987
0.999925
0.999587
0.997848
0.989511
0.952816
0.807075
0.508274
0.281585
0.139711
0.0622698
0.0248559
0.00889835
0.0028982
0.000852205
0.000220979
5.02244e-05
9.88564e-06
1.65402e-06
2.3156e-07
2.69255e-08
2.59957e-09
1.97763e-10
1.10258e-11
3.96951e-13
6.91129e-15
1
1
1
1
1
1
1
1
1
1
1
1
1
1
1
1
1
1
1
1
1
1
1
1
1
1
1
1
1
1
1
1
1
1
1
1
1
1
1
1
1
1
1
1
1
1
1
1
1
1
1
1
1
1
1
1
1
1
1
1
1
1
1
1
1
1
1
1
1
1
1
1
1
0.999999
0.999991
0.999949
0.999718
0.998517
0.992682
0.966524
0.860195
0.577204
0.327772
0.166975
0.0762714
0.0313508
0.0115898
0.0037828
0.00108417
0.000281657
6.48531e-05
1.32502e-05
2.36618e-06
3.586e-07
4.44592e-08
4.38594e-09
3.34951e-10
1.8677e-11
6.77036e-13
1.19515e-14
1
1
1
1
1
1
1
1
1
1
1
1
1
1
1
1
1
1
1
1
1
1
1
1
1
1
1
1
1
1
1
1
1
1
1
1
1
1
1
1
1
1
1
1
1
1
1
1
1
1
1
1
1
1
1
1
1
1
1
1
1
1
1
1
1
1
1
1
1
1
1
1
1
0.999999
0.999994
0.999965
0.999806
0.998975
0.994893
0.9763
0.89902
0.650537
0.378869
0.198428
0.0932442
0.0392245
0.0147632
0.00502809
0.00154424
0.000415092
9.58516e-05
1.87619e-05
3.27124e-06
4.95247e-07
6.27036e-08
6.38836e-09
5.03175e-10
2.88009e-11
1.06741e-12
1.92265e-14
1
1
1
1
1
1
1
1
1
1
1
1
1
1
1
1
1
1
1
1
1
1
1
1
1
1
1
1
1
1
1
1
1
1
1
1
1
1
1
1
1
1
1
1
1
1
1
1
1
1
1
1
1
1
1
1
1
1
1
1
1
1
1
1
1
1
1
1
1
1
1
1
1
0.999999
0.999996
0.999976
0.999867
0.999291
0.996439
0.983279
0.927556
0.723525
0.435133
0.234202
0.11317
0.0490622
0.019016
0.00650325
0.00196819
0.000536986
0.000134275
2.93351e-05
5.35444e-06
8.21664e-07
1.05123e-07
1.09081e-08
8.78093e-10
5.13218e-11
1.93216e-12
3.5224e-14
1
1
1
1
1
1
1
1
1
1
1
1
1
1
1
1
1
1
1
1
1
1
1
1
1
1
1
1
1
1
1
1
1
1
1
1
1
1
1
1
1
1
1
1
1
1
1
1
1
1
1
1
1
1
1
1
1
1
1
1
1
1
1
1
1
1
1
1
1
1
1
1
1
1
0.999997
0.999984
0.999909
0.999513
0.99753
0.988272
0.948429
0.792748
0.497132
0.275365
0.136877
0.061044
0.0243368
0.00871875
0.00280129
0.000785472
0.00018834
4.02782e-05
7.52885e-06
1.19303e-06
1.57202e-07
1.67767e-08
1.39158e-09
8.39659e-11
3.2724e-12
6.16685e-14
1
1
1
1
1
1
1
1
1
1
1
1
1
1
1
1
1
1
1
1
1
1
1
1
1
1
1
1
1
1
1
1
1
1
1
1
1
1
1
1
1
1
1
1
1
1
1
1
1
1
1
1
1
1
1
1
1
1
1
1
1
1
1
1
1
1
1
1
1
1
1
1
1
1
0.999998
0.999989
0.999939
0.99967
0.998308
0.991865
0.963667
0.851179
0.566828
0.323691
0.165336
0.0758469
0.0313821
0.0115485
0.00372313
0.00106222
0.000274221
6.29164e-05
1.23485e-05
2.03693e-06
2.76919e-07
3.02327e-08
2.54766e-09
1.55615e-10
6.10789e-12
1.16726e-13
1
1
1
1
1
1
1
1
1
1
1
1
1
1
1
1
1
1
1
1
1
1
1
1
1
1
1
1
1
1
1
1
1
1
1
1
1
1
1
1
1
1
1
1
1
1
1
1
1
1
1
1
1
1
1
1
1
1
1
1
1
1
1
1
1
1
1
1
1
1
1
1
1
1
0.999999
0.999993
0.99996
0.999781
0.998866
0.994467
0.974851
0.894737
0.644392
0.378589
0.200484
0.0947266
0.0398579
0.0152026
0.0052693
0.00161065
0.000419872
9.27103e-05
1.81461e-05
3.06474e-06
4.31813e-07
4.91457e-08
4.33215e-09
2.76938e-10
1.14116e-11
2.26656e-13
1
1
1
1
1
1
1
1
1
1
1
1
1
1
1
1
1
1
1
1
1
1
1
1
1
1
1
1
1
1
1
1
1
1
1
1
1
1
1
1
1
1
1
1
1
1
1
1
1
1
1
1
1
1
1
1
1
1
1
1
1
1
1
1
1
1
1
1
1
1
1
1
1
1
0.999999
0.999996
0.999974
0.999859
0.99926
0.996338
0.983044
0.927449
0.725361
0.440801
0.240541
0.118445
0.0521187
0.0200535
0.00685227
0.00214518
0.000602725
0.000147837
3.07266e-05
5.34353e-06
7.65335e-07
8.84078e-08
7.96694e-09
5.25403e-10
2.2483e-11
4.69513e-13
1
1
1
1
1
1
1
1
1
1
1
1
1
1
1
1
1
1
1
1
1
1
1
1
1
1
1
1
1
1
1
1
1
1
1
1
1
1
1
1
1
1
1
1
1
1
1
1
1
1
1
1
1
1
1
1
1
1
1
1
1
1
1
1
1
1
1
1
1
1
1
1
1
1
1
0.999997
0.999984
0.999911
0.999531
0.997648
0.988919
0.951563
0.805938
0.51197
0.288815
0.146006
0.0666616
0.0275816
0.00989065
0.00301478
0.000841636
0.000209837
4.55267e-05
8.49533e-06
1.3156e-06
1.62534e-07
1.52555e-08
1.03825e-09
4.62445e-11
9.93725e-13
1
1
1
1
1
1
1
1
1
1
1
1
1
1
1
1
1
1
1
1
1
1
1
1
1
1
1
1
1
1
1
1
1
1
1
1
1
1
1
1
1
1
1
1
1
1
1
1
1
1
1
1
1
1
1
1
1
1
1
1
1
1
1
1
1
1
1
1
1
1
1
1
1
1
1
0.999998
0.99999
0.999946
0.999711
0.998532
0.992979
0.968711
0.871994
0.600234
0.347334
0.181865
0.0852048
0.0357206
0.0138181
0.0047737
0.00138653
0.000342819
7.34175e-05
1.38127e-05
2.20319e-06
2.86113e-07
2.8807e-08
2.10914e-09
9.98725e-11
2.3333e-12
1
1
1
1
1
1
1
1
1
1
1
1
1
1
1
1
1
1
1
1
1
1
1
1
1
1
1
1
1
1
1
1
1
1
1
1
1
1
1
1
1
1
1
1
1
1
1
1
1
1
1
1
1
1
1
1
1
1
1
1
1
1
1
1
1
1
1
1
1
1
1
1
1
1
1
0.999999
0.999994
0.999967
0.999825
0.999106
0.995672
0.980392
0.918027
0.701064
0.41958
0.226507
0.110536
0.0482515
0.0184759
0.0064369
0.00205318
0.000574248
0.000135793
2.65208e-05
4.27375e-06
5.56144e-07
5.80717e-08
4.48142e-09
2.26082e-10
5.46607e-12
1
1
1
1
1
1
1
1
1
1
1
1
1
1
1
1
1
1
1
1
1
1
1
1
1
1
1
1
1
1
1
1
1
1
1
1
1
1
1
1
1
1
1
1
1
1
1
1
1
1
1
1
1
1
1
1
1
1
1
1
1
1
1
1
1
1
1
1
1
1
1
1
1
1
1
0.999999
0.999996
0.999981
0.999896
0.999466
0.997392
0.988027
0.948986
0.800677
0.505553
0.283282
0.142699
0.0649693
0.0266161
0.0094452
0.00295073
0.000837124
0.000209113
4.47342e-05
7.87545e-06
1.1058e-06
1.22944e-07
1.01866e-08
5.56768e-10
1.56672e-11
1
1
1
1
1
1
1
1
1
1
1
1
1
1
1
1
1
1
1
1
1
1
1
1
1
1
1
1
1
1
1
1
1
1
1
1
1
1
1
1
1
1
1
1
1
1
1
1
1
1
1
1
1
1
1
1
1
1
1
1
1
1
1
1
1
1
1
1
1
1
1
1
1
1
1
1
0.999998
0.999989
0.999939
0.999686
0.998457
0.992844
0.969012
0.876549
0.611693
0.354869
0.185685
0.0872809
0.0369006
0.0142762
0.00483207
0.00138783
0.000346179
7.63382e-05
1.43405e-05
2.21287e-06
2.6833e-07
2.42077e-08
1.45232e-09
4.26178e-11
1
1
1
1
1
1
1
1
1
1
1
1
1
1
1
1
1
1
1
1
1
1
1
1
1
1
1
1
1
1
1
1
1
1
1
1
1
1
1
1
1
1
1
1
1
1
1
1
1
1
1
1
1
1
1
1
1
1
1
1
1
1
1
1
1
1
1
1
1
1
1
1
1
1
1
1
0.999999
0.999993
0.999965
0.999818
0.999102
0.995801
0.981564
0.925017
0.725838
0.442467
0.241855
0.118807
0.0522262
0.0203695
0.00727168
0.00233354
0.000642955
0.000148566
2.84599e-05
4.65578e-06
6.15645e-07
6.19532e-08
4.25256e-09
1.66366e-10
1
1
1
1
1
1
1
1
1
1
1
1
1
1
1
1
1
1
1
1
1
1
1
1
1
1
1
1
1
1
1
1
1
1
1
1
1
1
1
1
1
1
1
1
1
1
1
1
1
1
1
1
1
1
1
1
1
1
1
1
1
1
1
1
1
1
1
1
1
1
1
1
1
1
1
1
0.999999
0.999996
0.99998
0.999896
0.999486
0.99758
0.989247
0.955453
0.83041
0.542972
0.311864
0.160914
0.0745328
0.0308338
0.0111036
0.00360335
0.00105391
0.000266502
5.68517e-05
1.0158e-05
1.48473e-06
1.6818e-07
1.3414e-08
5.63373e-10
7.57157e-90
2.35551e-87
3.66641e-85
3.76083e-83
2.84466e-81
1.68364e-79
8.09185e-78
3.24049e-76
1.10232e-74
3.23401e-73
8.2846e-72
1.87206e-70
3.7633e-69
6.77817e-68
1.10053e-66
1.61935e-65
2.1696e-64
2.65818e-63
2.99e-62
3.09927e-61
2.97089e-60
2.64284e-59
2.1896e-58
1.69586e-57
1.2327e-56
8.44448e-56
5.47499e-55
3.37379e-54
1.98392e-53
1.11749e-52
6.05162e-52
3.1626e-51
1.60175e-50
7.90339e-50
3.82861e-49
1.8412e-48
7.36323e-48
2.40993e-47
6.36541e-47
1.33503e-46
2.14374e-46
2.59564e-46
2.77099e-46
2.26306e-46
1.48928e-46
8.87961e-47
4.88158e-47
2.22432e-47
9.47398e-48
3.55283e-48
1.17341e-48
3.4314e-49
9.01754e-50
2.17809e-50
4.9503e-51
1.08225e-51
2.31887e-52
4.95875e-53
1.09328e-53
2.39557e-54
5.17598e-55
1.10515e-55
2.3366e-56
4.90083e-57
1.02128e-57
2.11725e-58
4.37149e-59
8.997e-60
1.84708e-60
3.7847e-61
7.74312e-62
1.58224e-62
3.22993e-63
6.58789e-64
1.3427e-64
2.73478e-65
5.56679e-66
1.13253e-66
2.30296e-67
4.68102e-68
9.51154e-69
1.93221e-69
3.9247e-70
7.97177e-71
1.61945e-71
3.29082e-72
6.69038e-73
1.36102e-73
2.77117e-74
5.64795e-75
1.15267e-75
2.3557e-76
4.82351e-77
9.8942e-78
2.03482e-78
4.19376e-79
8.67357e-80
1.79773e-80
3.76746e-81
6.7397e-82
1.86012e-85
3.94936e-83
4.18381e-81
2.94184e-79
1.54475e-77
6.45583e-76
2.23527e-74
6.58983e-73
1.68716e-71
3.80711e-70
7.65874e-69
1.38608e-67
2.27362e-66
3.40129e-65
4.66538e-64
5.89487e-63
6.88977e-62
7.47644e-61
7.55798e-60
7.13956e-59
6.32029e-58
5.25752e-57
4.12042e-56
3.05049e-55
2.13926e-54
1.4252e-53
9.04654e-53
5.48713e-52
3.18888e-51
1.78001e-50
9.56483e-50
4.95879e-49
2.48657e-48
1.20987e-47
5.74208e-47
2.68534e-46
1.04318e-45
3.32347e-45
8.56013e-45
1.75515e-44
2.74789e-44
3.27717e-44
3.47252e-44
2.84231e-44
1.79626e-44
1.04921e-44
5.88442e-45
2.64733e-45
1.12727e-45
4.23842e-46
1.40656e-46
4.13543e-47
1.09204e-47
2.64913e-48
6.04769e-49
1.32917e-49
2.86708e-50
6.18039e-51
1.3693e-51
3.00982e-52
6.52665e-53
1.39921e-53
2.97163e-54
6.26306e-55
1.31194e-55
2.73481e-56
5.67923e-57
1.1759e-57
2.42922e-58
5.00957e-59
1.03167e-59
2.12229e-60
4.36189e-61
8.95777e-62
1.8383e-62
3.77001e-63
7.72677e-64
1.5827e-64
3.24011e-65
6.62995e-66
1.35606e-66
2.77272e-67
5.66813e-68
1.15858e-68
2.3683e-69
4.842e-70
9.90334e-71
2.02656e-71
4.15028e-72
8.50697e-73
1.7459e-73
3.58761e-74
7.38557e-75
1.52289e-75
3.1481e-76
6.52042e-77
1.35519e-77
2.82188e-78
5.94167e-79
1.06708e-79
8.89024e-84
1.87484e-81
1.97428e-79
1.38272e-77
7.25505e-76
3.04189e-74
1.06126e-72
3.16637e-71
8.23792e-70
1.89594e-68
3.90243e-67
7.24566e-66
1.222e-64
1.88288e-63
2.66353e-62
3.47392e-61
4.19296e-60
4.69877e-59
4.90317e-58
4.77675e-57
4.35502e-56
3.7241e-55
2.99347e-54
2.26691e-53
1.6212e-52
1.0977e-51
7.05516e-51
4.31549e-50
2.51831e-49
1.40511e-48
7.51174e-48
3.85594e-47
1.9053e-46
9.09334e-46
4.2162e-45
1.91826e-44
7.25313e-44
2.24759e-43
5.63557e-43
1.12781e-42
1.72338e-42
2.03001e-42
2.13605e-42
1.74201e-42
1.07762e-42
6.14205e-43
3.46095e-43
1.55039e-43
6.59756e-44
2.48736e-44
8.29761e-45
2.45435e-45
6.51626e-46
1.58816e-46
3.64239e-47
8.04774e-48
1.74738e-48
3.79805e-49
8.45554e-50
1.86408e-50
4.05613e-51
8.73002e-52
1.8622e-52
3.94353e-53
8.30289e-54
1.7402e-54
3.63446e-55
7.57024e-56
1.57358e-56
3.2658e-57
6.76954e-58
1.40185e-58
2.90054e-59
5.99695e-60
1.239e-60
2.55808e-61
5.27791e-62
1.08823e-62
2.24236e-63
4.61774e-64
9.50447e-65
1.95538e-65
4.02152e-66
8.26897e-67
1.70014e-67
3.49578e-68
7.18989e-69
1.47935e-69
3.04588e-70
6.27598e-71
1.29465e-71
2.67369e-72
5.53116e-73
1.14596e-73
2.37999e-74
4.95178e-75
1.0337e-75
2.1616e-76
4.5705e-77
8.23735e-78
2.27884e-82
5.05782e-80
5.60628e-78
4.13039e-76
2.27731e-74
1.00195e-72
3.66174e-71
1.14212e-69
3.09955e-68
7.42419e-67
1.58673e-65
3.05209e-64
5.32055e-63
8.45449e-62
1.23059e-60
1.64766e-59
2.03678e-58
2.33216e-57
2.48066e-56
2.45756e-55
2.27305e-54
1.96728e-53
1.59678e-52
1.21825e-51
8.75748e-51
5.94622e-50
3.82292e-49
2.33274e-48
1.35392e-47
7.48878e-47
3.95465e-46
1.99758e-45
9.67436e-45
4.50855e-44
2.03445e-43
8.96743e-43
3.28985e-42
9.89067e-42
2.40925e-41
4.69766e-41
7.01653e-41
8.1847e-41
8.56259e-41
6.90424e-41
4.26992e-41
2.37653e-41
1.32025e-41
5.94214e-42
2.52704e-42
9.55541e-43
3.20608e-43
9.54879e-44
2.55104e-44
6.25038e-45
1.44079e-45
3.201e-46
6.99688e-47
1.53417e-47
3.4321e-48
7.58871e-49
1.65706e-49
3.58092e-50
7.67293e-51
1.63288e-51
3.45617e-52
7.28456e-53
1.53043e-53
3.20749e-54
6.71008e-55
1.40182e-55
2.92544e-56
6.09969e-57
1.27083e-57
2.64576e-58
5.50423e-59
1.14425e-59
2.37692e-60
4.93376e-61
1.02333e-61
2.12098e-62
4.39311e-63
9.09397e-64
1.88161e-64
3.89176e-65
8.04779e-66
1.66408e-66
3.4414e-67
7.11885e-68
1.47341e-68
3.05149e-69
6.32628e-70
1.31286e-70
2.72888e-71
5.6799e-72
1.18493e-72
2.47607e-73
5.19069e-74
1.08983e-74
2.3135e-75
4.18357e-76
5.74292e-81
1.33037e-78
1.53861e-76
1.18123e-74
6.77227e-73
3.09046e-71
1.16809e-69
3.75688e-68
1.04828e-66
2.57461e-65
5.62821e-64
1.10483e-62
1.9616e-61
3.16884e-60
4.68121e-59
6.35138e-58
7.94462e-57
9.19218e-56
9.86704e-55
9.85209e-54
9.17263e-53
7.98125e-52
6.50462e-51
4.97632e-50
3.58178e-49
2.43084e-48
1.55886e-47
9.46432e-47
5.44936e-46
2.98006e-45
1.55007e-44
7.68129e-44
3.63486e-43
1.64889e-42
7.21429e-42
3.06474e-41
1.08816e-40
3.16637e-40
7.47788e-40
1.41838e-39
2.07446e-39
2.40197e-39
2.50259e-39
1.9816e-39
1.24783e-39
6.82649e-40
3.67094e-40
1.67208e-40
7.10741e-41
2.69627e-41
9.10526e-42
2.73333e-42
7.35559e-43
1.81322e-43
4.20361e-44
9.39471e-45
2.06783e-45
4.57716e-46
1.02842e-46
2.28079e-47
4.99834e-48
1.08467e-48
2.33507e-49
4.99478e-50
1.06303e-50
2.2537e-51
4.76408e-52
1.0049e-52
2.11631e-53
4.45164e-54
9.35529e-55
1.96451e-55
4.12223e-56
8.64358e-57
1.81101e-57
3.79132e-58
7.93021e-59
1.65726e-59
3.46022e-60
7.21831e-61
1.50456e-61
3.1337e-62
6.52271e-63
1.35697e-63
2.82202e-64
5.86749e-65
1.21996e-65
2.53683e-66
5.27739e-67
1.09841e-67
2.28822e-68
4.77103e-69
9.96236e-70
2.08279e-70
4.36379e-71
9.15671e-72
1.92727e-72
4.06207e-73
8.65535e-74
1.57012e-74
1.35843e-79
3.2353e-77
3.84549e-75
3.03105e-73
1.78121e-71
8.31582e-70
3.20907e-68
1.0517e-66
2.98476e-65
7.44396e-64
1.65013e-62
3.28085e-61
5.89392e-60
9.62557e-59
1.43644e-57
1.96745e-56
2.4827e-55
2.89595e-54
3.1316e-53
3.14757e-52
2.94735e-51
2.57681e-50
2.10781e-49
1.61643e-48
1.16443e-47
7.89431e-47
5.04527e-46
3.04408e-45
1.73602e-44
9.36799e-44
4.78866e-43
2.32227e-42
1.07102e-41
4.71599e-41
1.99298e-40
8.11738e-40
2.7814e-39
7.81328e-39
1.78547e-38
3.29003e-38
4.72128e-38
5.43745e-38
5.65165e-38
4.38106e-38
2.84181e-38
1.54618e-38
7.94642e-39
3.67476e-39
1.56158e-39
5.94578e-40
2.02242e-40
6.12637e-41
1.66277e-41
4.12812e-42
9.63319e-43
2.16706e-43
4.80524e-44
1.07467e-44
2.42323e-45
5.391e-46
1.18594e-46
2.58499e-47
5.59255e-48
1.20276e-48
2.57475e-49
5.49243e-50
1.1686e-50
2.48168e-51
5.26306e-52
1.11505e-52
2.36051e-53
4.99356e-54
1.05562e-54
2.22985e-55
4.70628e-56
9.92373e-57
2.09042e-57
4.39876e-58
9.24606e-59
1.94141e-59
4.07227e-60
8.53386e-61
1.78688e-61
3.73887e-62
7.81909e-63
1.63457e-63
3.4165e-64
7.14085e-65
1.49292e-65
3.12233e-66
6.53509e-67
1.36881e-67
2.87086e-68
6.02771e-69
1.26814e-69
2.67161e-70