/*--------------------------------*- C++ -*----------------------------------*\
| =========                 |                                                 |
| \\      /  F ield         | OpenFOAM: The Open Source CFD Toolbox           |
|  \\    /   O peration     | Version:  4.1                                   |
|   \\  /    A nd           | Web:      www.OpenFOAM.org                      |
|    \\/     M anipulation  |                                                 |
\*---------------------------------------------------------------------------*/
FoamFile
{
    version     2.0;
    format      ascii;
    class       volScalarField;
    location    "0.2";
    object      s_0;
}
// * * * * * * * * * * * * * * * * * * * * * * * * * * * * * * * * * * * * * //

dimensions      [0 0 0 0 0 0 0];

internalField   nonuniform List<scalar> 
43750
(
1
1
1
1
1
1
1
1
1
1
1
1
1
1
1
1
1
1
1
1
1
1
1
1
1
1
1
1
1
1
1
1
1
1
1
1
1
1
1
1
1
1
1
1
1
1
1
1
1
1
1
1
1
1
1
1
1
1
1
1
1
1
1
1
1
0.999999
0.999992
0.999913
0.999158
0.992881
0.950934
0.742562
0.377922
0.161036
0.0594861
0.0192111
0.00541195
0.00131761
0.000273302
4.74018e-05
6.71159e-06
7.5122e-07
6.33799e-08
3.75453e-09
1.82991e-10
1.14855e-11
1.54312e-12
2.89967e-13
5.32267e-14
2.73854e-14
8.22081e-13
1.47097e-11
4.52518e-12
6.32356e-13
6.10216e-14
4.28029e-15
2.18155e-16
8.10161e-18
2.8247e-19
5.30162e-21
1
1
1
1
1
1
1
1
1
1
1
1
1
1
1
1
1
1
1
1
1
1
1
1
1
1
1
1
1
1
1
1
1
1
1
1
1
1
1
1
1
1
1
1
1
1
1
1
1
1
1
1
1
1
1
1
1
1
1
1
1
1
1
1
1
1
0.999999
0.999992
0.99992
0.999307
0.995358
0.977287
0.917862
0.836617
0.779956
0.702058
0.573475
0.414849
0.266146
0.153718
0.0795483
0.0366721
0.0150285
0.00546947
0.00176564
0.000504635
0.000127341
2.82632e-05
5.49035e-06
9.27747e-07
1.3533e-07
1.68645e-08
1.77306e-09
1.54889e-10
1.10232e-11
6.22558e-13
2.68842e-14
1.04749e-15
4.91036e-17
1.01477e-18
1
1
1
1
1
1
1
1
1
1
1
1
1
1
1
1
1
1
1
1
1
1
1
1
1
1
1
1
1
1
1
1
1
1
1
1
1
1
1
1
1
1
1
1
1
1
1
1
1
1
1
1
1
1
1
1
1
1
1
1
1
1
1
1
1
1
1
0.999999
0.999995
0.999954
0.999701
0.998511
0.994077
0.982724
0.97163
0.95788
0.9335
0.8837
0.756443
0.52881
0.325919
0.179501
0.0888495
0.0396465
0.0159678
0.00580377
0.00190088
0.000559428
0.000147306
3.45006e-05
7.13202e-06
1.28846e-06
2.0087e-07
2.65907e-08
2.92667e-09
2.61532e-10
1.82077e-11
9.25699e-13
3.05517e-14
4.9138e-16
1
1
1
1
1
1
1
1
1
1
1
1
1
1
1
1
1
1
1
1
1
1
1
1
1
1
1
1
1
1
1
1
1
1
1
1
1
1
1
1
1
1
1
1
1
1
1
1
1
1
1
1
1
1
1
1
1
1
1
1
1
1
1
1
1
1
1
1
0.999999
0.999996
0.999974
0.99987
0.999474
0.998402
0.996497
0.992648
0.982619
0.949843
0.834144
0.577239
0.35584
0.199147
0.10133
0.0469033
0.0197519
0.00756275
0.00262875
0.000827321
0.000234843
5.98076e-05
1.35691e-05
2.71751e-06
4.74709e-07
7.11971e-08
8.97706e-09
9.23235e-10
7.43123e-11
4.38269e-12
1.68148e-13
3.14181e-15
1
1
1
1
1
1
1
1
1
1
1
1
1
1
1
1
1
1
1
1
1
1
1
1
1
1
1
1
1
1
1
1
1
1
1
1
1
1
1
1
1
1
1
1
1
1
1
1
1
1
1
1
1
1
1
1
1
1
1
1
1
1
1
1
1
1
1
1
1
0.999999
0.999996
0.999981
0.999916
0.999681
0.998849
0.995754
0.984123
0.94141
0.788554
0.524176
0.315327
0.173218
0.0869809
0.0399224
0.016737
0.00640112
0.00222887
0.000704544
0.000201376
5.17716e-05
1.18892e-05
2.41698e-06
4.29864e-07
6.58525e-08
8.50982e-09
9.01045e-10
7.49499e-11
4.59276e-12
1.83792e-13
3.58951e-15
1
1
1
1
1
1
1
1
1
1
1
1
1
1
1
1
1
1
1
1
1
1
1
1
1
1
1
1
1
1
1
1
1
1
1
1
1
1
1
1
1
1
1
1
1
1
1
1
1
1
1
1
1
1
1
1
1
1
1
1
1
1
1
1
1
1
1
1
1
1
0.999998
0.99999
0.999945
0.999732
0.998749
0.994303
0.97481
0.895188
0.653289
0.400839
0.225922
0.116887
0.0555557
0.0242651
0.00973563
0.00358432
0.00120866
0.000372272
0.000104336
2.64746e-05
6.04174e-06
1.22923e-06
2.20402e-07
3.42917e-08
4.53313e-09
4.94395e-10
4.2602e-11
2.70323e-12
1.11906e-13
2.2562e-15
1
1
1
1
1
1
1
1
1
1
1
1
1
1
1
1
1
1
1
1
1
1
1
1
1
1
1
1
1
1
1
1
1
1
1
1
1
1
1
1
1
1
1
1
1
1
1
1
1
1
1
1
1
1
1
1
1
1
1
1
1
1
1
1
1
1
1
1
1
1
0.999998
0.999989
0.999939
0.999667
0.99825
0.991417
0.961294
0.840822
0.560244
0.32888
0.175895
0.0860782
0.0386344
0.0159209
0.00602468
0.00209204
0.000665615
0.000193587
5.12973e-05
1.23289e-05
2.67154e-06
5.17742e-07
8.87743e-08
1.32703e-08
1.69436e-09
1.7948e-10
1.51074e-11
9.43582e-13
3.8672e-14
7.7463e-16
1
1
1
1
1
1
1
1
1
1
1
1
1
1
1
1
1
1
1
1
1
1
1
1
1
1
1
1
1
1
1
1
1
1
1
1
1
1
1
1
1
1
1
1
1
1
1
1
1
1
1
1
1
1
1
1
1
1
1
1
1
1
1
1
1
1
1
1
1
1
0.999998
0.999987
0.999925
0.999586
0.997833
0.989431
0.952499
0.805802
0.516182
0.294395
0.152275
0.0717683
0.0308921
0.0121602
0.00437916
0.00144222
0.000433856
0.000118982
2.96614e-05
6.69539e-06
1.36125e-06
2.47505e-07
3.98557e-08
5.60759e-09
6.76227e-10
6.79626e-11
5.45667e-12
3.26968e-13
1.29273e-14
2.50888e-16
1
1
1
1
1
1
1
1
1
1
1
1
1
1
1
1
1
1
1
1
1
1
1
1
1
1
1
1
1
1
1
1
1
1
1
1
1
1
1
1
1
1
1
1
1
1
1
1
1
1
1
1
1
1
1
1
1
1
1
1
1
1
1
1
1
1
1
1
1
1
0.999998
0.999986
0.999919
0.999547
0.99764
0.988547
0.94878
0.791809
0.50078
0.282049
0.143644
0.0663898
0.0278988
0.0106715
0.00371668
0.00117803
0.000339378
8.86822e-05
2.09582e-05
4.4622e-06
8.51558e-07
1.44693e-07
2.16949e-08
2.83522e-09
3.17306e-10
2.96264e-11
2.21638e-12
1.24317e-13
4.6269e-15
8.50167e-17
1
1
1
1
1
1
1
1
1
1
1
1
1
1
1
1
1
1
1
1
1
1
1
1
1
1
1
1
1
1
1
1
1
1
1
1
1
1
1
1
1
1
1
1
1
1
1
1
1
1
1
1
1
1
1
1
1
1
1
1
1
1
1
1
1
1
1
1
1
1
0.999998
0.999986
0.999918
0.999545
0.99763
0.988513
0.948681
0.791474
0.500002
0.280975
0.142514
0.0654311
0.027225
0.010271
0.00351373
0.00108919
0.000305429
7.72909e-05
1.75919e-05
3.58563e-06
6.50847e-07
1.04468e-07
1.46931e-08
1.78886e-09
1.85364e-10
1.59489e-11
1.09666e-12
5.65381e-14
1.93931e-15
3.29996e-17
1
1
1
1
1
1
1
1
1
1
1
1
1
1
1
1
1
1
1
1
1
1
1
1
1
1
1
1
1
1
1
1
1
1
1
1
1
1
1
1
1
1
1
1
1
1
1
1
1
1
1
1
1
1
1
1
1
1
1
1
1
1
1
1
1
1
1
1
1
1
0.999998
0.999987
0.999923
0.99957
0.997753
0.989062
0.950861
0.799002
0.505905
0.284101
0.143863
0.0659078
0.0273503
0.0102842
0.00350086
0.00107648
0.000298335
7.42839e-05
1.65542e-05
3.28638e-06
5.77548e-07
8.91525e-08
1.19696e-08
1.37986e-09
1.34238e-10
1.07522e-11
6.83037e-13
3.23442e-14
1.01587e-15
1.58323e-17
1
1
1
1
1
1
1
1
1
1
1
1
1
1
1
1
1
1
1
1
1
1
1
1
1
1
1
1
1
1
1
1
1
1
1
1
1
1
1
1
1
1
1
1
1
1
1
1
1
1
1
1
1
1
1
1
1
1
1
1
1
1
1
1
1
1
1
1
1
1
0.999998
0.99999
0.999938
0.999651
0.998146
0.990811
0.957937
0.824588
0.528886
0.296866
0.14979
0.068235
0.0281492
0.0105212
0.00356123
0.00108983
0.000300671
7.4505e-05
1.65006e-05
3.24269e-06
5.6147e-07
8.48961e-08
1.10905e-08
1.23515e-09
1.15151e-10
8.76221e-12
5.24119e-13
2.31745e-14
6.74943e-16
9.71216e-18
1
1
1
1
1
1
1
1
1
1
1
1
1
1
1
1
1
1
1
1
1
1
1
1
1
1
1
1
1
1
1
1
1
1
1
1
1
1
1
1
1
1
1
1
1
1
1
1
1
1
1
1
1
1
1
1
1
1
1
1
1
1
1
1
1
1
1
1
1
1
0.999999
0.999992
0.99995
0.999713
0.998453
0.992216
0.963858
0.847343
0.557241
0.31471
0.159731
0.0730567
0.0301384
0.0112253
0.0037748
0.00114521
0.00031299
7.68865e-05
1.68883e-05
3.29683e-06
5.67313e-07
8.52218e-08
1.10396e-08
1.21264e-09
1.10789e-10
8.1976e-12
4.72831e-13
1.9998e-14
5.52849e-16
7.5056e-18
1
1
1
1
1
1
1
1
1
1
1
1
1
1
1
1
1
1
1
1
1
1
1
1
1
1
1
1
1
1
1
1
1
1
1
1
1
1
1
1
1
1
1
1
1
1
1
1
1
1
1
1
1
1
1
1
1
1
1
1
1
1
1
1
1
1
1
1
1
1
0.999999
0.999993
0.999957
0.999751
0.998645
0.993106
0.967648
0.861966
0.578813
0.328916
0.168173
0.0774606
0.0321932
0.0120773
0.00408713
0.00124573
0.000340873
8.33644e-05
1.81493e-05
3.50333e-06
5.96514e-07
8.86759e-08
1.13695e-08
1.23836e-09
1.12235e-10
8.23452e-12
4.69856e-13
1.95409e-14
5.27921e-16
6.9629e-18
1
1
1
1
1
1
1
1
1
1
1
1
1
1
1
1
1
1
1
1
1
1
1
1
1
1
1
1
1
1
1
1
1
1
1
1
1
1
1
1
1
1
1
1
1
1
1
1
1
1
1
1
1
1
1
1
1
1
1
1
1
1
1
1
1
1
1
1
1
1
0.999999
0.999994
0.999962
0.99978
0.998792
0.99381
0.970712
0.87394
0.598441
0.341908
0.17597
0.0816124
0.0341624
0.0129136
0.00440601
0.00135482
0.000374467
9.26556e-05
2.04156e-05
3.97631e-06
6.7829e-07
1.00471e-07
1.2775e-08
1.37439e-09
1.22673e-10
8.84116e-12
4.95146e-13
2.0302e-14
5.42031e-16
7.07552e-18
1
1
1
1
1
1
1
1
1
1
1
1
1
1
1
1
1
1
1
1
1
1
1
1
1
1
1
1
1
1
1
1
1
1
1
1
1
1
1
1
1
1
1
1
1
1
1
1
1
1
1
1
1
1
1
1
1
1
1
1
1
1
1
1
1
1
1
1
1
1
0.999999
0.999995
0.999967
0.999806
0.998933
0.994501
0.973806
0.886333
0.621095
0.356994
0.184896
0.0862633
0.0362994
0.0137808
0.0047162
0.00145273
0.000401773
9.95457e-05
2.19906e-05
4.30183e-06
7.38595e-07
1.1018e-07
1.41051e-08
1.52589e-09
1.36719e-10
9.873e-12
5.52134e-13
2.24595e-14
5.93135e-16
7.65102e-18
1
1
1
1
1
1
1
1
1
1
1
1
1
1
1
1
1
1
1
1
1
1
1
1
1
1
1
1
1
1
1
1
1
1
1
1
1
1
1
1
1
1
1
1
1
1
1
1
1
1
1
1
1
1
1
1
1
1
1
1
1
1
1
1
1
1
1
1
1
1
0.999999
0.999995
0.999971
0.999832
0.999072
0.9952
0.976994
0.899314
0.647797
0.375441
0.196056
0.0922714
0.039194
0.0150354
0.00520817
0.00162518
0.000455397
0.000114053
2.54181e-05
5.01308e-06
8.68584e-07
1.30905e-07
1.69451e-08
1.85377e-09
1.67847e-10
1.22296e-11
6.88754e-13
2.81206e-14
7.41622e-16
9.50587e-18
1
1
1
1
1
1
1
1
1
1
1
1
1
1
1
1
1
1
1
1
1
1
1
1
1
1
1
1
1
1
1
1
1
1
1
1
1
1
1
1
1
1
1
1
1
1
1
1
1
1
1
1
1
1
1
1
1
1
1
1
1
1
1
1
1
1
1
1
1
1
0.999999
0.999996
0.999975
0.999856
0.999204
0.995877
0.980135
0.912344
0.678049
0.396614
0.208432
0.0985888
0.042026
0.0161538
0.005594
0.00174699
0.000491112
0.000123648
2.77292e-05
5.50467e-06
9.60037e-07
1.45688e-07
1.90025e-08
2.09697e-09
1.91769e-10
1.4131e-11
8.05888e-13
3.33837e-14
8.94591e-16
1.16577e-17
1
1
1
1
1
1
1
1
1
1
1
1
1
1
1
1
1
1
1
1
1
1
1
1
1
1
1
1
1
1
1
1
1
1
1
1
1
1
1
1
1
1
1
1
1
1
1
1
1
1
1
1
1
1
1
1
1
1
1
1
1
1
1
1
1
1
1
1
1
1
0.999999
0.999996
0.999978
0.999875
0.999317
0.996471
0.98298
0.924508
0.710828
0.422048
0.224329
0.107276
0.0462383
0.0179798
0.00630657
0.0019909
0.00056429
0.000143215
3.23891e-05
6.48552e-06
1.14071e-06
1.74521e-07
2.29419e-08
2.55085e-09
2.34977e-10
1.74348e-11
1.00057e-12
4.16696e-14
1.12148e-15
1.46894e-17
1
1
1
1
1
1
1
1
1
1
1
1
1
1
1
1
1
1
1
1
1
1
1
1
1
1
1
1
1
1
1
1
1
1
1
1
1
1
1
1
1
1
1
1
1
1
1
1
1
1
1
1
1
1
1
1
1
1
1
1
1
1
1
1
1
1
1
1
1
1
1
0.999997
0.999981
0.99989
0.999401
0.996923
0.985214
0.934361
0.741096
0.447568
0.240733
0.116289
0.0505614
0.0198099
0.00699643
0.00222511
0.000636127
0.000163025
3.72962e-05
7.56783e-06
1.35125e-06
2.1023e-07
2.81516e-08
3.19395e-09
3.00748e-10
2.28515e-11
1.34544e-12
5.75882e-14
1.59437e-15
2.14246e-17
1
1
1
1
1
1
1
1
1
1
1
1
1
1
1
1
1
1
1
1
1
1
1
1
1
1
1
1
1
1
1
1
1
1
1
1
1
1
1
1
1
1
1
1
1
1
1
1
1
1
1
1
1
1
1
1
1
1
1
1
1
1
1
1
1
1
1
1
1
1
1
0.999997
0.999983
0.999902
0.999467
0.997263
0.986868
0.941676
0.765855
0.470832
0.256865
0.125744
0.0553579
0.0219345
0.00781965
0.00250345
0.000717928
0.000183939
4.19726e-05
8.51978e-06
1.52477e-06
2.38177e-07
3.20688e-08
3.66327e-09
3.47747e-10
2.66705e-11
1.58685e-12
6.87083e-14
1.92647e-15
2.62673e-17
1
1
1
1
1
1
1
1
1
1
1
1
1
1
1
1
1
1
1
1
1
1
1
1
1
1
1
1
1
1
1
1
1
1
1
1
1
1
1
1
1
1
1
1
1
1
1
1
1
1
1
1
1
1
1
1
1
1
1
1
1
1
1
1
1
1
1
1
1
1
1
0.999998
0.999985
0.999915
0.999531
0.997575
0.988301
0.947769
0.78744
0.491981
0.271949
0.134893
0.0602057
0.0242073
0.00877302
0.00286613
0.000842133
0.000221313
5.17379e-05
1.06751e-05
1.93419e-06
3.05241e-07
4.14887e-08
4.7846e-09
4.5882e-10
3.5582e-11
2.14308e-12
9.40346e-14
2.67434e-15
3.70224e-17
1
1
1
1
1
1
1
1
1
1
1
1
1
1
1
1
1
1
1
1
1
1
1
1
1
1
1
1
1
1
1
1
1
1
1
1
1
1
1
1
1
1
1
1
1
1
1
1
1
1
1
1
1
1
1
1
1
1
1
1
1
1
1
1
1
1
1
1
1
1
1
0.999998
0.999988
0.999927
0.999597
0.997896
0.989748
0.953811
0.810009
0.51456
0.287852
0.144387
0.0651392
0.0264454
0.00965485
0.00316223
0.000928475
0.000245123
5.77811e-05
1.20626e-05
2.21305e-06
3.53579e-07
4.86337e-08
5.67341e-09
5.50196e-10
4.3146e-11
2.62785e-12
1.16613e-13
3.35426e-15
4.69599e-17
1
1
1
1
1
1
1
1
1
1
1
1
1
1
1
1
1
1
1
1
1
1
1
1
1
1
1
1
1
1
1
1
1
1
1
1
1
1
1
1
1
1
1
1
1
1
1
1
1
1
1
1
1
1
1
1
1
1
1
1
1
1
1
1
1
1
1
1
1
1
1
0.999998
0.99999
0.999939
0.999657
0.998193
0.991113
0.959597
0.832369
0.540485
0.305907
0.155397
0.0710411
0.0292663
0.010872
0.00364257
0.00109711
0.000294834
7.05557e-05
1.49698e-05
2.79536e-06
4.55063e-07
6.38124e-08
7.5905e-09
7.50544e-10
5.99999e-11
3.7243e-12
1.68372e-13
4.9314e-15
7.02496e-17
1
1
1
1
1
1
1
1
1
1
1
1
1
1
1
1
1
1
1
1
1
1
1
1
1
1
1
1
1
1
1
1
1
1
1
1
1
1
1
1
1
1
1
1
1
1
1
1
1
1
1
1
1
1
1
1
1
1
1
1
1
1
1
1
1
1
1
1
1
1
1
0.999999
0.999991
0.999948
0.999705
0.998434
0.992243
0.964507
0.851741
0.567601
0.325016
0.16726
0.0774216
0.0322404
0.0120649
0.00404843
0.00121826
0.000329433
7.94909e-05
1.7011e-05
3.20502e-06
5.26741e-07
7.46261e-08
8.97568e-09
8.98107e-10
7.27075e-11
4.57336e-12
2.09633e-13
6.22779e-15
9.00057e-17
1
1
1
1
1
1
1
1
1
1
1
1
1
1
1
1
1
1
1
1
1
1
1
1
1
1
1
1
1
1
1
1
1
1
1
1
1
1
1
1
1
1
1
1
1
1
1
1
1
1
1
1
1
1
1
1
1
1
1
1
1
1
1
1
1
1
1
1
1
1
1
0.999999
0.999992
0.999955
0.999744
0.998628
0.993158
0.968509
0.867628
0.593518
0.34421
0.179853
0.0845746
0.03584
0.0137017
0.00472335
0.00146169
0.000403247
9.90056e-05
2.15282e-05
4.11792e-06
6.86825e-07
9.8753e-08
1.20582e-08
1.22557e-09
1.00847e-10
6.45173e-12
3.00956e-13
9.10223e-15
1.33951e-16
1
1
1
1
1
1
1
1
1
1
1
1
1
1
1
1
1
1
1
1
1
1
1
1
1
1
1
1
1
1
1
1
1
1
1
1
1
1
1
1
1
1
1
1
1
1
1
1
1
1
1
1
1
1
1
1
1
1
1
1
1
1
1
1
1
1
1
1
1
1
1
0.999999
0.999994
0.999961
0.999779
0.998807
0.994007
0.972187
0.882032
0.619321
0.363442
0.192646
0.0920225
0.0395347
0.0152341
0.00525866
0.00163105
0.000454145
0.000112751
2.48055e-05
4.80106e-06
8.10186e-07
1.17845e-07
1.45556e-08
1.49649e-09
1.24577e-10
8.06456e-12
3.80764e-13
1.16592e-14
1.73749e-16
1
1
1
1
1
1
1
1
1
1
1
1
1
1
1
1
1
1
1
1
1
1
1
1
1
1
1
1
1
1
1
1
1
1
1
1
1
1
1
1
1
1
1
1
1
1
1
1
1
1
1
1
1
1
1
1
1
1
1
1
1
1
1
1
1
1
1
1
1
1
1
0.999999
0.999995
0.999968
0.999815
0.998994
0.994902
0.976089
0.897317
0.648984
0.384581
0.206429
0.100074
0.0438296
0.0173545
0.00619463
0.00197866
0.000563184
0.000142647
3.19998e-05
6.31354e-06
1.0857e-06
1.60852e-07
2.0226e-08
2.11589e-09
1.79138e-10
1.17891e-11
5.65642e-13
1.75941e-14
2.66242e-16
1
1
1
1
1
1
1
1
1
1
1
1
1
1
1
1
1
1
1
1
1
1
1
1
1
1
1
1
1
1
1
1
1
1
1
1
1
1
1
1
1
1
1
1
1
1
1
1
1
1
1
1
1
1
1
1
1
1
1
1
1
1
1
1
1
1
1
1
1
1
1
0.999999
0.999996
0.999974
0.999851
0.999187
0.995843
0.980274
0.91411
0.686659
0.411242
0.222795
0.109176
0.0483632
0.0192848
0.00689305
0.00221221
0.000636972
0.000163451
3.71555e-05
7.42948e-06
1.29502e-06
1.94519e-07
2.48022e-08
2.63136e-09
2.25962e-10
1.50844e-11
7.34207e-13
2.31678e-14
3.55628e-16
1
1
1
1
1
1
1
1
1
1
1
1
1
1
1
1
1
1
1
1
1
1
1
1
1
1
1
1
1
1
1
1
1
1
1
1
1
1
1
1
1
1
1
1
1
1
1
1
1
1
1
1
1
1
1
1
1
1
1
1
1
1
1
1
1
1
1
1
1
1
1
1
0.999997
0.99998
0.999886
0.999371
0.996752
0.984397
0.931081
0.732436
0.446109
0.244441
0.121011
0.0540565
0.0218697
0.00805641
0.00267146
0.000789898
0.000207612
4.8273e-05
9.86421e-06
1.75605e-06
2.69265e-07
3.50344e-08
3.79142e-09
3.31966e-10
2.25852e-11
1.11975e-12
3.59689e-14
5.6178e-16
1
1
1
1
1
1
1
1
1
1
1
1
1
1
1
1
1
1
1
1
1
1
1
1
1
1
1
1
1
1
1
1
1
1
1
1
1
1
1
1
1
1
1
1
1
1
1
1
1
1
1
1
1
1
1
1
1
1
1
1
1
1
1
1
1
1
1
1
1
1
1
1
0.999998
0.999986
0.999916
0.999531
0.997553
0.988085
0.946557
0.782706
0.489189
0.272179
0.136648
0.0620324
0.0253337
0.00923111
0.00304398
0.000905622
0.000240601
5.66573e-05
1.1736e-05
2.11899e-06
3.29659e-07
4.35314e-08
4.7824e-09
4.2518e-10
2.9378e-11
1.4795e-12
4.82809e-14
7.66016e-16
1
1
1
1
1
1
1
1
1
1
1
1
1
1
1
1
1
1
1
1
1
1
1
1
1
1
1
1
1
1
1
1
1
1
1
1
1
1
1
1
1
1
1
1
1
1
1
1
1
1
1
1
1
1
1
1
1
1
1
1
1
1
1
1
1
1
1
1
1
1
1
1
0.999998
0.99999
0.99994
0.999661
0.99821
0.991161
0.959683
0.832482
0.539552
0.305715
0.155887
0.0716478
0.0297958
0.0112651
0.00382747
0.00116091
0.000313928
7.52925e-05
1.58986e-05
2.92803e-06
4.64782e-07
6.26248e-08
7.01911e-09
6.36437e-10
4.48276e-11
2.29707e-12
7.59056e-14
1.21371e-15
1
1
1
1
1
1
1
1
1
1
1
1
1
1
1
1
1
1
1
1
1
1
1
1
1
1
1
1
1
1
1
1
1
1
1
1
1
1
1
1
1
1
1
1
1
1
1
1
1
1
1
1
1
1
1
1
1
1
1
1
1
1
1
1
1
1
1
1
1
1
1
1
0.999999
0.999993
0.999958
0.999762
0.998725
0.993612
0.970336
0.87414
0.600473
0.345135
0.179091
0.0838434
0.035339
0.0133077
0.00448493
0.00136785
0.000373694
9.06949e-05
1.93976e-05
3.62137e-06
5.83141e-07
7.97608e-08
9.0804e-09
8.36747e-10
5.99231e-11
3.15097e-12
1.08159e-13
1.80801e-15
1
1
1
1
1
1
1
1
1
1
1
1
1
1
1
1
1
1
1
1
1
1
1
1
1
1
1
1
1
1
1
1
1
1
1
1
1
1
1
1
1
1
1
1
1
1
1
1
1
1
1
1
1
1
1
1
1
1
1
1
1
1
1
1
1
1
1
1
1
1
1
1
0.999999
0.999995
0.999971
0.999836
0.999113
0.995489
0.978683
0.907675
0.668864
0.391829
0.206928
0.0984738
0.0422357
0.0163878
0.00575491
0.00180986
0.000506475
0.000125449
2.73435e-05
5.20033e-06
8.53085e-07
1.18885e-07
1.37034e-08
1.2683e-09
9.04205e-11
4.64559e-12
1.57219e-13
2.61378e-15
1
1
1
1
1
1
1
1
1
1
1
1
1
1
1
1
1
1
1
1
1
1
1
1
1
1
1
1
1
1
1
1
1
1
1
1
1
1
1
1
1
1
1
1
1
1
1
1
1
1
1
1
1
1
1
1
1
1
1
1
1
1
1
1
1
1
1
1
1
1
1
1
0.999999
0.999997
0.999981
0.999889
0.999392
0.996867
0.984953
0.93355
0.739613
0.4467
0.240804
0.116766
0.0509891
0.02005
0.00705513
0.00220624
0.000618944
0.000155202
3.43361e-05
6.63358e-06
1.10594e-06
1.5679e-07
1.88797e-08
1.84848e-09
1.40462e-10
7.73703e-12
2.71189e-13
4.58015e-15
1
1
1
1
1
1
1
1
1
1
1
1
1
1
1
1
1
1
1
1
1
1
1
1
1
1
1
1
1
1
1
1
1
1
1
1
1
1
1
1
1
1
1
1
1
1
1
1
1
1
1
1
1
1
1
1
1
1
1
1
1
1
1
1
1
1
1
1
1
1
1
1
1
0.999998
0.999987
0.999925
0.999585
0.99784
0.989477
0.952671
0.80652
0.507734
0.281226
0.139508
0.0621689
0.0248117
0.00888146
0.00289242
0.000850372
0.000220472
5.01024e-05
9.86059e-06
1.64967e-06
2.30933e-07
2.68483e-08
2.59175e-09
1.97146e-10
1.09903e-11
3.95644e-13
6.88809e-15
1
1
1
1
1
1
1
1
1
1
1
1
1
1
1
1
1
1
1
1
1
1
1
1
1
1
1
1
1
1
1
1
1
1
1
1
1
1
1
1
1
1
1
1
1
1
1
1
1
1
1
1
1
1
1
1
1
1
1
1
1
1
1
1
1
1
1
1
1
1
1
1
1
0.999999
0.999991
0.999949
0.999717
0.998511
0.992657
0.966417
0.859785
0.576565
0.327362
0.166737
0.0761507
0.0312968
0.0115682
0.00377511
0.00108184
0.000281018
6.46978e-05
1.32163e-05
2.35983e-06
3.57603e-07
4.43332e-08
4.37315e-09
3.33939e-10
1.86184e-11
6.7483e-13
1.19112e-14
1
1
1
1
1
1
1
1
1
1
1
1
1
1
1
1
1
1
1
1
1
1
1
1
1
1
1
1
1
1
1
1
1
1
1
1
1
1
1
1
1
1
1
1
1
1
1
1
1
1
1
1
1
1
1
1
1
1
1
1
1
1
1
1
1
1
1
1
1
1
1
1
1
0.999999
0.999994
0.999965
0.999806
0.998971
0.994875
0.976222
0.898713
0.64987
0.378403
0.198151
0.0930986
0.039157
0.0147356
0.0050181
0.00154097
0.000414156
9.56244e-05
1.87158e-05
3.26275e-06
4.93901e-07
6.25275e-08
6.36987e-09
5.01673e-10
2.87122e-11
1.06401e-12
1.91634e-14
1
1
1
1
1
1
1
1
1
1
1
1
1
1
1
1
1
1
1
1
1
1
1
1
1
1
1
1
1
1
1
1
1
1
1
1
1
1
1
1
1
1
1
1
1
1
1
1
1
1
1
1
1
1
1
1
1
1
1
1
1
1
1
1
1
1
1
1
1
1
1
1
1
0.999999
0.999996
0.999976
0.999866
0.999289
0.996427
0.983223
0.92733
0.722876
0.434617
0.233881
0.112996
0.0489793
0.0189809
0.00649018
0.00196401
0.000535806
0.000133971
2.92647e-05
5.341e-06
8.195e-07
1.04833e-07
1.08767e-08
8.75486e-10
5.11648e-11
1.92609e-12
3.51101e-14
1
1
1
1
1
1
1
1
1
1
1
1
1
1
1
1
1
1
1
1
1
1
1
1
1
1
1
1
1
1
1
1
1
1
1
1
1
1
1
1
1
1
1
1
1
1
1
1
1
1
1
1
1
1
1
1
1
1
1
1
1
1
1
1
1
1
1
1
1
1
1
1
1
1
0.999997
0.999984
0.999909
0.999511
0.997521
0.988231
0.948264
0.792145
0.496581
0.274999
0.136671
0.0609421
0.0242931
0.00870227
0.00279561
0.00078371
0.000187877
4.018e-05
7.51001e-06
1.18993e-06
1.56777e-07
1.67297e-08
1.38755e-09
8.37149e-11
3.26235e-12
6.14739e-14
1
1
1
1
1
1
1
1
1
1
1
1
1
1
1
1
1
1
1
1
1
1
1
1
1
1
1
1
1
1
1
1
1
1
1
1
1
1
1
1
1
1
1
1
1
1
1
1
1
1
1
1
1
1
1
1
1
1
1
1
1
1
1
1
1
1
1
1
1
1
1
1
1
1
0.999998
0.999989
0.999939
0.999668
0.998302
0.991837
0.963548
0.850726
0.566177
0.323275
0.165094
0.0757241
0.0313264
0.0115262
0.00371555
0.00106007
0.000273669
6.27778e-05
1.23191e-05
2.0318e-06
2.76189e-07
3.01498e-08
2.54042e-09
1.55158e-10
6.08934e-12
1.16364e-13
1
1
1
1
1
1
1
1
1
1
1
1
1
1
1
1
1
1
1
1
1
1
1
1
1
1
1
1
1
1
1
1
1
1
1
1
1
1
1
1
1
1
1
1
1
1
1
1
1
1
1
1
1
1
1
1
1
1
1
1
1
1
1
1
1
1
1
1
1
1
1
1
1
1
0.999999
0.999993
0.99996
0.99978
0.998861
0.994448
0.974767
0.894409
0.643708
0.378116
0.200201
0.0945772
0.0397889
0.0151741
0.00525867
0.00160719
0.000418904
9.24889e-05
1.8102e-05
3.05703e-06
4.30687e-07
4.90131e-08
4.32008e-09
2.76142e-10
1.13778e-11
2.25967e-13
1
1
1
1
1
1
1
1
1
1
1
1
1
1
1
1
1
1
1
1
1
1
1
1
1
1
1
1
1
1
1
1
1
1
1
1
1
1
1
1
1
1
1
1
1
1
1
1
1
1
1
1
1
1
1
1
1
1
1
1
1
1
1
1
1
1
1
1
1
1
1
1
1
1
0.999999
0.999996
0.999974
0.999858
0.999257
0.996325
0.982987
0.92722
0.724706
0.440275
0.240211
0.118264
0.0520312
0.020017
0.00683862
0.00214043
0.000601322
0.000147482
3.06511e-05
5.33025e-06
7.63416e-07
8.81841e-08
7.94619e-09
5.23948e-10
2.24183e-11
4.68121e-13
1
1
1
1
1
1
1
1
1
1
1
1
1
1
1
1
1
1
1
1
1
1
1
1
1
1
1
1
1
1
1
1
1
1
1
1
1
1
1
1
1
1
1
1
1
1
1
1
1
1
1
1
1
1
1
1
1
1
1
1
1
1
1
1
1
1
1
1
1
1
1
1
1
1
1
0.999997
0.999984
0.999911
0.999529
0.99764
0.988881
0.951408
0.805345
0.511418
0.288436
0.145788
0.0665519
0.027533
0.00987212
0.00300891
0.000839842
0.000209362
4.54164e-05
8.47372e-06
1.31211e-06
1.62089e-07
1.52126e-08
1.03534e-09
4.61129e-11
9.90833e-13
1
1
1
1
1
1
1
1
1
1
1
1
1
1
1
1
1
1
1
1
1
1
1
1
1
1
1
1
1
1
1
1
1
1
1
1
1
1
1
1
1
1
1
1
1
1
1
1
1
1
1
1
1
1
1
1
1
1
1
1
1
1
1
1
1
1
1
1
1
1
1
1
1
1
1
0.999998
0.99999
0.999945
0.999709
0.998527
0.992955
0.96861
0.871612
0.599569
0.346897
0.181605
0.0850683
0.0356575
0.0137923
0.00476443
0.0013838
0.000342139
7.32569e-05
1.37803e-05
2.19772e-06
2.85369e-07
2.87296e-08
2.10335e-09
9.95934e-11
2.32666e-12
1
1
1
1
1
1
1
1
1
1
1
1
1
1
1
1
1
1
1
1
1
1
1
1
1
1
1
1
1
1
1
1
1
1
1
1
1
1
1
1
1
1
1
1
1
1
1
1
1
1
1
1
1
1
1
1
1
1
1
1
1
1
1
1
1
1
1
1
1
1
1
1
1
1
1
0.999999
0.999994
0.999967
0.999824
0.999102
0.995657
0.980328
0.917778
0.700413
0.41908
0.226198
0.110368
0.0481707
0.0184414
0.00642385
0.00204879
0.000572961
0.000135492
2.64618e-05
4.26405e-06
5.54778e-07
5.79225e-08
4.46953e-09
2.25467e-10
5.4509e-12
1
1
1
1
1
1
1
1
1
1
1
1
1
1
1
1
1
1
1
1
1
1
1
1
1
1
1
1
1
1
1
1
1
1
1
1
1
1
1
1
1
1
1
1
1
1
1
1
1
1
1
1
1
1
1
1
1
1
1
1
1
1
1
1
1
1
1
1
1
1
1
1
1
1
1
0.999999
0.999996
0.99998
0.999895
0.999464
0.997383
0.987987
0.948828
0.800083
0.505021
0.282918
0.142491
0.0648647
0.02657
0.00942765
0.00294474
0.000835301
0.000208624
4.46242e-05
7.85541e-06
1.10305e-06
1.22633e-07
1.01604e-08
5.55303e-10
1.56254e-11
1
1
1
1
1
1
1
1
1
1
1
1
1
1
1
1
1
1
1
1
1
1
1
1
1
1
1
1
1
1
1
1
1
1
1
1
1
1
1
1
1
1
1
1
1
1
1
1
1
1
1
1
1
1
1
1
1
1
1
1
1
1
1
1
1
1
1
1
1
1
1
1
1
1
1
1
0.999998
0.999989
0.999939
0.999684
0.998452
0.992819
0.968913
0.876188
0.611029
0.354433
0.185428
0.0871455
0.0368378
0.0142504
0.00482303
0.00138513
0.00034544
7.61644e-05
1.43064e-05
2.20749e-06
2.67668e-07
2.41469e-08
1.44861e-09
4.25067e-11
1
1
1
1
1
1
1
1
1
1
1
1
1
1
1
1
1
1
1
1
1
1
1
1
1
1
1
1
1
1
1
1
1
1
1
1
1
1
1
1
1
1
1
1
1
1
1
1
1
1
1
1
1
1
1
1
1
1
1
1
1
1
1
1
1
1
1
1
1
1
1
1
1
1
1
1
0.999999
0.999993
0.999964
0.999817
0.999099
0.995786
0.981504
0.924788
0.725195
0.441954
0.241534
0.118632
0.0521414
0.0203328
0.0072575
0.00232873
0.000641616
0.000148249
2.83961e-05
4.64496e-06
6.14177e-07
6.18026e-08
4.24205e-09
1.65953e-10
1
1
1
1
1
1
1
1
1
1
1
1
1
1
1
1
1
1
1
1
1
1
1
1
1
1
1
1
1
1
1
1
1
1
1
1
1
1
1
1
1
1
1
1
1
1
1
1
1
1
1
1
1
1
1
1
1
1
1
1
1
1
1
1
1
1
1
1
1
1
1
1
1
1
1
1
0.999999
0.999996
0.99998
0.999896
0.999484
0.997571
0.989211
0.955311
0.829903
0.542356
0.311473
0.160687
0.0744171
0.0307822
0.0110832
0.00359629
0.0010517
0.000265918
5.6727e-05
1.01352e-05
1.48132e-06
1.67785e-07
1.33819e-08
5.61997e-10
7.50771e-90
2.33546e-87
3.63493e-85
3.72826e-83
2.81984e-81
1.66885e-79
8.02032e-78
3.2117e-76
1.09248e-74
3.20505e-73
8.21021e-72
1.85522e-70
3.7294e-69
6.71709e-68
1.09061e-66
1.60477e-65
2.1501e-64
2.63434e-63
2.96326e-62
3.07166e-61
2.94455e-60
2.61954e-59
2.17041e-58
1.68109e-57
1.22204e-56
8.37195e-56
5.42832e-55
3.34527e-54
1.96731e-53
1.10824e-52
6.00214e-52
3.1371e-51
1.58901e-50
7.84134e-50
3.79875e-49
1.82688e-48
7.30515e-48
2.39056e-47
6.31311e-47
1.32387e-46
2.12546e-46
2.57267e-46
2.74587e-46
2.24183e-46
1.47556e-46
8.79669e-47
4.83388e-47
2.20284e-47
9.38124e-48
3.51758e-48
1.16162e-48
3.39648e-49
8.92494e-50
2.15558e-50
4.89897e-51
1.07101e-51
2.29478e-52
4.90738e-53
1.08196e-53
2.3707e-54
5.12207e-55
1.09359e-55
2.31208e-56
4.84918e-57
1.01047e-57
2.09475e-58
4.32482e-59
8.90052e-60
1.82718e-60
3.74373e-61
7.65887e-62
1.56493e-62
3.19442e-63
6.51509e-64
1.32778e-64
2.70423e-65
5.50425e-66
1.11974e-66
2.27679e-67
4.62752e-68
9.40219e-69
1.90987e-69
3.87904e-70
7.87846e-71
1.60038e-71
3.25183e-72
6.61063e-73
1.3447e-73
2.73773e-74
5.57935e-75
1.13858e-75
2.32672e-76
4.76381e-77
9.77094e-78
2.00931e-78
4.14084e-79
8.5634e-80
1.77474e-80
3.71897e-81
6.65243e-82
1.84239e-85
3.91177e-83
4.14406e-81
2.91394e-79
1.53013e-77
6.39488e-76
2.21422e-74
6.52795e-73
1.67137e-71
3.7716e-70
7.58758e-69
1.37326e-67
2.25268e-66
3.37012e-65
4.62285e-64
5.84142e-63
6.82766e-62
7.40946e-61
7.49072e-60
7.07646e-59
6.26485e-58
5.21176e-57
4.08485e-56
3.02438e-55
2.1211e-54
1.4132e-53
8.97102e-53
5.44173e-52
3.16275e-51
1.76558e-50
9.48826e-50
4.91963e-49
2.46722e-48
1.20058e-47
5.69832e-47
2.66485e-46
1.0351e-45
3.29724e-45
8.49107e-45
1.74077e-44
2.72486e-44
3.24863e-44
3.44139e-44
2.81623e-44
1.77987e-44
1.03949e-44
5.82805e-45
2.62211e-45
1.11638e-45
4.19693e-46
1.3926e-46
4.09389e-47
1.08097e-47
2.62208e-48
5.98572e-49
1.31553e-49
2.83765e-50
6.11712e-51
1.35529e-51
2.97892e-52
6.4594e-53
1.38474e-53
2.94077e-54
6.19775e-55
1.2982e-55
2.70604e-56
5.61921e-57
1.16342e-57
2.4033e-58
4.95586e-59
1.02055e-59
2.0993e-60
4.31438e-61
8.85968e-62
1.81805e-62
3.72827e-63
7.64073e-64
1.56497e-64
3.20361e-65
6.55481e-66
1.34061e-66
2.74092e-67
5.60273e-68
1.14513e-68
2.34064e-69
4.7851e-70
9.78624e-71
2.00244e-71
4.10059e-72
8.40447e-73
1.72473e-73
3.54383e-74
7.29487e-75
1.50407e-75
3.10894e-76
6.43877e-77
1.3381e-77
2.78607e-78
5.86577e-79
1.05337e-79
8.80632e-84
1.8572e-81
1.95578e-79
1.36982e-77
7.1876e-76
3.01372e-74
1.05148e-72
3.13731e-71
8.16263e-70
1.8787e-68
3.86711e-67
7.18041e-66
1.21106e-64
1.86611e-63
2.63994e-62
3.44333e-61
4.15626e-60
4.6579e-59
4.8608e-58
4.73576e-57
4.31792e-56
3.69261e-55
2.96835e-54
2.24803e-53
1.60781e-52
1.0887e-51
6.99775e-51
4.28067e-50
2.49817e-49
1.39399e-48
7.45297e-48
3.82617e-47
1.89078e-46
9.02488e-46
4.18466e-45
1.90392e-44
7.19809e-44
2.23018e-43
5.59096e-43
1.11876e-42
1.70919e-42
2.01263e-42
2.11716e-42
1.72643e-42
1.06786e-42
6.08544e-43
3.42854e-43
1.53582e-43
6.53473e-44
2.46336e-44
8.21641e-45
2.43002e-45
6.45101e-46
1.57214e-46
3.60552e-47
7.96613e-48
1.72966e-48
3.75963e-49
8.36999e-50
1.84515e-50
4.0148e-51
8.64071e-52
1.84307e-52
3.90284e-53
8.21685e-54
1.72208e-54
3.59644e-55
7.49067e-56
1.55696e-56
3.23112e-57
6.69729e-58
1.38681e-58
2.86925e-59
5.93189e-60
1.22549e-60
2.53001e-61
5.21966e-62
1.07615e-62
2.21731e-63
4.56586e-64
9.39703e-65
1.93314e-65
3.97551e-66
8.17377e-67
1.68045e-67
3.45503e-68
7.10556e-69
1.46189e-69
3.0097e-70
6.20096e-71
1.27907e-71
2.64132e-72
5.46376e-73
1.13191e-73
2.35061e-74
4.89025e-75
1.02078e-75
2.13438e-76
4.51257e-77
8.1323e-78
2.25807e-82
5.01188e-80
5.55555e-78
4.09316e-76
2.25686e-74
9.92992e-73
3.62912e-71
1.13199e-69
3.07217e-68
7.35889e-67
1.57284e-65
3.0255e-64
5.27441e-63
8.38155e-62
1.22003e-60
1.6336e-59
2.01949e-58
2.31247e-57
2.45984e-56
2.43706e-55
2.25422e-54
1.9511e-53
1.58374e-52
1.20837e-51
8.68696e-51
5.89868e-50
3.79257e-49
2.31437e-48
1.34335e-47
7.43089e-47
3.92442e-46
1.98249e-45
9.60221e-45
4.47525e-44
2.01949e-43
8.90177e-43
3.26538e-42
9.81558e-42
2.39055e-41
4.66079e-41
6.95977e-41
8.11588e-41
8.48802e-41
6.84408e-41
4.23154e-41
2.35475e-41
1.30817e-41
5.8871e-42
2.50332e-42
9.46449e-43
3.17515e-43
9.45542e-44
2.52582e-44
6.18816e-45
1.42639e-45
3.16894e-46
6.92681e-47
1.51885e-47
3.39777e-48
7.51255e-49
1.64037e-49
3.5447e-50
7.59499e-51
1.61622e-51
3.42074e-52
7.20954e-53
1.51459e-53
3.17413e-54
6.63992e-55
1.38708e-55
2.89452e-56
6.03488e-57
1.25725e-57
2.61733e-58
5.44473e-59
1.13181e-59
2.35092e-60
4.87947e-61
1.012e-61
2.09736e-62
4.34388e-63
8.99142e-64
1.86026e-64
3.84733e-65
7.95533e-66
1.64484e-66
3.40136e-67
7.0355e-68
1.45605e-68
3.01531e-69
6.25078e-70
1.2971e-70
2.69589e-71
5.61079e-72
1.17042e-72
2.44555e-73
5.12628e-74
1.07622e-74
2.2844e-75
4.13064e-76
5.69252e-81
1.31873e-78
1.52518e-76
1.17096e-74
6.71356e-73
3.06376e-71
1.15803e-69
3.72464e-68
1.03932e-66
2.55269e-65
5.58048e-64
1.0955e-62
1.94511e-61
3.14233e-60
4.64223e-59
6.29875e-58
7.87913e-57
9.11681e-56
9.78661e-55
9.77226e-54
9.09877e-53
7.91741e-52
6.45293e-51
4.93703e-50
3.55369e-49
2.41191e-48
1.5468e-47
9.39164e-47
5.40786e-46
2.95758e-45
1.5385e-44
7.6246e-44
3.60832e-43
1.63694e-42
7.16223e-42
3.04276e-41
1.08023e-40
3.14282e-40
7.42107e-40
1.40748e-39
2.05799e-39
2.38215e-39
2.48121e-39
1.96476e-39
1.23672e-39
6.76434e-40
3.63809e-40
1.65682e-40
7.04168e-41
2.671e-41
9.01869e-42
2.70699e-42
7.28387e-43
1.7954e-43
4.16212e-44
9.30181e-45
2.04739e-45
4.53203e-46
1.01826e-46
2.25817e-47
4.94858e-48
1.07383e-48
2.31162e-49
4.94439e-50
1.05226e-50
2.23074e-51
4.71531e-52
9.94562e-53
2.09442e-53
4.40533e-54
9.25742e-55
1.94384e-55
4.07862e-56
8.55158e-57
1.79162e-57
3.75048e-58
7.84426e-59
1.63918e-59
3.42225e-60
7.13861e-61
1.48784e-61
3.09866e-62
6.44933e-63
1.34161e-63
2.78987e-64
5.80022e-65
1.20588e-65
2.50737e-66
5.21571e-67
1.08549e-67
2.26113e-68
4.71418e-69
9.84289e-70
2.05765e-70
4.31077e-71
9.04472e-72
1.90355e-72
4.01173e-73
8.54734e-74
1.55041e-74
1.34693e-79
3.20799e-77
3.81309e-75
3.00558e-73
1.76628e-71
8.24632e-70
3.18234e-68
1.04296e-66
2.96005e-65
7.38258e-64
1.63658e-62
3.25401e-61
5.84591e-60
9.54751e-59
1.42485e-57
1.95164e-56
2.46286e-55
2.87292e-54
3.10684e-53
3.12282e-52
2.92432e-51
2.55679e-50
2.09153e-49
1.60402e-48
1.15555e-47
7.83445e-47
5.00726e-46
3.02131e-45
1.72314e-44
9.2991e-44
4.75379e-43
2.30552e-42
1.06335e-41
4.68244e-41
1.97888e-40
8.06041e-40
2.76154e-39
7.7564e-39
1.77221e-38
3.26533e-38
4.68453e-38
5.39348e-38
5.60448e-38
4.34468e-38
2.81687e-38
1.53225e-38
7.87661e-39
3.64171e-39
1.54735e-39
5.89089e-40
2.00348e-40
6.06818e-41
1.64678e-41
4.0881e-42
9.53935e-43
2.14591e-43
4.75835e-44
1.06421e-44
2.39957e-45
5.33817e-46
1.17428e-46
2.55945e-47
5.53705e-48
1.19076e-48
2.54895e-49
5.43711e-50
1.15676e-50
2.45642e-51
5.20918e-52
1.10357e-52
2.33607e-53
4.94155e-54
1.04456e-54
2.20635e-55
4.65637e-56
9.81783e-57
2.06797e-57
4.35123e-58
9.14552e-59
1.92017e-59
4.02742e-60
8.43927e-61
1.76695e-61
3.6969e-62
7.73075e-63
1.61598e-63
3.37741e-64
7.05861e-65
1.47562e-65
3.0859e-66
6.45835e-67
1.35264e-67
2.83671e-68
5.95554e-69
1.25285e-69