/*--------------------------------*- C++ -*----------------------------------*\
| =========                 |                                                 |
| \\      /  F ield         | OpenFOAM: The Open Source CFD Toolbox           |
|  \\    /   O peration     | Version:  4.1                                   |
|   \\  /    A nd           | Web:      www.OpenFOAM.org                      |
|    \\/     M anipulation  |                                                 |
\*---------------------------------------------------------------------------*/
FoamFile
{
    version     2.0;
    format      ascii;
    class       volVectorField;
    location    "0.2";
    object      U;
}
// * * * * * * * * * * * * * * * * * * * * * * * * * * * * * * * * * * * * * //

dimensions      [0 1 -1 0 0 0 0];

internalField   nonuniform List<vector> 
43750
(
(10.085 0.154405 0)
(10.1352 0.142273 0)
(10.0439 0.0866297 0)
(9.97906 0.036575 0)
(9.96143 0.00327224 0)
(9.96375 -0.000567308 0)
(9.96748 0.0117023 0)
(9.96809 0.01837 0)
(9.96302 0.0132962 0)
(9.94805 0.00356063 0)
(9.92014 -0.00270987 0)
(9.88305 -0.0022232 0)
(9.8475 0.00317896 0)
(9.82302 0.00992473 0)
(9.80937 0.0161164 0)
(9.79586 0.0213904 0)
(9.76993 0.02447 0)
(9.72828 0.0229859 0)
(9.67948 0.016079 0)
(9.63495 0.00666357 0)
(9.59828 0.000527821 0)
(9.56393 0.00119998 0)
(9.52477 0.0063485 0)
(9.47986 0.0105241 0)
(9.43452 0.0113374 0)
(9.39362 0.0128625 0)
(9.35579 0.0214437 0)
(9.31434 0.0375389 0)
(9.26399 0.0529215 0)
(9.20654 0.0572477 0)
(9.14897 0.0483697 0)
(9.09585 0.0359979 0)
(9.044 0.0338798 0)
(8.98482 0.0473852 0)
(8.91238 0.068306 0)
(8.82998 0.0812195 0)
(8.74809 0.0756746 0)
(8.67587 0.0554287 0)
(8.61365 0.0367127 0)
(8.55113 0.0363265 0)
(8.47308 0.0576958 0)
(8.37027 0.0851954 0)
(8.248 0.0947967 0)
(8.12363 0.0750389 0)
(8.01387 0.0390533 0)
(7.92313 0.0144927 0)
(7.84214 0.0191889 0)
(7.75654 0.047198 0)
(7.65779 0.0771238 0)
(7.5468 0.0920756 0)
(7.42916 0.0908617 0)
(7.30895 0.0832475 0)
(7.18617 0.0799476 0)
(7.05688 0.0866812 0)
(6.91509 0.101705 0)
(6.75743 0.116069 0)
(6.58764 0.119996 0)
(6.4146 0.112203 0)
(6.24451 0.100268 0)
(6.07665 0.0899779 0)
(5.90775 0.0801839 0)
(5.73644 0.0736046 0)
(5.55847 0.0844671 0)
(5.36087 0.120931 0)
(5.1312 0.162969 0)
(4.87371 0.181003 0)
(4.60289 0.181513 0)
(4.31446 0.204965 0)
(3.98001 0.26396 0)
(3.5849 0.312811 0)
(3.15731 0.302218 0)
(2.74693 0.239219 0)
(2.38384 0.167186 0)
(2.06914 0.118546 0)
(1.79143 0.0983273 0)
(1.5384 0.0953175 0)
(1.30018 0.0968473 0)
(1.07066 0.0967582 0)
(0.84722 0.0932549 0)
(0.629821 0.0865474 0)
(0.420145 0.0772094 0)
(0.220692 0.065655 0)
(0.0345234 0.0521783 0)
(-0.135674 0.0371385 0)
(-0.287498 0.0213428 0)
(-0.418617 0.00524753 0)
(-0.527519 -0.0107223 0)
(-0.613428 -0.0261001 0)
(-0.676039 -0.0405018 0)
(-0.715366 -0.0538189 0)
(-0.73181 -0.0662013 0)
(-0.725778 -0.0778722 0)
(-0.697941 -0.0883322 0)
(-0.650238 -0.0970751 0)
(-0.584092 -0.103906 0)
(-0.502158 -0.108954 0)
(-0.406462 -0.112581 0)
(-0.299651 -0.115573 0)
(-0.183074 -0.118801 0)
(-0.0613437 -0.117381 0)
(10.0063 -0.0105447 0)
(10.027 0.0434607 0)
(10.0572 0.046823 0)
(10.0822 0.0305522 0)
(10.0704 0.0110455 0)
(10.0377 -0.0079478 0)
(10.0143 -0.0186379 0)
(10.0096 -0.0146624 0)
(10.0101 0.0060295 0)
(10.0007 0.0381098 0)
(9.97903 0.0667191 0)
(9.95079 0.0749615 0)
(9.92122 0.0576632 0)
(9.89426 0.0284801 0)
(9.87608 0.0103592 0)
(9.87314 0.016944 0)
(9.88451 0.0421518 0)
(9.89716 0.0671508 0)
(9.89248 0.077687 0)
(9.86127 0.0748874 0)
(9.81196 0.0701255 0)
(9.76203 0.0716055 0)
(9.7222 0.0774148 0)
(9.68909 0.0801223 0)
(9.65252 0.0753757 0)
(9.60844 0.0656622 0)
(9.56352 0.0570038 0)
(9.52768 0.0533326 0)
(9.50296 0.0543228 0)
(9.48019 0.0576488 0)
(9.44703 0.0621411 0)
(9.39953 0.0682304 0)
(9.34574 0.0758793 0)
(9.2983 0.0829002 0)
(9.26301 0.0859003 0)
(9.23345 0.0836104 0)
(9.19608 0.0792708 0)
(9.14073 0.0789269 0)
(9.06796 0.0867864 0)
(8.98964 0.102205 0)
(8.92221 0.120879 0)
(8.87565 0.138188 0)
(8.84491 0.151551 0)
(8.81027 0.160117 0)
(8.74965 0.162541 0)
(8.65528 0.157512 0)
(8.54104 0.146889 0)
(8.43187 0.136377 0)
(8.34447 0.13189 0)
(8.27716 0.135751 0)
(8.21486 0.145965 0)
(8.14226 0.158425 0)
(8.05442 0.170367 0)
(7.95782 0.182151 0)
(7.86347 0.195389 0)
(7.77865 0.209565 0)
(7.70281 0.221632 0)
(7.62908 0.22962 0)
(7.54822 0.235785 0)
(7.45136 0.244869 0)
(7.33107 0.258841 0)
(7.1849 0.274664 0)
(7.02222 0.289108 0)
(6.86398 0.303985 0)
(6.72588 0.323461 0)
(6.60008 0.348209 0)
(6.46232 0.376916 0)
(6.30178 0.411932 0)
(6.13328 0.456649 0)
(5.97238 0.502573 0)
(5.81327 0.531604 0)
(5.63536 0.532365 0)
(5.42443 0.507765 0)
(5.18779 0.469655 0)
(4.94507 0.429533 0)
(4.70812 0.395608 0)
(4.47867 0.371765 0)
(4.2537 0.357334 0)
(4.02764 0.348815 0)
(3.79628 0.342072 0)
(3.55859 0.333761 0)
(3.31582 0.321976 0)
(3.07031 0.306122 0)
(2.82467 0.286107 0)
(2.58093 0.26239 0)
(2.34098 0.235461 0)
(2.10666 0.205956 0)
(1.87971 0.17459 0)
(1.66155 0.14212 0)
(1.45336 0.109193 0)
(1.25613 0.0763125 0)
(1.07041 0.0438327 0)
(0.896375 0.0122843 0)
(0.735 -0.0175228 0)
(0.586768 -0.0450592 0)
(0.452483 -0.0698657 0)
(0.332283 -0.0914138 0)
(0.225473 -0.109119 0)
(0.129861 -0.121575 0)
(0.0415234 -0.128442 0)
(10.176 0.159159 0)
(10.238 0.133967 0)
(10.1814 0.0649073 0)
(10.1396 0.0427993 0)
(10.0933 0.0584572 0)
(10.0478 0.0621679 0)
(10.0144 0.0415527 0)
(9.9877 0.0223401 0)
(9.96067 0.0232309 0)
(9.93789 0.0369644 0)
(9.9277 0.0490928 0)
(9.92631 0.0556681 0)
(9.91653 0.0586156 0)
(9.88491 0.0545298 0)
(9.83715 0.0379338 0)
(9.7932 0.0143393 0)
(9.76862 0.00204185 0)
(9.76304 0.0159983 0)
(9.76418 0.0514413 0)
(9.75937 0.0861741 0)
(9.74384 0.0998574 0)
(9.72068 0.0919939 0)
(9.69474 0.0799588 0)
(9.6671 0.0798077 0)
(9.63389 0.0914026 0)
(9.58949 0.102247 0)
(9.5313 0.103577 0)
(9.46255 0.099823 0)
(9.39165 0.101897 0)
(9.32821 0.114111 0)
(9.27786 0.129732 0)
(9.23945 0.138482 0)
(9.20649 0.137075 0)
(9.17085 0.132355 0)
(9.1265 0.134552 0)
(9.07138 0.147954 0)
(9.00709 0.167678 0)
(8.93787 0.183891 0)
(8.869 0.189602 0)
(8.8041 0.184991 0)
(8.74387 0.175051 0)
(8.68757 0.165467 0)
(8.635 0.161883 0)
(8.58534 0.170216 0)
(8.53414 0.192456 0)
(8.47338 0.221012 0)
(8.39636 0.2416 0)
(8.30348 0.244451 0)
(8.20305 0.233621 0)
(8.10499 0.224103 0)
(8.01321 0.228481 0)
(7.92351 0.246407 0)
(7.82824 0.26705 0)
(7.7236 0.280293 0)
(7.61333 0.283586 0)
(7.506 0.279688 0)
(7.40844 0.273039 0)
(7.32126 0.270476 0)
(7.23989 0.280976 0)
(7.15878 0.309028 0)
(7.07417 0.347725 0)
(6.98376 0.382091 0)
(6.8856 0.402493 0)
(6.77911 0.413056 0)
(6.66705 0.425269 0)
(6.55428 0.447029 0)
(6.44468 0.480813 0)
(6.34091 0.526545 0)
(6.24638 0.579364 0)
(6.1636 0.62544 0)
(6.08452 0.649871 0)
(5.99355 0.649157 0)
(5.88304 0.631844 0)
(5.75481 0.607932 0)
(5.61448 0.582798 0)
(5.46864 0.560532 0)
(5.3208 0.546317 0)
(5.16968 0.541974 0)
(5.01195 0.544876 0)
(4.84471 0.550204 0)
(4.66656 0.553197 0)
(4.47748 0.550849 0)
(4.27812 0.542188 0)
(4.06938 0.527448 0)
(3.85207 0.507365 0)
(3.62696 0.482818 0)
(3.39473 0.454667 0)
(3.15596 0.423685 0)
(2.91128 0.390567 0)
(2.66134 0.35602 0)
(2.40697 0.320727 0)
(2.14896 0.285327 0)
(1.88852 0.250245 0)
(1.62702 0.215474 0)
(1.3658 0.181179 0)
(1.10661 0.147789 0)
(0.851527 0.116328 0)
(0.601816 0.0885513 0)
(0.358233 0.0674311 0)
(0.118308 0.0561781 0)
(9.9698 0.247491 0)
(9.99907 0.144774 0)
(10.0334 0.080594 0)
(10.0276 0.0834787 0)
(10.0207 0.0851274 0)
(10.0255 0.0604756 0)
(10.0309 0.0354984 0)
(10.0271 0.0360438 0)
(10.0143 0.0543713 0)
(9.99858 0.068955 0)
(9.98544 0.0756562 0)
(9.97614 0.0847222 0)
(9.9672 0.0990291 0)
(9.95236 0.107717 0)
(9.92605 0.101205 0)
(9.88681 0.0843386 0)
(9.83892 0.0712578 0)
(9.79053 0.0711813 0)
(9.74879 0.08205 0)
(9.71564 0.0962736 0)
(9.68748 0.109058 0)
(9.65907 0.120106 0)
(9.6279 0.130496 0)
(9.59491 0.141048 0)
(9.56074 0.153025 0)
(9.52238 0.167489 0)
(9.47516 0.182327 0)
(9.41876 0.191085 0)
(9.35986 0.1872 0)
(9.30719 0.170693 0)
(9.26383 0.150348 0)
(9.22438 0.138518 0)
(9.18037 0.142698 0)
(9.12866 0.160868 0)
(9.07423 0.184056 0)
(9.02465 0.202945 0)
(8.98214 0.213116 0)
(8.94086 0.216464 0)
(8.89168 0.218642 0)
(8.8295 0.224413 0)
(8.75655 0.234168 0)
(8.67915 0.244577 0)
(8.60253 0.253169 0)
(8.52905 0.261988 0)
(8.45912 0.275861 0)
(8.39107 0.296073 0)
(8.32063 0.31666 0)
(8.24273 0.328746 0)
(8.15539 0.329041 0)
(8.06182 0.324072 0)
(7.96817 0.325631 0)
(7.8784 0.341116 0)
(7.79104 0.367567 0)
(7.70091 0.394262 0)
(7.60373 0.410562 0)
(7.49896 0.412529 0)
(7.38871 0.404656 0)
(7.27574 0.396683 0)
(7.16316 0.397773 0)
(7.05483 0.411737 0)
(6.95283 0.436407 0)
(6.85311 0.466896 0)
(6.74564 0.498845 0)
(6.62217 0.529258 0)
(6.48502 0.556032 0)
(6.34618 0.57837 0)
(6.21784 0.597993 0)
(6.10558 0.618923 0)
(6.00955 0.645011 0)
(5.92584 0.675561 0)
(5.84709 0.704169 0)
(5.7656 0.72505 0)
(5.67609 0.733472 0)
(5.57807 0.726644 0)
(5.47434 0.708001 0)
(5.36645 0.686758 0)
(5.25373 0.672193 0)
(5.13492 0.669273 0)
(5.00942 0.677026 0)
(4.87677 0.690274 0)
(4.7363 0.7031 0)
(4.58733 0.71145 0)
(4.42931 0.713722 0)
(4.26181 0.71008 0)
(4.08451 0.701379 0)
(3.8971 0.68852 0)
(3.69916 0.672243 0)
(3.49025 0.653155 0)
(3.26999 0.631809 0)
(3.03808 0.608702 0)
(2.7943 0.584254 0)
(2.53864 0.558685 0)
(2.27117 0.532165 0)
(1.99215 0.504434 0)
(1.70258 0.475332 0)
(1.4038 0.445013 0)
(1.09781 0.414435 0)
(0.786597 0.385534 0)
(0.472663 0.362567 0)
(0.156975 0.348678 0)
(9.98437 0.0149585 0)
(10.0231 0.0726941 0)
(10.0226 0.0954334 0)
(10.0358 0.0900288 0)
(10.0641 0.0813641 0)
(10.0664 0.0657276 0)
(10.0349 0.0463703 0)
(9.99587 0.041136 0)
(9.96819 0.0536148 0)
(9.95083 0.0682937 0)
(9.93549 0.0738272 0)
(9.91892 0.0756195 0)
(9.90332 0.0835468 0)
(9.8885 0.0965762 0)
(9.86925 0.104476 0)
(9.84114 0.102471 0)
(9.80514 0.098838 0)
(9.76588 0.105843 0)
(9.72762 0.12542 0)
(9.69297 0.146343 0)
(9.66375 0.15568 0)
(9.641 0.151527 0)
(9.62378 0.144392 0)
(9.60858 0.147199 0)
(9.59066 0.16423 0)
(9.56634 0.188534 0)
(9.53407 0.208459 0)
(9.49374 0.216633 0)
(9.44554 0.214632 0)
(9.39016 0.210751 0)
(9.33018 0.213016 0)
(9.27016 0.222778 0)
(9.21454 0.234185 0)
(9.16478 0.240175 0)
(9.11833 0.23995 0)
(9.07036 0.240838 0)
(9.01672 0.251934 0)
(8.95609 0.275145 0)
(8.89 0.302545 0)
(8.82078 0.322432 0)
(8.74895 0.328032 0)
(8.67287 0.321772 0)
(8.59137 0.313364 0)
(8.50704 0.31411 0)
(8.42564 0.330398 0)
(8.35129 0.359417 0)
(8.28232 0.390103 0)
(8.2121 0.410269 0)
(8.13426 0.415596 0)
(8.04709 0.412818 0)
(7.95393 0.413722 0)
(7.86049 0.425576 0)
(7.77168 0.446735 0)
(7.6891 0.469855 0)
(7.60895 0.487735 0)
(7.52213 0.496872 0)
(7.41874 0.498497 0)
(7.29538 0.498232 0)
(7.15867 0.503715 0)
(7.02096 0.520447 0)
(6.89173 0.549329 0)
(6.77231 0.587573 0)
(6.65709 0.629992 0)
(6.53869 0.6692 0)
(6.41287 0.697533 0)
(6.2806 0.712226 0)
(6.14707 0.719123 0)
(6.01832 0.729266 0)
(5.89774 0.750211 0)
(5.78507 0.779676 0)
(5.67766 0.808457 0)
(5.57273 0.826753 0)
(5.46933 0.829326 0)
(5.36716 0.818349 0)
(5.26416 0.800893 0)
(5.15671 0.785675 0)
(5.04218 0.779653 0)
(4.92039 0.785471 0)
(4.79278 0.800975 0)
(4.66075 0.82099 0)
(4.5249 0.840314 0)
(4.38491 0.85556 0)
(4.23989 0.86544 0)
(4.08881 0.870123 0)
(3.9307 0.870398 0)
(3.7647 0.867104 0)
(3.58991 0.860995 0)
(3.40543 0.852758 0)
(3.21034 0.842985 0)
(3.00373 0.832176 0)
(2.78465 0.820693 0)
(2.55215 0.808711 0)
(2.30533 0.796121 0)
(2.04335 0.782674 0)
(1.76582 0.767837 0)
(1.47249 0.751005 0)
(1.16416 0.732214 0)
(0.842172 0.712661 0)
(0.509809 0.696026 0)
(0.170125 0.684791 0)
(9.9774 0.00515617 0)
(10.0019 0.0735533 0)
(10.0121 0.0726918 0)
(10.0177 0.0380545 0)
(10.0201 0.0430133 0)
(10.0225 0.077531 0)
(10.0174 0.100104 0)
(10.007 0.101564 0)
(9.99627 0.0973404 0)
(9.97999 0.0986148 0)
(9.94997 0.105091 0)
(9.90785 0.115077 0)
(9.86748 0.12812 0)
(9.84368 0.140777 0)
(9.83848 0.147702 0)
(9.83928 0.147904 0)
(9.83047 0.146643 0)
(9.80714 0.149533 0)
(9.7776 0.156215 0)
(9.75297 0.161522 0)
(9.73495 0.16219 0)
(9.71387 0.160746 0)
(9.67827 0.163099 0)
(9.62629 0.174013 0)
(9.56778 0.194813 0)
(9.51586 0.223235 0)
(9.47649 0.253721 0)
(9.44511 0.278427 0)
(9.41205 0.289985 0)
(9.37113 0.285612 0)
(9.32408 0.269901 0)
(9.27742 0.253367 0)
(9.23521 0.246859 0)
(9.19442 0.255642 0)
(9.14709 0.27722 0)
(9.08714 0.303707 0)
(9.01578 0.326779 0)
(8.94044 0.342357 0)
(8.86887 0.352528 0)
(8.80389 0.363356 0)
(8.74238 0.37952 0)
(8.67806 0.399656 0)
(8.60568 0.417168 0)
(8.52457 0.427005 0)
(8.43967 0.431776 0)
(8.35838 0.43971 0)
(8.28498 0.455779 0)
(8.217 0.476201 0)
(8.14695 0.493015 0)
(8.06804 0.503098 0)
(7.97864 0.510772 0)
(7.88226 0.521719 0)
(7.78434 0.537017 0)
(7.6889 0.554735 0)
(7.59628 0.575004 0)
(7.50191 0.599917 0)
(7.39789 0.628299 0)
(7.27824 0.653737 0)
(7.14439 0.669983 0)
(7.00519 0.677764 0)
(6.87127 0.685303 0)
(6.74891 0.702356 0)
(6.63782 0.733321 0)
(6.53244 0.774013 0)
(6.4246 0.813888 0)
(6.3072 0.84305 0)
(6.17816 0.859269 0)
(6.04201 0.86905 0)
(5.90688 0.881514 0)
(5.77878 0.900406 0)
(5.65837 0.921095 0)
(5.54253 0.935074 0)
(5.42747 0.937023 0)
(5.30987 0.928247 0)
(5.1867 0.915538 0)
(5.05591 0.907098 0)
(4.91724 0.908359 0)
(4.77235 0.920087 0)
(4.62387 0.939202 0)
(4.47415 0.961198 0)
(4.32428 0.982168 0)
(4.17406 0.999739 0)
(4.02247 1.01308 0)
(3.86828 1.02238 0)
(3.71032 1.02832 0)
(3.54757 1.03166 0)
(3.37913 1.03317 0)
(3.20402 1.0336 0)
(3.02123 1.03363 0)
(2.82964 1.03386 0)
(2.62804 1.03471 0)
(2.41508 1.03637 0)
(2.18931 1.03873 0)
(1.94913 1.04135 0)
(1.69312 1.04336 0)
(1.41993 1.04361 0)
(1.12924 1.04123 0)
(0.821414 1.03614 0)
(0.499473 1.03046 0)
(0.167094 1.02459 0)
(10.1251 -0.0583178 0)
(10.1248 0.0205318 0)
(10.0878 0.0838165 0)
(10.0575 0.0952346 0)
(10.0275 0.0895137 0)
(10.0086 0.0782194 0)
(10.0007 0.065619 0)
(9.99486 0.0644694 0)
(9.98508 0.08388 0)
(9.97158 0.11782 0)
(9.95399 0.148713 0)
(9.93093 0.160335 0)
(9.90424 0.149344 0)
(9.87966 0.126485 0)
(9.86139 0.109037 0)
(9.84718 0.110042 0)
(9.8299 0.130049 0)
(9.80393 0.157357 0)
(9.77 0.177947 0)
(9.73409 0.187319 0)
(9.70193 0.193309 0)
(9.67457 0.20707 0)
(9.64801 0.231331 0)
(9.61646 0.257775 0)
(9.57654 0.275486 0)
(9.52964 0.281093 0)
(9.48135 0.280507 0)
(9.43808 0.282066 0)
(9.40226 0.289144 0)
(9.36976 0.298927 0)
(9.33231 0.306957 0)
(9.28361 0.312194 0)
(9.22405 0.318061 0)
(9.15972 0.329278 0)
(9.0972 0.348014 0)
(9.03885 0.372631 0)
(8.98196 0.399045 0)
(8.92138 0.422731 0)
(8.85369 0.440251 0)
(8.78063 0.450552 0)
(8.70901 0.455751 0)
(8.64608 0.46023 0)
(8.59288 0.468015 0)
(8.54181 0.480509 0)
(8.48192 0.496531 0)
(8.4081 0.51411 0)
(8.32498 0.531878 0)
(8.2413 0.54911 0)
(8.16129 0.56565 0)
(8.08194 0.582412 0)
(7.99758 0.601011 0)
(7.90489 0.621764 0)
(7.80352 0.642475 0)
(7.69448 0.660719 0)
(7.58037 0.677651 0)
(7.46635 0.697822 0)
(7.35774 0.723901 0)
(7.2554 0.752487 0)
(7.15459 0.776692 0)
(7.04914 0.793066 0)
(6.93652 0.805266 0)
(6.81892 0.821187 0)
(6.70027 0.847078 0)
(6.58266 0.883291 0)
(6.46503 0.923829 0)
(6.34428 0.959788 0)
(6.21803 0.985013 0)
(6.08685 1.00026 0)
(5.95433 1.01191 0)
(5.82444 1.02587 0)
(5.69853 1.04228 0)
(5.57435 1.05609 0)
(5.4476 1.06229 0)
(5.31425 1.06071 0)
(5.17187 1.0565 0)
(5.02007 1.05628 0)
(4.86027 1.06397 0)
(4.6952 1.07936 0)
(4.5279 1.09945 0)
(4.36075 1.12069 0)
(4.19486 1.14049 0)
(4.03016 1.15752 0)
(3.86577 1.17149 0)
(3.70059 1.18267 0)
(3.5336 1.1916 0)
(3.36392 1.19893 0)
(3.19082 1.20533 0)
(3.01358 1.21152 0)
(2.83145 1.21824 0)
(2.64352 1.2262 0)
(2.44874 1.23603 0)
(2.24582 1.24814 0)
(2.03328 1.26267 0)
(1.80934 1.27926 0)
(1.57222 1.29701 0)
(1.32 1.31436 0)
(1.05156 1.32951 0)
(0.766379 1.34073 0)
(0.466842 1.34802 0)
(0.156294 1.34885 0)
(10.0083 0.21978 0)
(9.97194 0.168323 0)
(10.0081 0.101056 0)
(10.0468 0.073135 0)
(10.0504 0.0767475 0)
(10.03 0.0964315 0)
(10.0085 0.111914 0)
(9.98616 0.115846 0)
(9.95871 0.117213 0)
(9.93508 0.125719 0)
(9.92775 0.142582 0)
(9.93517 0.162491 0)
(9.94047 0.177754 0)
(9.92671 0.183091 0)
(9.89177 0.180716 0)
(9.84785 0.180499 0)
(9.80806 0.191355 0)
(9.77545 0.211256 0)
(9.74456 0.228118 0)
(9.71082 0.231655 0)
(9.67648 0.223562 0)
(9.6476 0.216079 0)
(9.62685 0.221827 0)
(9.61032 0.245096 0)
(9.59096 0.280471 0)
(9.56457 0.316974 0)
(9.53224 0.344067 0)
(9.49764 0.356877 0)
(9.46295 0.358236 0)
(9.42671 0.355822 0)
(9.38495 0.356344 0)
(9.33418 0.361808 0)
(9.27397 0.370866 0)
(9.20746 0.382638 0)
(9.13989 0.398241 0)
(9.07626 0.418972 0)
(9.01955 0.444046 0)
(8.96961 0.470153 0)
(8.92279 0.492597 0)
(8.87316 0.507298 0)
(8.81566 0.513425 0)
(8.74904 0.51535 0)
(8.67576 0.521286 0)
(8.59856 0.538027 0)
(8.51787 0.565494 0)
(8.43324 0.596396 0)
(8.34641 0.622026 0)
(8.26121 0.639055 0)
(8.17962 0.651234 0)
(8.0989 0.665334 0)
(8.01385 0.685999 0)
(7.92155 0.713564 0)
(7.82277 0.744853 0)
(7.71931 0.775174 0)
(7.61197 0.800777 0)
(7.50202 0.821103 0)
(7.39267 0.838908 0)
(7.28664 0.857406 0)
(7.18234 0.877214 0)
(7.0748 0.896765 0)
(6.96083 0.915924 0)
(6.84177 0.938303 0)
(6.72063 0.968782 0)
(6.598 1.00826 0)
(6.4722 1.05118 0)
(6.34268 1.0887 0)
(6.21192 1.11489 0)
(6.08343 1.13073 0)
(5.9585 1.14244 0)
(5.83524 1.15588 0)
(5.71011 1.17201 0)
(5.57994 1.18728 0)
(5.44283 1.19794 0)
(5.29801 1.2039 0)
(5.14541 1.20889 0)
(4.98545 1.21748 0)
(4.81912 1.23193 0)
(4.64805 1.25125 0)
(4.47418 1.27265 0)
(4.29915 1.29348 0)
(4.12394 1.31225 0)
(3.94876 1.32854 0)
(3.7733 1.34255 0)
(3.59696 1.35467 0)
(3.41917 1.36533 0)
(3.23942 1.37505 0)
(3.05732 1.38444 0)
(2.87248 1.39422 0)
(2.6845 1.40516 0)
(2.4929 1.4181 0)
(2.29705 1.43384 0)
(2.0961 1.45306 0)
(1.8889 1.47619 0)
(1.67391 1.50317 0)
(1.44946 1.53325 0)
(1.21357 1.56469 0)
(0.964867 1.59495 0)
(0.7023 1.62075 0)
(0.427536 1.64003 0)
(0.143033 1.64712 0)
(9.92341 0.115723 0)
(9.98041 0.0417138 0)
(10.0194 0.0308669 0)
(10.0256 0.076786 0)
(10.0069 0.117399 0)
(9.98987 0.119139 0)
(9.98123 0.108285 0)
(9.97566 0.116835 0)
(9.96153 0.139545 0)
(9.93774 0.153367 0)
(9.91618 0.15219 0)
(9.90493 0.150154 0)
(9.89773 0.159359 0)
(9.88218 0.175453 0)
(9.85392 0.187013 0)
(9.82146 0.192233 0)
(9.79796 0.200551 0)
(9.78926 0.218634 0)
(9.78962 0.240161 0)
(9.78738 0.253011 0)
(9.77338 0.254443 0)
(9.74491 0.255249 0)
(9.70471 0.268128 0)
(9.65868 0.294181 0)
(9.61417 0.322404 0)
(9.57771 0.341179 0)
(9.55104 0.348522 0)
(9.52868 0.351855 0)
(9.50082 0.360026 0)
(9.46005 0.376495 0)
(9.40597 0.398782 0)
(9.34349 0.422262 0)
(9.27795 0.443728 0)
(9.21262 0.462287 0)
(9.14956 0.478281 0)
(9.09098 0.492264 0)
(9.03867 0.505228 0)
(8.99216 0.519217 0)
(8.9476 0.536541 0)
(8.89856 0.557562 0)
(8.83882 0.579707 0)
(8.76605 0.599888 0)
(8.68366 0.61822 0)
(8.59869 0.638143 0)
(8.51698 0.661731 0)
(8.4397 0.685776 0)
(8.36398 0.704567 0)
(8.28608 0.717012 0)
(8.20333 0.729422 0)
(8.11394 0.74986 0)
(8.01699 0.780165 0)
(7.91423 0.814687 0)
(7.81092 0.846445 0)
(7.7126 0.872968 0)
(7.61988 0.895983 0)
(7.52734 0.917737 0)
(7.42846 0.939587 0)
(7.32104 0.962903 0)
(7.20743 0.988426 0)
(7.09076 1.01444 0)
(6.97247 1.03838 0)
(6.85288 1.06185 0)
(6.73176 1.09163 0)
(6.6077 1.13267 0)
(6.47873 1.18018 0)
(6.34527 1.22121 0)
(6.21173 1.24561 0)
(6.08326 1.25519 0)
(5.96073 1.26158 0)
(5.83908 1.27548 0)
(5.71115 1.29836 0)
(5.57272 1.32357 0)
(5.42446 1.34386 0)
(5.26984 1.35745 0)
(5.11176 1.36831 0)
(4.95102 1.38183 0)
(4.78696 1.40065 0)
(4.61885 1.42365 0)
(4.44661 1.44781 0)
(4.27078 1.47051 0)
(4.09209 1.49056 0)
(3.91108 1.50795 0)
(3.72805 1.52319 0)
(3.54303 1.5368 0)
(3.35599 1.54925 0)
(3.16682 1.561 0)
(2.97544 1.57265 0)
(2.78181 1.58488 0)
(2.58587 1.59854 0)
(2.38751 1.61456 0)
(2.18657 1.63394 0)
(1.98266 1.65755 0)
(1.77522 1.68611 0)
(1.56329 1.71983 0)
(1.34562 1.75825 0)
(1.12055 1.79968 0)
(0.886788 1.84117 0)
(0.643087 1.87823 0)
(0.390505 1.90704 0)
(0.130411 1.91908 0)
(9.85654 -0.0287151 0)
(9.88763 -0.0110956 0)
(9.93895 0.0368239 0)
(9.96401 0.0727479 0)
(9.98704 0.110768 0)
(10.004 0.130189 0)
(10.0032 0.128543 0)
(9.98593 0.131414 0)
(9.96711 0.149467 0)
(9.95694 0.166554 0)
(9.95147 0.172455 0)
(9.94125 0.178888 0)
(9.92339 0.199239 0)
(9.90274 0.226965 0)
(9.88384 0.242745 0)
(9.86545 0.238422 0)
(9.84381 0.225771 0)
(9.81866 0.222024 0)
(9.79315 0.232671 0)
(9.7688 0.250632 0)
(9.74319 0.268342 0)
(9.71308 0.28606 0)
(9.67839 0.308195 0)
(9.64215 0.334907 0)
(9.60715 0.360266 0)
(9.57328 0.378826 0)
(9.53776 0.391973 0)
(9.49771 0.406302 0)
(9.45218 0.42637 0)
(9.4023 0.450384 0)
(9.35004 0.472859 0)
(9.29687 0.490048 0)
(9.2435 0.502179 0)
(9.19073 0.511628 0)
(9.13996 0.520567 0)
(9.09223 0.530597 0)
(9.04658 0.543626 0)
(8.9997 0.561949 0)
(8.94771 0.586807 0)
(8.8882 0.616474 0)
(8.821 0.646052 0)
(8.74782 0.670395 0)
(8.67189 0.688428 0)
(8.59745 0.704449 0)
(8.52753 0.724105 0)
(8.46119 0.748755 0)
(8.39292 0.774673 0)
(8.31637 0.798391 0)
(8.22922 0.821742 0)
(8.13463 0.849853 0)
(8.03788 0.883969 0)
(7.94223 0.918283 0)
(7.84775 0.945692 0)
(7.7528 0.965942 0)
(7.65544 0.986075 0)
(7.55355 1.01266 0)
(7.44527 1.04533 0)
(7.33069 1.07855 0)
(7.21271 1.10762 0)
(7.09496 1.13177 0)
(6.97867 1.15359 0)
(6.86208 1.1784 0)
(6.74271 1.21293 0)
(6.61979 1.25998 0)
(6.49452 1.31233 0)
(6.36898 1.35483 0)
(6.24485 1.37659 0)
(6.12188 1.38178 0)
(5.99695 1.38673 0)
(5.86517 1.40545 0)
(5.72291 1.43826 0)
(5.57063 1.47388 0)
(5.41264 1.50091 0)
(5.25391 1.51691 0)
(5.09664 1.52814 0)
(4.93959 1.54268 0)
(4.77987 1.56438 0)
(4.61515 1.59173 0)
(4.44453 1.62073 0)
(4.26829 1.64793 0)
(4.08724 1.67182 0)
(3.90221 1.69243 0)
(3.71382 1.71045 0)
(3.52248 1.72659 0)
(3.3284 1.74143 0)
(3.13174 1.75552 0)
(2.93262 1.76941 0)
(2.7312 1.78381 0)
(2.52765 1.79955 0)
(2.32216 1.81762 0)
(2.11494 1.8391 0)
(1.90604 1.86509 0)
(1.69544 1.89654 0)
(1.48278 1.93396 0)
(1.26747 1.97715 0)
(1.04843 2.02457 0)
(0.824701 2.07314 0)
(0.595036 2.1176 0)
(0.36001 2.15291 0)
(0.119938 2.16818 0)
(10.0469 -0.0679344 0)
(10.0206 -0.0599755 0)
(9.9837 -0.00377922 0)
(9.96425 0.0511382 0)
(9.98257 0.0755113 0)
(10.0078 0.0955967 0)
(10.0066 0.126902 0)
(9.98222 0.158966 0)
(9.95925 0.174983 0)
(9.95026 0.174007 0)
(9.94643 0.171287 0)
(9.93514 0.180258 0)
(9.9186 0.19855 0)
(9.90828 0.214439 0)
(9.90711 0.222797 0)
(9.90483 0.230091 0)
(9.8894 0.244782 0)
(9.85883 0.266617 0)
(9.82124 0.287287 0)
(9.78526 0.30021 0)
(9.75285 0.307753 0)
(9.72089 0.318611 0)
(9.68679 0.338887 0)
(9.65063 0.366239 0)
(9.61248 0.392637 0)
(9.5705 0.412111 0)
(9.52333 0.425557 0)
(9.47353 0.438722 0)
(9.42679 0.4565 0)
(9.38696 0.479459 0)
(9.35215 0.504834 0)
(9.31576 0.529306 0)
(9.27119 0.550328 0)
(9.21574 0.566213 0)
(9.15126 0.576932 0)
(9.08242 0.585432 0)
(9.01483 0.597185 0)
(8.95357 0.617265 0)
(8.9015 0.647138 0)
(8.85712 0.683497 0)
(8.81397 0.719696 0)
(8.76317 0.749121 0)
(8.69856 0.769191 0)
(8.62093 0.783405 0)
(8.53698 0.799003 0)
(8.45353 0.821419 0)
(8.37216 0.850429 0)
(8.28926 0.881791 0)
(8.2009 0.912289 0)
(8.10734 0.9423 0)
(8.01281 0.973472 0)
(7.92104 1.0054 0)
(7.83128 1.03606 0)
(7.73879 1.06506 0)
(7.63949 1.09464 0)
(7.53392 1.12704 0)
(7.42647 1.16145 0)
(7.32089 1.19456 0)
(7.21689 1.22357 0)
(7.11102 1.2483 0)
(7.00011 1.27145 0)
(6.88385 1.29826 0)
(6.76473 1.33448 0)
(6.6461 1.3814 0)
(6.53015 1.43141 0)
(6.41666 1.47112 0)
(6.30285 1.49274 0)
(6.18417 1.50286 0)
(6.05592 1.51789 0)
(5.91522 1.54918 0)
(5.76266 1.59284 0)
(5.60259 1.6341 0)
(5.44102 1.66108 0)
(5.28215 1.67408 0)
(5.12617 1.68328 0)
(4.96989 1.69918 0)
(4.80938 1.72556 0)
(4.64216 1.75936 0)
(4.46784 1.79494 0)
(4.28732 1.82796 0)
(4.10182 1.8567 0)
(3.91226 1.88134 0)
(3.71922 1.90283 0)
(3.52299 1.92208 0)
(3.32373 1.93982 0)
(3.12157 1.95661 0)
(2.91664 1.97302 0)
(2.70916 1.9897 0)
(2.49942 2.00744 0)
(2.28778 2.0272 0)
(2.07468 2.05005 0)
(1.86053 2.07719 0)
(1.64575 2.10973 0)
(1.4305 2.14848 0)
(1.21482 2.19354 0)
(0.998226 2.24358 0)
(0.780279 2.29558 0)
(0.559925 2.34389 0)
(0.337404 2.3828 0)
(0.112121 2.39968 0)
(10.0937 -0.0515942 0)
(10.0615 0.0166562 0)
(10.0637 0.0577792 0)
(10.0597 0.0664585 0)
(10.0432 0.0809187 0)
(10.0243 0.114999 0)
(10.0094 0.151228 0)
(10.0055 0.171269 0)
(10.0107 0.174594 0)
(10.014 0.175034 0)
(10.0061 0.185087 0)
(9.9869 0.204907 0)
(9.96086 0.225537 0)
(9.93065 0.23957 0)
(9.89732 0.248263 0)
(9.86282 0.258571 0)
(9.83069 0.274443 0)
(9.80335 0.293013 0)
(9.77931 0.309176 0)
(9.75349 0.321914 0)
(9.72068 0.335143 0)
(9.67979 0.353485 0)
(9.63527 0.378461 0)
(9.59424 0.408154 0)
(9.56165 0.438752 0)
(9.53678 0.466151 0)
(9.51402 0.487274 0)
(9.48677 0.501574 0)
(9.45125 0.512078 0)
(9.40772 0.524389 0)
(9.35928 0.543459 0)
(9.30983 0.57034 0)
(9.26209 0.601484 0)
(9.21615 0.630999 0)
(9.16917 0.653811 0)
(9.11709 0.667651 0)
(9.05744 0.673706 0)
(8.9914 0.676788 0)
(8.92359 0.684628 0)
(8.85937 0.70487 0)
(8.80119 0.740206 0)
(8.74652 0.785375 0)
(8.68926 0.829854 0)
(8.62387 0.865218 0)
(8.54908 0.890935 0)
(8.4681 0.913203 0)
(8.38548 0.938574 0)
(8.30346 0.969198 0)
(8.22097 1.00327 0)
(8.1355 1.03784 0)
(8.04584 1.07055 0)
(7.9532 1.10039 0)
(7.85968 1.12869 0)
(7.76567 1.15865 0)
(7.66921 1.19209 0)
(7.56852 1.22705 0)
(7.4649 1.25981 0)
(7.3619 1.28938 0)
(7.2611 1.31831 0)
(7.15973 1.3489 0)
(7.05334 1.38079 0)
(6.94082 1.41373 0)
(6.82576 1.45073 0)
(6.71268 1.49478 0)
(6.60236 1.54213 0)
(6.49102 1.58249 0)
(6.37337 1.60914 0)
(6.24621 1.62821 0)
(6.10926 1.65462 0)
(5.96382 1.69739 0)
(5.81157 1.74975 0)
(5.65484 1.79482 0)
(5.49643 1.82104 0)
(5.33842 1.83157 0)
(5.18066 1.84009 0)
(5.02075 1.85901 0)
(4.85556 1.89159 0)
(4.68308 1.9328 0)
(4.50327 1.97521 0)
(4.31741 2.01372 0)
(4.12702 2.04672 0)
(3.93311 2.0749 0)
(3.73615 2.09959 0)
(3.5362 2.12193 0)
(3.33323 2.1427 0)
(3.12722 2.16244 0)
(2.91822 2.18163 0)
(2.70642 2.20083 0)
(2.49212 2.22074 0)
(2.27575 2.24219 0)
(2.05786 2.2662 0)
(1.8391 2.29394 0)
(1.62017 2.32658 0)
(1.40168 2.36509 0)
(1.18416 2.40985 0)
(0.967701 2.45985 0)
(0.752316 2.5123 0)
(0.537247 2.56151 0)
(0.322545 2.6016 0)
(0.106939 2.61869 0)
(10.0102 -0.151934 0)
(10.0289 -0.0479273 0)
(9.9849 0.0403925 0)
(9.97476 0.0721106 0)
(9.98658 0.0952494 0)
(9.99608 0.125212 0)
(9.98625 0.151159 0)
(9.96165 0.165488 0)
(9.93835 0.17325 0)
(9.92767 0.183198 0)
(9.92847 0.200953 0)
(9.931 0.226789 0)
(9.92567 0.254787 0)
(9.90777 0.276631 0)
(9.87912 0.288396 0)
(9.84706 0.294053 0)
(9.81875 0.301408 0)
(9.79564 0.315015 0)
(9.77376 0.334043 0)
(9.74929 0.355842 0)
(9.72246 0.379128 0)
(9.69575 0.403067 0)
(9.66968 0.425003 0)
(9.64168 0.441477 0)
(9.60878 0.452155 0)
(9.57102 0.461721 0)
(9.5316 0.477097 0)
(9.49369 0.502369 0)
(9.45706 0.535884 0)
(9.41776 0.571555 0)
(9.37156 0.602908 0)
(9.31828 0.626753 0)
(9.26294 0.644191 0)
(9.21212 0.659017 0)
(9.16845 0.675373 0)
(9.12805 0.696014 0)
(9.08267 0.721416 0)
(9.02495 0.749794 0)
(8.95301 0.778413 0)
(8.87192 0.805766 0)
(8.79092 0.832732 0)
(8.7181 0.861223 0)
(8.65562 0.89183 0)
(8.59902 0.923319 0)
(8.54076 0.954282 0)
(8.47533 0.984484 0)
(8.40178 1.01467 0)
(8.32271 1.04602 0)
(8.24132 1.07992 0)
(8.15895 1.11693 0)
(8.07463 1.1551 0)
(7.98661 1.19077 0)
(7.89455 1.22266 0)
(7.80009 1.25436 0)
(7.70485 1.29042 0)
(7.60843 1.32995 0)
(7.50932 1.36689 0)
(7.4075 1.39748 0)
(7.30475 1.42504 0)
(7.20185 1.45536 0)
(7.09686 1.48958 0)
(6.98753 1.52496 0)
(6.87483 1.56163 0)
(6.76217 1.60376 0)
(6.65063 1.6521 0)
(6.53614 1.69934 0)
(6.4126 1.73695 0)
(6.27753 1.76645 0)
(6.13414 1.79974 0)
(5.98777 1.84631 0)
(5.84134 1.90134 0)
(5.69415 1.94899 0)
(5.54399 1.97749 0)
(5.38947 1.98994 0)
(5.23036 2.00091 0)
(5.06645 2.02404 0)
(4.89685 2.06281 0)
(4.72059 2.11116 0)
(4.53756 2.16017 0)
(4.34873 2.20387 0)
(4.15549 2.24075 0)
(3.95887 2.27204 0)
(3.75932 2.29961 0)
(3.55689 2.32489 0)
(3.35144 2.34869 0)
(3.14286 2.3715 0)
(2.93115 2.39367 0)
(2.71643 2.41564 0)
(2.49899 2.43794 0)
(2.27924 2.46127 0)
(2.05778 2.48652 0)
(1.83534 2.51473 0)
(1.61281 2.54704 0)
(1.39108 2.58449 0)
(1.17104 2.62762 0)
(0.953237 2.67574 0)
(0.738093 2.72644 0)
(0.52516 2.77429 0)
(0.314384 2.81361 0)
(0.104047 2.82985 0)
(10.026 0.0830632 0)
(10.1081 0.0883188 0)
(10.0982 0.0892792 0)
(10.0749 0.0750455 0)
(10.0337 0.0779912 0)
(10.0039 0.121363 0)
(10.004 0.180164 0)
(10.0234 0.210459 0)
(10.038 0.20156 0)
(10.0306 0.180839 0)
(10.0032 0.179619 0)
(9.97144 0.206772 0)
(9.94695 0.249311 0)
(9.92673 0.287938 0)
(9.89875 0.311493 0)
(9.857 0.321835 0)
(9.80936 0.328958 0)
(9.76944 0.341196 0)
(9.74294 0.358725 0)
(9.72432 0.3761 0)
(9.70516 0.390565 0)
(9.68256 0.40655 0)
(9.65844 0.431351 0)
(9.6333 0.466984 0)
(9.60335 0.50705 0)
(9.56416 0.54124 0)
(9.51629 0.563174 0)
(9.46613 0.575428 0)
(9.42112 0.58786 0)
(9.38379 0.609967 0)
(9.35009 0.643065 0)
(9.3131 0.679178 0)
(9.26837 0.708096 0)
(9.21629 0.726193 0)
(9.16037 0.738769 0)
(9.10415 0.754407 0)
(9.04968 0.777708 0)
(8.99738 0.807096 0)
(8.9456 0.83806 0)
(8.89036 0.867384 0)
(8.82715 0.894736 0)
(8.75455 0.921661 0)
(8.67605 0.949953 0)
(8.59786 0.980889 0)
(8.52436 1.01513 0)
(8.45544 1.0524 0)
(8.38758 1.09115 0)
(8.31681 1.12946 0)
(8.24133 1.16676 0)
(8.16185 1.20427 0)
(8.07987 1.24269 0)
(7.99567 1.28039 0)
(7.90833 1.31534 0)
(7.81778 1.3487 0)
(7.72591 1.38426 0)
(7.63489 1.42319 0)
(7.54461 1.46146 0)
(7.45273 1.49482 0)
(7.35694 1.52501 0)
(7.2562 1.55804 0)
(7.14961 1.59653 0)
(7.03582 1.63733 0)
(6.91507 1.67773 0)
(6.79067 1.7205 0)
(6.66661 1.76932 0)
(6.5431 1.82119 0)
(6.41604 1.86803 0)
(6.2815 1.90686 0)
(6.14032 1.94473 0)
(5.9974 1.99066 0)
(5.85673 2.0438 0)
(5.7176 2.09248 0)
(5.57557 2.12589 0)
(5.42635 2.14525 0)
(5.26842 2.16308 0)
(5.10263 2.19241 0)
(4.93026 2.23727 0)
(4.75189 2.29188 0)
(4.56772 2.34684 0)
(4.37827 2.39558 0)
(4.18437 2.43644 0)
(3.98683 2.47097 0)
(3.78609 2.5015 0)
(3.58227 2.52977 0)
(3.3753 2.55668 0)
(3.16508 2.58267 0)
(2.9516 2.60798 0)
(2.73496 2.6329 0)
(2.51541 2.65782 0)
(2.29334 2.68326 0)
(2.06933 2.70995 0)
(1.84412 2.73875 0)
(1.61865 2.77069 0)
(1.39396 2.80678 0)
(1.17117 2.84765 0)
(0.951146 2.89288 0)
(0.734623 2.94048 0)
(0.521446 2.9855 0)
(0.311572 3.02276 0)
(0.103009 3.03742 0)
(10.0566 -0.0138764 0)
(10.047 -0.00593464 0)