/*--------------------------------*- C++ -*----------------------------------*\
| =========                 |                                                 |
| \\      /  F ield         | OpenFOAM: The Open Source CFD Toolbox           |
|  \\    /   O peration     | Version:  4.1                                   |
|   \\  /    A nd           | Web:      www.OpenFOAM.org                      |
|    \\/     M anipulation  |                                                 |
\*---------------------------------------------------------------------------*/
FoamFile
{
    version     2.0;
    format      ascii;
    class       volVectorField;
    location    "0.2";
    object      U_0;
}
// * * * * * * * * * * * * * * * * * * * * * * * * * * * * * * * * * * * * * //

dimensions      [0 1 -1 0 0 0 0];

internalField   nonuniform List<vector> 
43750
(
(10.0888 0.174614 0)
(10.1397 0.1462 0)
(10.0416 0.087211 0)
(9.97485 0.036592 0)
(9.95642 0.00335708 0)
(9.9582 -0.000404214 0)
(9.96144 0.011883 0)
(9.96169 0.0184967 0)
(9.95634 0.0133485 0)
(9.94115 0.00357839 0)
(9.91308 -0.00268975 0)
(9.8759 -0.00218923 0)
(9.84037 0.00321476 0)
(9.81595 0.00994812 0)
(9.80236 0.0161212 0)
(9.78888 0.0213743 0)
(9.76296 0.0244288 0)
(9.72133 0.0229168 0)
(9.67262 0.0159895 0)
(9.62822 0.00657417 0)
(9.59168 0.000460208 0)
(9.55744 0.00115728 0)
(9.51837 0.00631296 0)
(9.47355 0.0104775 0)
(9.42834 0.0112832 0)
(9.38758 0.012825 0)
(9.34987 0.0214394 0)
(9.30851 0.0375506 0)
(9.25825 0.052906 0)
(9.20091 0.0571753 0)
(9.14347 0.048257 0)
(9.09048 0.0358993 0)
(9.03875 0.0338404 0)
(8.97963 0.0474 0)
(8.90727 0.0683224 0)
(8.82497 0.0811788 0)
(8.74321 0.07556 0)
(8.67115 0.0552829 0)
(8.60907 0.0366073 0)
(8.54663 0.0363066 0)
(8.46861 0.0577372 0)
(8.36583 0.0852149 0)
(8.24362 0.0947196 0)
(8.11939 0.0748685 0)
(8.00981 0.0388748 0)
(7.91923 0.0143999 0)
(7.83835 0.019204 0)
(7.75283 0.0472631 0)
(7.65413 0.0771595 0)
(7.54321 0.0920464 0)
(7.42566 0.0907871 0)
(7.30554 0.0831689 0)
(7.18285 0.0798958 0)
(7.05363 0.0866628 0)
(6.9119 0.101701 0)
(6.75429 0.116046 0)
(6.58458 0.119934 0)
(6.41164 0.112115 0)
(6.24167 0.100177 0)
(6.07391 0.0898914 0)
(5.90511 0.0801028 0)
(5.73388 0.0735519 0)
(5.55598 0.0844746 0)
(5.35843 0.120981 0)
(5.12879 0.162989 0)
(4.87137 0.180958 0)
(4.60064 0.181463 0)
(4.31227 0.204979 0)
(3.97783 0.264002 0)
(3.58276 0.312782 0)
(3.15528 0.302089 0)
(2.74508 0.239053 0)
(2.38218 0.16705 0)
(2.06763 0.118462 0)
(1.79005 0.0982812 0)
(1.53713 0.0952872 0)
(1.299 0.0968195 0)
(1.06957 0.0967296 0)
(0.8462 0.0932257 0)
(0.62887 0.0865189 0)
(0.419261 0.0771826 0)
(0.219871 0.0656306 0)
(0.0337639 0.0521565 0)
(-0.136376 0.0371188 0)
(-0.288146 0.0213247 0)
(-0.419214 0.00523084 0)
(-0.528068 -0.0107381 0)
(-0.613931 -0.0261159 0)
(-0.676498 -0.0405182 0)
(-0.715782 -0.053836 0)
(-0.732184 -0.0662186 0)
(-0.726113 -0.0778894 0)
(-0.698235 -0.0883499 0)
(-0.650493 -0.0970936 0)
(-0.584308 -0.103926 0)
(-0.502334 -0.108975 0)
(-0.406599 -0.112602 0)
(-0.299749 -0.115594 0)
(-0.183132 -0.118821 0)
(-0.0613634 -0.117403 0)
(9.99695 0.00995803 0)
(10.0141 0.050322 0)
(10.0514 0.0493929 0)
(10.0775 0.0318318 0)
(10.0652 0.0119378 0)
(10.0319 -0.00728149 0)
(10.0081 -0.0180996 0)
(10.0031 -0.0141824 0)
(10.0034 0.00646027 0)
(9.99377 0.038464 0)
(9.97192 0.0669346 0)
(9.94361 0.0749962 0)
(9.91402 0.0575492 0)
(9.88712 0.0283202 0)
(9.86904 0.0102558 0)
(9.86622 0.0169248 0)
(9.8777 0.0421601 0)
(9.8904 0.0671063 0)
(9.88569 0.0775589 0)
(9.85448 0.0747102 0)
(9.80523 0.0699519 0)
(9.75543 0.0714537 0)
(9.71576 0.0772627 0)
(9.68278 0.0799411 0)
(9.6463 0.0751613 0)
(9.60232 0.0654363 0)
(9.55753 0.0567915 0)
(9.52186 0.0531432 0)
(9.4973 0.0541502 0)
(9.47463 0.0574849 0)
(9.44153 0.0619845 0)
(9.3941 0.0680817 0)
(9.34042 0.0757327 0)
(9.29314 0.0827428 0)
(9.25801 0.0857221 0)
(9.22857 0.0834174 0)
(9.19125 0.0790854 0)
(9.13593 0.0787721 0)
(9.06322 0.086668 0)
(8.98502 0.102109 0)
(8.91776 0.120785 0)
(8.87139 0.138082 0)
(8.84078 0.151429 0)
(8.8062 0.159978 0)
(8.74555 0.162378 0)
(8.65118 0.157324 0)
(8.53701 0.146688 0)
(8.428 0.136188 0)
(8.34079 0.131731 0)
(8.27362 0.135622 0)
(8.21141 0.145855 0)
(8.13886 0.158318 0)
(8.05106 0.170258 0)
(7.95454 0.182043 0)
(7.86031 0.195285 0)
(7.77562 0.209457 0)
(7.69989 0.221513 0)
(7.62624 0.22949 0)
(7.54544 0.235657 0)
(7.4486 0.244754 0)
(7.32833 0.258737 0)
(7.18218 0.274557 0)
(7.01958 0.28899 0)
(6.86147 0.303863 0)
(6.72352 0.323343 0)
(6.59782 0.348097 0)
(6.46011 0.376809 0)
(6.29963 0.411833 0)
(6.13122 0.456554 0)
(5.97043 0.502457 0)
(5.81141 0.53145 0)
(5.63355 0.532174 0)
(5.42266 0.507557 0)
(5.18609 0.469451 0)
(4.94347 0.429344 0)
(4.70663 0.39544 0)
(4.47728 0.37162 0)
(4.2524 0.357207 0)
(4.02642 0.3487 0)
(3.79513 0.341964 0)
(3.55751 0.333657 0)
(3.31481 0.321877 0)
(3.06937 0.306026 0)
(2.8238 0.286016 0)
(2.58014 0.262303 0)
(2.34025 0.235379 0)
(2.106 0.205879 0)
(1.87911 0.174517 0)
(1.66101 0.14205 0)
(1.45288 0.109126 0)
(1.25571 0.0762478 0)
(1.07004 0.0437701 0)
(0.896057 0.0122235 0)
(0.734732 -0.0175824 0)
(0.586547 -0.0451179 0)
(0.452307 -0.0699237 0)
(0.33215 -0.0914712 0)
(0.22538 -0.109175 0)
(0.129807 -0.121631 0)
(0.0415057 -0.128498 0)
(10.1652 0.130314 0)
(10.2249 0.126373 0)
(10.174 0.0642039 0)
(10.1337 0.0439985 0)
(10.0875 0.0598907 0)
(10.0416 0.0633249 0)
(10.0078 0.0423852 0)
(9.98091 0.0229789 0)
(9.95369 0.0237532 0)
(9.93082 0.0373496 0)
(9.92061 0.049323 0)
(9.91919 0.0557666 0)
(9.90933 0.0586055 0)
(9.87764 0.0544067 0)
(9.8299 0.0377083 0)
(9.78607 0.0140808 0)
(9.76167 0.00184428 0)
(9.75624 0.0158962 0)
(9.75748 0.0513731 0)
(9.75273 0.0860354 0)
(9.73727 0.0995967 0)
(9.7142 0.0916565 0)
(9.68836 0.0796336 0)
(9.66083 0.0795391 0)
(9.6277 0.0911604 0)
(9.58336 0.101977 0)
(9.52523 0.103269 0)
(9.45657 0.0995151 0)
(9.3858 0.101628 0)
(9.32253 0.113877 0)
(9.27236 0.129491 0)
(9.23412 0.1382 0)
(9.20128 0.136761 0)
(9.16573 0.132051 0)
(9.12145 0.134293 0)
(9.0664 0.14774 0)
(9.00219 0.167474 0)
(8.93308 0.183657 0)
(8.86434 0.189322 0)
(8.79957 0.184678 0)
(8.73946 0.17473 0)
(8.68328 0.165162 0)
(8.63083 0.161619 0)
(8.58128 0.170012 0)
(8.53015 0.192299 0)
(8.46945 0.220856 0)
(8.39246 0.241391 0)
(8.29963 0.244176 0)
(8.1993 0.233321 0)
(8.10135 0.223837 0)
(8.00969 0.228276 0)
(7.92008 0.246237 0)
(7.82487 0.266872 0)
(7.72029 0.28008 0)
(7.61011 0.28334 0)
(7.5029 0.279424 0)
(7.40545 0.272777 0)
(7.31839 0.270246 0)
(7.23711 0.280801 0)
(7.15609 0.308904 0)
(7.07154 0.347608 0)
(6.98119 0.381933 0)
(6.88309 0.402283 0)
(6.77666 0.412823 0)
(6.66466 0.425049 0)
(6.55196 0.446838 0)
(6.44245 0.480648 0)
(6.33876 0.526393 0)
(6.24432 0.579201 0)
(6.16163 0.625241 0)
(6.08261 0.649632 0)
(5.99168 0.648895 0)
(5.88121 0.631577 0)
(5.75303 0.607666 0)
(5.61278 0.582538 0)
(5.46703 0.560286 0)
(5.31927 0.546095 0)
(5.16822 0.541777 0)
(5.01056 0.544697 0)
(4.84338 0.550034 0)
(4.66529 0.55303 0)
(4.47627 0.550682 0)
(4.27698 0.542022 0)
(4.06831 0.527285 0)
(3.85107 0.507207 0)
(3.62604 0.482665 0)
(3.39388 0.454519 0)
(3.15518 0.423543 0)
(2.91057 0.39043 0)
(2.6607 0.355888 0)
(2.4064 0.3206 0)
(2.14846 0.285204 0)
(1.88809 0.250126 0)
(1.62665 0.215358 0)
(1.3655 0.181067 0)
(1.10636 0.147681 0)
(0.851343 0.116224 0)
(0.601687 0.0884508 0)
(0.358158 0.067334 0)
(0.118283 0.0560827 0)
(9.98365 0.22927 0)
(10.0155 0.14017 0)
(10.036 0.0815827 0)
(10.0246 0.0858399 0)
(10.0156 0.0872756 0)
(10.0194 0.0620956 0)
(10.0243 0.0367252 0)
(10.0202 0.0370125 0)
(10.0071 0.0550869 0)
(9.99135 0.0694072 0)
(9.97818 0.0759106 0)
(9.96888 0.0848566 0)
(9.95996 0.099056 0)
(9.94512 0.107605 0)
(9.91882 0.100956 0)
(9.8796 0.0840157 0)
(9.83177 0.0709345 0)
(9.78349 0.0708862 0)
(9.7419 0.0817641 0)
(9.70889 0.0959696 0)
(9.68086 0.108728 0)
(9.65256 0.119757 0)
(9.62149 0.130137 0)
(9.58861 0.140685 0)
(9.55456 0.152667 0)
(9.51629 0.167136 0)
(9.46914 0.181959 0)
(9.41285 0.190673 0)
(9.35407 0.186727 0)
(9.30157 0.170181 0)
(9.25836 0.149847 0)
(9.21903 0.138078 0)
(9.17511 0.142332 0)
(9.12348 0.160551 0)
(9.06918 0.183744 0)
(9.01975 0.202605 0)
(8.97737 0.212741 0)
(8.9362 0.216075 0)
(8.88708 0.218262 0)
(8.82495 0.224056 0)
(8.75208 0.233827 0)
(8.67478 0.244237 0)
(8.59827 0.25283 0)
(8.52491 0.261664 0)
(8.4551 0.275564 0)
(8.38715 0.295794 0)
(8.3168 0.316367 0)
(8.23896 0.328413 0)
(8.15169 0.328675 0)
(8.05821 0.323711 0)
(7.96466 0.325316 0)
(7.875 0.340854 0)
(7.78774 0.36733 0)
(7.69768 0.394007 0)
(7.60057 0.410261 0)
(7.49587 0.412185 0)
(7.3857 0.404297 0)
(7.27281 0.396343 0)
(7.16032 0.397475 0)
(7.05209 0.411481 0)
(6.95018 0.436175 0)
(6.85054 0.466672 0)
(6.7431 0.498617 0)
(6.61966 0.529021 0)
(6.48256 0.555779 0)
(6.3438 0.5781 0)
(6.21557 0.597712 0)
(6.10342 0.618643 0)
(6.00748 0.64474 0)
(5.92385 0.675297 0)
(5.84516 0.703902 0)
(5.76372 0.724771 0)
(5.67426 0.733169 0)
(5.5763 0.726313 0)
(5.47264 0.707658 0)
(5.36482 0.686427 0)
(5.25216 0.671892 0)
(5.13341 0.669006 0)
(5.00796 0.676785 0)
(4.87537 0.690046 0)
(4.73496 0.702874 0)
(4.58604 0.711222 0)
(4.42808 0.713491 0)
(4.26064 0.709849 0)
(4.08341 0.701151 0)
(3.89607 0.688295 0)
(3.6982 0.672021 0)
(3.48936 0.652939 0)
(3.26917 0.631597 0)
(3.03733 0.608495 0)
(2.79363 0.584051 0)
(2.53804 0.558487 0)
(2.27065 0.531971 0)
(1.9917 0.504244 0)
(1.70221 0.475148 0)
(1.40349 0.444834 0)
(1.09757 0.414263 0)
(0.786431 0.385369 0)
(0.472565 0.362408 0)
(0.156943 0.348522 0)
(9.99093 0.0518531 0)
(10.0299 0.0901489 0)
(10.0218 0.104523 0)
(10.0313 0.0953561 0)
(10.058 0.0847812 0)
(10.0594 0.0679764 0)
(10.0275 0.0479037 0)
(9.98837 0.0422364 0)
(9.9607 0.054395 0)
(9.94335 0.0687758 0)
(9.92803 0.0740588 0)
(9.91149 0.0756888 0)
(9.89595 0.0835152 0)
(9.88118 0.0964431 0)
(9.86199 0.104222 0)
(9.83392 0.10212 0)
(9.798 0.0984564 0)
(9.75884 0.105481 0)
(9.72071 0.125062 0)
(9.6862 0.145935 0)
(9.65712 0.155188 0)
(9.63452 0.150977 0)
(9.61744 0.143846 0)
(9.60236 0.146706 0)
(9.58455 0.163785 0)
(9.56031 0.188095 0)
(9.52813 0.207977 0)
(9.48789 0.216098 0)
(9.43977 0.214068 0)
(9.38449 0.2102 0)
(9.32462 0.212502 0)
(9.26473 0.222291 0)
(9.20926 0.233692 0)
(9.15964 0.239657 0)
(9.11331 0.239422 0)
(9.06544 0.24034 0)
(9.01189 0.251493 0)
(8.95134 0.27475 0)
(8.88535 0.302148 0)
(8.81622 0.32199 0)
(8.74449 0.327535 0)
(8.66849 0.321249 0)
(8.58708 0.312862 0)
(8.50286 0.313667 0)
(8.42159 0.330021 0)
(8.34737 0.359076 0)
(8.27851 0.389746 0)
(8.20838 0.409861 0)
(8.1306 0.415145 0)
(8.0435 0.412362 0)
(7.95043 0.413301 0)
(7.85709 0.4252 0)
(7.76839 0.446385 0)
(7.68592 0.469499 0)
(7.60586 0.487354 0)
(7.51909 0.496465 0)
(7.41573 0.498078 0)
(7.29238 0.497828 0)
(7.15574 0.503347 0)
(7.01813 0.520121 0)
(6.88901 0.549038 0)
(6.7697 0.5873 0)
(6.65456 0.629717 0)
(6.53623 0.668898 0)
(6.41046 0.69719 0)
(6.27827 0.711847 0)
(6.14482 0.718736 0)
(6.01615 0.728899 0)
(5.89565 0.749875 0)
(5.78306 0.779356 0)
(5.67571 0.808131 0)
(5.57086 0.8264 0)
(5.46753 0.828942 0)
(5.36543 0.817944 0)
(5.26249 0.80049 0)
(5.1551 0.785294 0)
(5.04061 0.779306 0)
(4.91887 0.785158 0)
(4.79131 0.800685 0)
(4.65933 0.820709 0)
(4.52354 0.840033 0)
(4.38361 0.855275 0)
(4.23865 0.86515 0)
(4.08762 0.86983 0)
(3.92958 0.870105 0)
(3.76364 0.866812 0)
(3.58892 0.860707 0)
(3.4045 0.852472 0)
(3.20948 0.842703 0)
(3.00294 0.831898 0)
(2.78393 0.820418 0)
(2.55151 0.80844 0)
(2.30475 0.795854 0)
(2.04285 0.782411 0)
(1.7654 0.767578 0)
(1.47214 0.750752 0)
(1.16389 0.731968 0)
(0.841979 0.712423 0)
(0.509694 0.695794 0)
(0.170086 0.684564 0)
(9.9712 0.0409547 0)
(9.99063 0.0942813 0)
(10.0028 0.083567 0)
(10.0093 0.0442054 0)
(10.012 0.0468953 0)
(10.0146 0.0801094 0)
(10.0095 0.101791 0)
(9.99919 0.10264 0)
(9.98848 0.098026 0)
(9.97222 0.0990328 0)
(9.94221 0.1053 0)
(9.90013 0.11512 0)
(9.8599 0.128025 0)
(9.83628 0.140552 0)
(9.83125 0.147353 0)
(9.83215 0.147459 0)
(9.82339 0.146148 0)
(9.80012 0.149014 0)
(9.7707 0.155667 0)
(9.74622 0.16093 0)
(9.72834 0.161559 0)
(9.70734 0.160102 0)
(9.67179 0.162475 0)
(9.61987 0.173427 0)
(9.56149 0.194264 0)
(9.50974 0.222706 0)
(9.47055 0.25318 0)
(9.43931 0.277841 0)
(9.40635 0.289331 0)
(9.36552 0.284895 0)
(9.31858 0.269157 0)
(9.27206 0.252649 0)
(9.22998 0.246205 0)
(9.1893 0.25506 0)
(9.14204 0.276686 0)
(9.08215 0.303185 0)
(9.01087 0.326238 0)
(8.93564 0.34179 0)
(8.86422 0.351954 0)
(8.79937 0.3628 0)
(8.73797 0.378992 0)
(8.67374 0.399139 0)
(8.60143 0.416637 0)
(8.52041 0.426453 0)
(8.43561 0.431225 0)
(8.35445 0.439188 0)
(8.28118 0.455289 0)
(8.21331 0.475718 0)
(8.14334 0.492515 0)
(8.06449 0.502585 0)
(7.97515 0.510267 0)
(7.87884 0.521236 0)
(7.78101 0.536553 0)
(7.68568 0.554283 0)
(7.59314 0.574568 0)
(7.49885 0.599501 0)
(7.39487 0.627891 0)
(7.27526 0.653314 0)
(7.14146 0.669531 0)
(7.00236 0.677297 0)
(6.86856 0.68485 0)
(6.74632 0.70194 0)
(6.63534 0.732942 0)
(6.53005 0.773648 0)
(6.42227 0.813506 0)
(6.30491 0.842633 0)
(6.17592 0.858826 0)
(6.03983 0.868604 0)
(5.90479 0.881086 0)
(5.77678 0.899996 0)
(5.65645 0.920685 0)
(5.54069 0.934646 0)
(5.4257 0.936572 0)
(5.30815 0.927784 0)
(5.18503 0.915085 0)
(5.05428 0.906673 0)
(4.91566 0.907968 0)
(4.77081 0.919726 0)
(4.62239 0.938859 0)
(4.47273 0.960861 0)
(4.32292 0.981829 0)
(4.17276 0.999395 0)
(4.02124 1.01273 0)
(3.8671 1.02203 0)
(3.7092 1.02796 0)
(3.54652 1.0313 0)
(3.37814 1.03282 0)
(3.20309 1.03325 0)
(3.02037 1.03328 0)
(2.82884 1.03351 0)
(2.62731 1.03436 0)
(2.41442 1.03602 0)
(2.18872 1.03839 0)
(1.94861 1.04101 0)
(1.69268 1.04303 0)
(1.41956 1.04328 0)
(1.12895 1.0409 0)
(0.821206 1.03582 0)
(0.499348 1.03015 0)
(0.167052 1.02428 0)
(10.1141 -0.0271892 0)
(10.1059 0.0344543 0)
(10.0727 0.0912946 0)
(10.0456 0.0996809 0)
(10.0174 0.0924565 0)
(9.99949 0.080248 0)
(9.99216 0.0670123 0)
(9.98657 0.0654627 0)
(9.97695 0.0845987 0)
(9.96357 0.118283 0)
(9.94609 0.14889 0)
(9.92313 0.16022 0)
(9.89656 0.14899 0)
(9.87212 0.125994 0)
(9.854 0.108511 0)
(9.83992 0.109535 0)
(9.82274 0.129549 0)
(9.79685 0.156813 0)
(9.76303 0.177319 0)
(9.72725 0.186622 0)
(9.69524 0.1926 0)
(9.66802 0.20639 0)
(9.64158 0.230672 0)
(9.61014 0.257094 0)
(9.57031 0.274748 0)
(9.52352 0.280305 0)
(9.47536 0.279708 0)
(9.43225 0.281285 0)
(9.39659 0.288385 0)
(9.36421 0.298175 0)
(9.32684 0.3062 0)
(9.27821 0.311438 0)
(9.21873 0.317326 0)
(9.15451 0.328579 0)
(9.09212 0.347353 0)
(9.03391 0.371993 0)
(8.97713 0.398411 0)
(8.91664 0.422085 0)
(8.84904 0.439583 0)
(8.77608 0.449864 0)
(8.7046 0.455056 0)
(8.64182 0.459545 0)
(8.58875 0.467354 0)
(8.53777 0.479875 0)
(8.47794 0.495918 0)
(8.40418 0.51351 0)
(8.32113 0.531285 0)
(8.23756 0.54852 0)
(8.15765 0.565064 0)
(8.0784 0.581836 0)
(7.99411 0.60045 0)
(7.90148 0.621216 0)
(7.80018 0.64193 0)
(7.6912 0.660173 0)
(7.57717 0.677113 0)
(7.46325 0.697304 0)
(7.35475 0.7234 0)
(7.25251 0.751984 0)
(7.15179 0.776169 0)
(7.04641 0.792525 0)
(6.93386 0.804729 0)
(6.81634 0.820677 0)
(6.69777 0.846605 0)
(6.58024 0.882844 0)
(6.46267 0.923383 0)
(6.34199 0.959321 0)
(6.21579 0.984516 0)
(6.08468 0.999746 0)
(5.95225 1.0114 0)
(5.82244 1.02537 0)
(5.6966 1.0418 0)
(5.5725 1.0556 0)
(5.44581 1.06178 0)
(5.3125 1.06021 0)
(5.17017 1.056 0)
(5.01841 1.05581 0)
(4.85866 1.06353 0)
(4.69365 1.07894 0)
(4.52641 1.09904 0)
(4.35933 1.12029 0)
(4.19351 1.14008 0)
(4.02887 1.15711 0)
(3.86455 1.17108 0)
(3.69943 1.18226 0)
(3.5325 1.19119 0)
(3.36289 1.19851 0)
(3.18984 1.20491 0)
(3.01267 1.2111 0)
(2.8306 1.21783 0)
(2.64274 1.22579 0)
(2.44802 1.23561 0)
(2.24517 1.24773 0)
(2.03269 1.26226 0)
(1.80882 1.27885 0)
(1.57178 1.2966 0)
(1.31963 1.31395 0)
(1.05126 1.32911 0)
(0.766167 1.34033 0)
(0.466714 1.34763 0)
(0.156251 1.34845 0)
(9.98401 0.212303 0)
(9.9368 0.167511 0)
(9.98989 0.102189 0)
(10.0342 0.0748003 0)
(10.0399 0.078419 0)
(10.0203 0.0978799 0)
(9.99942 0.112998 0)
(9.9774 0.11656 0)
(9.9502 0.117638 0)
(9.92682 0.125923 0)
(9.91975 0.142596 0)
(9.92737 0.162322 0)
(9.93277 0.177403 0)
(9.91905 0.182577 0)
(9.88418 0.180092 0)
(9.84039 0.179832 0)
(9.80077 0.190679 0)
(9.76833 0.21055 0)
(9.73757 0.227334 0)
(9.70396 0.230778 0)
(9.66977 0.222632 0)
(9.64105 0.215167 0)
(9.62048 0.220978 0)
(9.60408 0.244313 0)
(9.58482 0.279717 0)
(9.55854 0.3162 0)
(9.52631 0.343235 0)
(9.49184 0.355984 0)
(9.45728 0.357309 0)
(9.42114 0.354897 0)
(9.37947 0.355446 0)
(9.32878 0.360939 0)
(9.26865 0.370019 0)
(9.20225 0.381814 0)
(9.1348 0.397444 0)
(9.07131 0.418204 0)
(9.01476 0.443297 0)
(8.96496 0.469405 0)
(8.91825 0.491832 0)
(8.86872 0.506505 0)
(8.81129 0.512614 0)
(8.74474 0.514548 0)
(8.67154 0.520528 0)
(8.59442 0.537326 0)
(8.51383 0.564834 0)
(8.42929 0.595742 0)
(8.34256 0.621349 0)
(8.25747 0.638356 0)
(8.17599 0.650534 0)
(8.09535 0.664659 0)
(8.01038 0.68536 0)
(7.91814 0.712956 0)
(7.81943 0.744258 0)
(7.71606 0.774574 0)
(7.60881 0.800163 0)
(7.49894 0.820479 0)
(7.38969 0.838284 0)
(7.28376 0.85679 0)
(7.17954 0.876604 0)
(7.07206 0.896159 0)
(6.95815 0.915327 0)
(6.83916 0.93773 0)
(6.7181 0.968243 0)
(6.59555 1.00775 0)
(6.46981 1.05067 0)
(6.34035 1.08816 0)
(6.20968 1.11432 0)
(6.08126 1.13014 0)
(5.95642 1.14185 0)
(5.83324 1.15531 0)
(5.70818 1.17145 0)
(5.57806 1.18672 0)
(5.441 1.19738 0)
(5.29623 1.20334 0)
(5.14368 1.20834 0)
(4.98378 1.21696 0)
(4.8175 1.23143 0)
(4.6465 1.25077 0)
(4.4727 1.27218 0)
(4.29774 1.29301 0)
(4.1226 1.31177 0)
(3.94749 1.32806 0)
(3.77209 1.34208 0)
(3.59582 1.35419 0)
(3.41809 1.36485 0)
(3.23841 1.37457 0)
(3.05637 1.38396 0)
(2.87159 1.39374 0)
(2.68367 1.40468 0)
(2.49213 1.41762 0)
(2.29635 1.43336 0)
(2.09546 1.45258 0)
(1.88833 1.47571 0)
(1.67341 1.50269 0)
(1.44903 1.53277 0)
(1.21321 1.56421 0)
(0.96458 1.59447 0)
(0.702091 1.62027 0)
(0.427409 1.63955 0)
(0.14299 1.64664 0)
(9.92252 0.0759434 0)
(9.9722 0.0265665 0)
(10.0066 0.0264691 0)
(10.014 0.0765418 0)
(9.99641 0.118178 0)
(9.98016 0.119917 0)
(9.972 0.108928 0)
(9.96673 0.117332 0)
(9.95281 0.139812 0)
(9.92922 0.153342 0)
(9.9079 0.151918 0)
(9.89689 0.14974 0)
(9.88985 0.158856 0)
(9.87443 0.174846 0)
(9.84629 0.186286 0)
(9.814 0.191421 0)
(9.79072 0.199713 0)
(9.78223 0.217786 0)
(9.78275 0.239266 0)
(9.78063 0.252038 0)
(9.7667 0.253418 0)
(9.73831 0.254239 0)
(9.69821 0.267173 0)
(9.65229 0.293261 0)
(9.60795 0.321462 0)
(9.57166 0.340181 0)
(9.54515 0.347484 0)
(9.52293 0.350821 0)
(9.49514 0.359031 0)
(9.45443 0.375544 0)
(9.40043 0.397856 0)
(9.33804 0.421343 0)
(9.27262 0.442805 0)
(9.20742 0.461359 0)
(9.14449 0.477351 0)
(9.08606 0.491335 0)
(9.0339 0.504307 0)
(8.98752 0.518314 0)
(8.94306 0.535664 0)
(8.8941 0.556708 0)
(8.83442 0.578866 0)
(8.7617 0.599051 0)
(8.6794 0.617393 0)
(8.59454 0.637337 0)
(8.51295 0.660943 0)
(8.43579 0.684986 0)
(8.36018 0.70376 0)
(8.28236 0.716199 0)
(8.19968 0.728637 0)
(8.11036 0.749123 0)
(8.01348 0.779469 0)
(7.9108 0.814001 0)
(7.80759 0.845749 0)
(7.7094 0.872257 0)
(7.61678 0.895267 0)
(7.52432 0.917027 0)
(7.4255 0.938889 0)
(7.31813 0.96222 0)
(7.2046 0.987756 0)
(7.088 1.01377 0)
(6.96979 1.03772 0)
(6.85028 1.0612 0)
(6.72924 1.09101 0)
(6.60525 1.13209 0)
(6.47633 1.17961 0)
(6.34295 1.22061 0)
(6.20949 1.24496 0)
(6.08112 1.25451 0)
(5.95867 1.2609 0)
(5.8371 1.27484 0)
(5.70921 1.29776 0)
(5.57082 1.32298 0)
(5.42261 1.34325 0)
(5.26805 1.35684 0)
(5.11003 1.36771 0)
(4.94936 1.38125 0)
(4.78537 1.40008 0)
(4.61732 1.4231 0)
(4.44515 1.44727 0)
(4.26939 1.46997 0)
(4.09077 1.49001 0)
(3.90983 1.50741 0)
(3.72686 1.52264 0)
(3.54191 1.53626 0)
(3.35493 1.54871 0)
(3.16582 1.56046 0)
(2.97451 1.57211 0)
(2.78094 1.58434 0)
(2.58506 1.598 0)
(2.38677 1.61402 0)
(2.18588 1.63339 0)
(1.98204 1.65701 0)
(1.77467 1.68556 0)
(1.5628 1.71929 0)
(1.3452 1.7577 0)
(1.1202 1.79912 0)
(0.88651 1.84061 0)
(0.642885 1.87767 0)
(0.390381 1.90648 0)
(0.13037 1.91851 0)
(9.85866 -0.0264757 0)
(9.88812 -0.0134865 0)
(9.93511 0.0360934 0)
(9.95651 0.0727808 0)
(9.97794 0.111292 0)
(9.99457 0.130739 0)
(9.99376 0.128915 0)
(9.97671 0.131624 0)
(9.95818 0.149487 0)
(9.9483 0.166326 0)
(9.94307 0.172008 0)
(9.93303 0.178322 0)
(9.91536 0.198605 0)
(9.89489 0.22622 0)
(9.87619 0.241834 0)
(9.85797 0.237368 0)
(9.83648 0.224666 0)
(9.81148 0.22094 0)
(9.78613 0.231612 0)
(9.76193 0.249567 0)
(9.73646 0.267257 0)
(9.70647 0.284973 0)
(9.6719 0.307124 0)
(9.6358 0.333841 0)
(9.60095 0.359179 0)
(9.56721 0.377709 0)
(9.53181 0.390848 0)
(9.49187 0.4052 0)
(9.44644 0.4253 0)
(9.39667 0.449328 0)
(9.34453 0.471794 0)
(9.29148 0.488966 0)
(9.23824 0.501088 0)
(9.1856 0.51054 0)
(9.13496 0.519489 0)
(9.08736 0.529539 0)
(9.04183 0.542597 0)
(8.99505 0.56096 0)
(8.94314 0.585857 0)
(8.88371 0.615548 0)
(8.81659 0.645127 0)
(8.7435 0.669457 0)
(8.66768 0.687481 0)
(8.59336 0.703515 0)
(8.52357 0.7232 0)
(8.45732 0.747874 0)
(8.38914 0.773803 0)
(8.31265 0.797528 0)
(8.22556 0.8209 0)
(8.13104 0.849045 0)
(8.03439 0.883183 0)
(7.93885 0.917492 0)
(7.84446 0.944878 0)
(7.7496 0.96512 0)
(7.65231 0.985274 0)
(7.55049 1.01189 0)
(7.44227 1.04459 0)
(7.32776 1.07781 0)
(7.20986 1.10687 0)
(7.0922 1.13101 0)
(6.97601 1.15283 0)
(6.85949 1.17767 0)
(6.74019 1.21225 0)
(6.61735 1.25933 0)
(6.49216 1.31168 0)
(6.36671 1.35414 0)
(6.24267 1.37584 0)
(6.11977 1.381 0)
(5.9949 1.38599 0)
(5.86317 1.40477 0)
(5.72095 1.43762 0)
(5.56871 1.47324 0)
(5.41078 1.50025 0)
(5.25213 1.51623 0)
(5.09495 1.52746 0)
(4.93797 1.54202 0)
(4.77832 1.56374 0)
(4.61366 1.59111 0)
(4.4431 1.62012 0)
(4.26692 1.64732 0)
(4.08594 1.67121 0)
(3.90097 1.69183 0)
(3.71265 1.70984 0)
(3.52136 1.72598 0)
(3.32735 1.74083 0)
(3.13076 1.75491 0)
(2.9317 1.76881 0)
(2.73034 1.7832 0)
(2.52685 1.79895 0)
(2.32143 1.81702 0)
(2.11427 1.8385 0)
(1.90544 1.86448 0)
(1.69491 1.89593 0)
(1.48231 1.93335 0)
(1.26707 1.97653 0)
(1.04809 2.02395 0)
(0.824434 2.07251 0)
(0.594842 2.11697 0)
(0.359892 2.15226 0)
(0.119899 2.16754 0)
(10.0398 -0.0660221 0)
(10.0084 -0.0579949 0)
(9.97307 -0.00218044 0)
(9.95399 0.052475 0)
(9.97295 0.0764442 0)
(9.99824 0.0961943 0)
(9.99695 0.127233 0)
(9.97275 0.158987 0)
(9.95009 0.174678 0)
(9.94143 0.173447 0)
(9.93786 0.170581 0)
(9.92679 0.179469 0)
(9.91048 0.197669 0)
(9.90042 0.213439 0)
(9.89947 0.221701 0)
(9.89736 0.228954 0)
(9.88202 0.243642 0)
(9.85157 0.265462 0)
(9.81413 0.286085 0)
(9.77833 0.298955 0)
(9.74609 0.306477 0)
(9.71427 0.317358 0)
(9.6803 0.337671 0)
(9.64427 0.365038 0)
(9.60625 0.391418 0)
(9.56438 0.410862 0)
(9.51733 0.424298 0)
(9.46767 0.43748 0)
(9.42108 0.455289 0)
(9.38141 0.478274 0)
(9.34674 0.503662 0)
(9.31046 0.528135 0)
(9.26596 0.54915 0)
(9.21059 0.565026 0)
(9.1462 0.575741 0)
(9.07747 0.584256 0)
(9.01 0.596047 0)
(8.9489 0.61618 0)
(8.89698 0.646101 0)
(8.85273 0.682485 0)
(8.80968 0.718682 0)
(8.75894 0.748086 0)
(8.69438 0.768138 0)
(8.61681 0.782356 0)
(8.53295 0.797986 0)
(8.44961 0.820443 0)
(8.36834 0.849484 0)
(8.28552 0.880862 0)
(8.19724 0.911367 0)
(8.10377 0.941391 0)
(8.00933 0.972576 0)
(7.91767 1.00451 0)
(7.828 1.03518 0)
(7.73559 1.06418 0)
(7.63636 1.09379 0)
(7.53086 1.12621 0)
(7.4235 1.16062 0)
(7.31801 1.19373 0)
(7.21411 1.22273 0)
(7.10832 1.24745 0)
(6.99748 1.27062 0)
(6.88128 1.29746 0)
(6.76224 1.33372 0)
(6.6437 1.38067 0)
(6.52784 1.43067 0)
(6.41445 1.47034 0)
(6.30071 1.49191 0)
(6.18208 1.50203 0)
(6.05387 1.51711 0)
(5.91321 1.54846 0)
(5.76069 1.59215 0)
(5.60068 1.6334 0)
(5.4392 1.66033 0)
(5.28041 1.67331 0)
(5.12451 1.68252 0)
(4.9683 1.69845 0)
(4.80785 1.72486 0)
(4.64068 1.75869 0)
(4.46642 1.79428 0)
(4.28596 1.8273 0)
(4.10051 1.85603 0)
(3.91102 1.88067 0)
(3.71805 1.90216 0)
(3.52188 1.92141 0)
(3.32269 1.93915 0)
(3.12059 1.95594 0)
(2.91573 1.97235 0)
(2.70831 1.98903 0)
(2.49864 2.00678 0)
(2.28706 2.02653 0)
(2.07402 2.04938 0)
(1.85995 2.07652 0)
(1.64523 2.10906 0)
(1.43004 2.14781 0)
(1.21443 2.19285 0)
(0.997901 2.24289 0)
(0.780023 2.29488 0)
(0.55974 2.34319 0)
(0.337292 2.38208 0)
(0.112084 2.39896 0)
(10.0942 -0.0582705 0)
(10.0603 0.022285 0)
(10.0591 0.0612092 0)
(10.0516 0.0684861 0)
(10.0333 0.0820582 0)
(10.014 0.115592 0)
(9.99943 0.151328 0)
(9.99584 0.170942 0)
(10.0015 0.173956 0)
(10.0051 0.174216 0)
(9.99733 0.184168 0)
(9.97839 0.203899 0)
(9.95257 0.224421 0)
(9.92258 0.238349 0)
(9.88946 0.246974 0)
(9.85517 0.257257 0)
(9.82325 0.273118 0)
(9.79611 0.291664 0)
(9.77225 0.307793 0)
(9.74657 0.32051 0)
(9.71388 0.333746 0)
(9.67312 0.352114 0)
(9.62874 0.377118 0)
(9.58789 0.406826 0)
(9.55548 0.437421 0)
(9.53078 0.464801 0)
(9.50815 0.4859 0)
(9.481 0.500183 0)
(9.44558 0.510693 0)
(9.40215 0.523037 0)
(9.35382 0.542154 0)
(9.30449 0.569076 0)
(9.25689 0.600239 0)
(9.21107 0.629748 0)
(9.1642 0.652538 0)
(9.11221 0.666355 0)
(9.05265 0.672401 0)
(8.98671 0.675502 0)
(8.91902 0.683394 0)
(8.85492 0.703711 0)
(8.79686 0.739115 0)
(8.7423 0.784319 0)
(8.68512 0.828792 0)
(8.61981 0.864131 0)
(8.54509 0.889834 0)
(8.4642 0.912116 0)
(8.38168 0.937518 0)
(8.29977 0.968173 0)
(8.21737 1.00226 0)
(8.13198 1.03685 0)
(8.04241 1.06956 0)
(7.94985 1.0994 0)
(7.85642 1.12771 0)
(7.7625 1.15769 0)
(7.66611 1.19115 0)
(7.5655 1.22612 0)
(7.46197 1.25888 0)
(7.35906 1.28845 0)
(7.25835 1.31738 0)
(7.15706 1.34799 0)
(7.05074 1.3799 0)
(6.93829 1.41285 0)
(6.82331 1.44987 0)
(6.71031 1.49395 0)
(6.60008 1.5413 0)
(6.48881 1.58163 0)
(6.37121 1.60826 0)
(6.24409 1.62734 0)
(6.10718 1.6538 0)
(5.96179 1.69663 0)
(5.80961 1.749 0)
(5.65295 1.79404 0)
(5.49463 1.82021 0)
(5.3367 1.83072 0)
(5.17901 1.83926 0)
(5.01916 1.85822 0)
(4.85402 1.89083 0)
(4.68161 1.93207 0)
(4.50185 1.97449 0)
(4.31605 2.01299 0)
(4.12571 2.04599 0)
(3.93188 2.07417 0)
(3.73498 2.09885 0)
(3.5351 2.1212 0)
(3.33219 2.14197 0)
(3.12624 2.16171 0)
(2.91731 2.1809 0)
(2.70558 2.2001 0)
(2.49135 2.22 0)
(2.27504 2.24146 0)
(2.05722 2.26547 0)
(1.83852 2.2932 0)
(1.61966 2.32584 0)
(1.40124 2.36435 0)
(1.18378 2.4091 0)
(0.967388 2.45909 0)
(0.75207 2.51153 0)
(0.53707 2.56073 0)
(0.322438 2.60081 0)
(0.106903 2.6179 0)
(10.0148 -0.11524 0)
(10.0268 -0.0322387 0)
(9.97093 0.0478749 0)
(9.96224 0.0753387 0)
(9.97532 0.0965728 0)
(9.98536 0.125521 0)
(9.97582 0.150861 0)
(9.9516 0.164783 0)
(9.92873 0.172289 0)
(9.91848 0.182089 0)
(9.91967 0.199759 0)
(9.92249 0.225529 0)
(9.9174 0.253449 0)
(9.89969 0.275201 0)
(9.87124 0.286888 0)
(9.83939 0.292504 0)
(9.81131 0.299859 0)
(9.7884 0.313481 0)
(9.76669 0.332519 0)
(9.74238 0.354324 0)
(9.71571 0.377613 0)
(9.68916 0.401549 0)
(9.66324 0.42347 0)
(9.63537 0.439921 0)
(9.6026 0.450588 0)
(9.56496 0.460173 0)
(9.52567 0.475597 0)
(9.4879 0.500925 0)
(9.4514 0.534479 0)
(9.41221 0.57016 0)
(9.3661 0.6015 0)
(9.31293 0.625327 0)
(9.25772 0.642757 0)
(9.20705 0.657592 0)
(9.16352 0.673975 0)
(9.12324 0.694653 0)
(9.07794 0.720093 0)
(9.02028 0.7485 0)
(8.9484 0.777138 0)
(8.86739 0.804506 0)
(8.78653 0.831488 0)
(8.71385 0.859999 0)
(8.65151 0.890623 0)
(8.59502 0.922124 0)
(8.53685 0.953099 0)
(8.47149 0.983317 0)
(8.39801 1.01352 0)
(8.31903 1.04489 0)
(8.23773 1.07882 0)
(8.15545 1.11585 0)
(8.07122 1.15403 0)
(7.98328 1.1897 0)
(7.8913 1.22159 0)
(7.79692 1.25332 0)
(7.70177 1.2894 0)
(7.60543 1.32895 0)
(7.50641 1.36588 0)
(7.40467 1.39646 0)
(7.302 1.42403 0)
(7.19919 1.45437 0)
(7.09426 1.48861 0)
(6.985 1.524 0)
(6.87237 1.5607 0)
(6.75979 1.60285 0)
(6.64832 1.65121 0)
(6.53389 1.69844 0)
(6.41039 1.73604 0)
(6.27537 1.76554 0)
(6.13203 1.79887 0)
(5.98573 1.84548 0)
(5.83939 1.90051 0)
(5.69228 1.94813 0)
(5.54219 1.97659 0)
(5.38774 1.98901 0)
(5.22869 2.00002 0)
(5.06484 2.02319 0)
(4.89531 2.062 0)
(4.7191 2.11037 0)
(4.53613 2.15939 0)
(4.34737 2.20309 0)
(4.15419 2.23996 0)
(3.95763 2.27124 0)
(3.75815 2.29881 0)
(3.55579 2.32408 0)
(3.3504 2.34789 0)
(3.14189 2.3707 0)
(2.93025 2.39287 0)
(2.7156 2.41484 0)
(2.49822 2.43714 0)
(2.27854 2.46047 0)
(2.05714 2.48572 0)
(1.83477 2.51392 0)
(1.61231 2.54624 0)
(1.39064 2.58368 0)
(1.17067 2.6268 0)
(0.952933 2.67492 0)
(0.737855 2.7256 0)
(0.524989 2.77344 0)
(0.314281 2.81276 0)
(0.104013 2.82899 0)
(10.0034 0.108598 0)
(10.0775 0.0941173 0)
(10.0815 0.0917765 0)
(10.0607 0.0759925 0)
(10.0208 0.0781567 0)
(9.99206 0.121071 0)
(9.99315 0.179427 0)
(10.0132 0.209264 0)
(10.0283 0.200041 0)
(10.0213 0.179214 0)
(9.99416 0.178038 0)
(9.96274 0.20525 0)
(9.93857 0.24778 0)
(9.91861 0.286332 0)
(9.89082 0.309797 0)
(9.84924 0.320087 0)
(9.80182 0.32721 0)
(9.76214 0.339471 0)
(9.73588 0.357013 0)
(9.71744 0.374381 0)
(9.69844 0.388845 0)
(9.67599 0.40486 0)
(9.65201 0.429718 0)
(9.62701 0.465401 0)
(9.59717 0.505477 0)
(9.55808 0.539637 0)
(9.51031 0.56153 0)
(9.46031 0.573772 0)
(9.41546 0.586239 0)
(9.37829 0.60841 0)
(9.34472 0.641558 0)
(9.30783 0.67768 0)
(9.26319 0.706574 0)
(9.21121 0.72465 0)
(9.1554 0.737237 0)
(9.0993 0.752917 0)
(9.04496 0.776268 0)
(8.99278 0.80569 0)
(8.9411 0.836671 0)
(8.88596 0.866006 0)
(8.82283 0.893373 0)
(8.75029 0.920321 0)
(8.67188 0.94864 0)
(8.59381 0.979604 0)
(8.52042 1.01387 0)
(8.45162 1.05116 0)
(8.38385 1.08994 0)
(8.31317 1.12825 0)
(8.23777 1.16557 0)
(8.15837 1.20309 0)
(8.07648 1.24153 0)
(7.99236 1.27924 0)
(7.9051 1.31419 0)
(7.81463 1.34756 0)
(7.72285 1.38315 0)
(7.63192 1.4221 0)
(7.54174 1.46037 0)
(7.44994 1.49372 0)
(7.35422 1.52392 0)
(7.25354 1.55698 0)
(7.14701 1.5955 0)
(7.03327 1.63632 0)
(6.91258 1.67673 0)
(6.78825 1.71952 0)
(6.66426 1.76837 0)
(6.54082 1.82023 0)
(6.41381 1.86707 0)
(6.27933 1.90589 0)
(6.13822 1.94378 0)
(5.99538 1.98974 0)
(5.85479 2.04289 0)
(5.71574 2.09154 0)
(5.57379 2.12492 0)
(5.42463 2.14427 0)
(5.26675 2.16212 0)
(5.10102 2.1915 0)
(4.92871 2.23641 0)
(4.75039 2.29104 0)
(4.56629 2.34599 0)
(4.3769 2.39473 0)
(4.18307 2.43558 0)
(3.98559 2.4701 0)
(3.78492 2.50063 0)
(3.58117 2.5289 0)
(3.37426 2.55582 0)
(3.16411 2.5818 0)
(2.9507 2.60712 0)
(2.73413 2.63204 0)
(2.51465 2.65695 0)
(2.29264 2.6824 0)
(2.0687 2.70908 0)
(1.84355 2.73788 0)
(1.61815 2.76982 0)
(1.39353 2.8059 0)
(1.17081 2.84676 0)
(0.950848 2.89199 0)
(0.734391 2.93957 0)
(0.52128 2.98459 0)
(0.311472 3.02184 0)
(0.102976 3.03649 0)
(10.0429 -0.0232573 0)
(10.0224 -0.00857349 0)
(9.98452 0.0627695 0)
(9.96149 0.113335 0)
(9.95341 0.140096 0)