/*--------------------------------*- C++ -*----------------------------------*\
| =========                 |                                                 |
| \\      /  F ield         | OpenFOAM: The Open Source CFD Toolbox           |
|  \\    /   O peration     | Version:  4.1                                   |
|   \\  /    A nd           | Web:      www.OpenFOAM.org                      |
|    \\/     M anipulation  |                                                 |
\*---------------------------------------------------------------------------*/
FoamFile
{
    version     2.0;
    format      ascii;
    class       volVectorField;
    location    "0.2";
    object      UMean;
}
// * * * * * * * * * * * * * * * * * * * * * * * * * * * * * * * * * * * * * //

dimensions      [0 1 -1 0 0 0 0];

internalField   nonuniform List<vector> 
43750
(
(9.95215 0.00195301 0)
(9.98721 0.00356236 0)
(9.96034 0.00362741 0)
(9.95814 0.00406577 0)
(9.95044 0.00528825 0)
(9.93861 0.00683131 0)
(9.92493 0.00822109 0)
(9.9096 0.00939459 0)
(9.89229 0.0105309 0)
(9.87286 0.0117646 0)
(9.85141 0.0131017 0)
(9.8281 0.0144724 0)
(9.803 0.0158145 0)
(9.776 0.0171068 0)
(9.74695 0.0183499 0)
(9.71574 0.0195431 0)
(9.68243 0.0206873 0)
(9.64719 0.0218135 0)
(9.61013 0.0229896 0)
(9.57124 0.0242787 0)
(9.5304 0.0256833 0)
(9.48751 0.0271381 0)
(9.44257 0.0285678 0)
(9.39561 0.0299555 0)
(9.34665 0.0313446 0)
(9.29559 0.0327668 0)
(9.24237 0.0341756 0)
(9.18691 0.0354658 0)
(9.12926 0.0365813 0)
(9.06948 0.0375956 0)
(9.00757 0.0386736 0)
(8.94344 0.0399317 0)
(8.87698 0.0413239 0)
(8.80817 0.0426716 0)
(8.73708 0.0438149 0)
(8.66383 0.0447602 0)
(8.5884 0.0456939 0)
(8.51067 0.0468496 0)
(8.43039 0.0483231 0)
(8.34744 0.0499733 0)
(8.26181 0.0515062 0)
(8.17372 0.0527076 0)
(8.08341 0.0536578 0)
(7.99095 0.0547154 0)
(7.89615 0.0562425 0)
(7.79866 0.0582913 0)
(7.69816 0.0605583 0)
(7.59448 0.0626498 0)
(7.48766 0.0643857 0)
(7.37776 0.0658786 0)
(7.26478 0.0673668 0)
(7.14863 0.0690126 0)
(7.02921 0.0708236 0)
(6.90642 0.0726854 0)
(6.78023 0.074445 0)
(6.65073 0.0760268 0)
(6.51797 0.077529 0)
(6.38191 0.0791606 0)
(6.24234 0.0810661 0)
(6.09902 0.083246 0)
(5.95173 0.0856842 0)
(5.80026 0.088412 0)
(5.6444 0.0912887 0)
(5.48411 0.0938228 0)
(5.31968 0.0955546 0)
(5.15161 0.096652 0)
(4.98015 0.0976628 0)
(4.80545 0.0984392 0)
(4.62821 0.0978441 0)
(4.45017 0.0950686 0)
(4.27324 0.0909029 0)
(4.09836 0.0871318 0)
(3.92519 0.0849473 0)
(3.75276 0.0843454 0)
(3.58017 0.084602 0)
(3.40682 0.0849637 0)
(3.2325 0.0849903 0)
(3.05728 0.0845208 0)
(2.88152 0.0835224 0)
(2.70571 0.0820001 0)
(2.53049 0.0799535 0)
(2.35657 0.0773756 0)
(2.18471 0.0742639 0)
(2.01568 0.0706341 0)
(1.85025 0.0665373 0)
(1.68914 0.0620523 0)
(1.53304 0.0572691 0)
(1.3825 0.0522906 0)
(1.23801 0.0472246 0)
(1.09989 0.0421773 0)
(0.968355 0.037248 0)
(0.843476 0.0325246 0)
(0.725196 0.0280994 0)
(0.613279 0.0240755 0)
(0.507347 0.0205551 0)
(0.406827 0.0176024 0)
(0.311052 0.0152589 0)
(0.219107 0.0134604 0)
(0.130263 0.0120885 0)
(0.0431614 0.0117296 0)
(9.98674 0.00765951 0)
(10.0255 0.00860484 0)
(10.0024 0.00994822 0)
(10.004 0.0119182 0)
(9.9998 0.0143755 0)
(9.99157 0.0171762 0)
(9.98191 0.0201813 0)
(9.97114 0.023263 0)
(9.95891 0.0262717 0)
(9.94502 0.0290376 0)
(9.92953 0.0314888 0)
(9.91255 0.0337467 0)
(9.89416 0.0360859 0)
(9.87436 0.0387369 0)
(9.85311 0.0417038 0)
(9.83026 0.0447622 0)
(9.80561 0.0476489 0)
(9.77903 0.0502634 0)
(9.75057 0.052715 0)
(9.7205 0.0551841 0)
(9.68905 0.0577569 0)
(9.6563 0.0603932 0)
(9.62214 0.0630202 0)
(9.58646 0.0656345 0)
(9.5492 0.06831 0)
(9.51043 0.07113 0)
(9.47018 0.0741184 0)
(9.42838 0.0772354 0)
(9.38486 0.0804247 0)
(9.33948 0.083653 0)
(9.29227 0.0869113 0)
(9.24334 0.0901914 0)
(9.1928 0.0934746 0)
(9.1406 0.0967492 0)
(9.08656 0.100041 0)
(9.03052 0.103414 0)
(8.97242 0.10693 0)
(8.9124 0.110588 0)
(8.85064 0.11432 0)
(8.78724 0.118026 0)
(8.72211 0.121633 0)
(8.65497 0.125125 0)
(8.58547 0.128539 0)
(8.51348 0.131934 0)
(8.43911 0.135394 0)
(8.36273 0.139021 0)
(8.28466 0.142915 0)
(8.20493 0.147121 0)
(8.12324 0.151599 0)
(8.03922 0.156254 0)
(7.95259 0.160995 0)
(7.86333 0.165777 0)
(7.77151 0.170609 0)
(7.67723 0.175507 0)
(7.58039 0.180467 0)
(7.48076 0.185466 0)
(7.37806 0.190518 0)
(7.27206 0.195689 0)
(7.16263 0.201059 0)
(7.04979 0.206638 0)
(6.93367 0.212377 0)
(6.81448 0.218233 0)
(6.69243 0.22422 0)
(6.56744 0.230329 0)
(6.43909 0.236445 0)
(6.30676 0.24239 0)
(6.17025 0.248007 0)
(6.02977 0.253098 0)
(5.88546 0.257254 0)
(5.73702 0.259995 0)
(5.58395 0.261216 0)
(5.42619 0.261374 0)
(5.26427 0.261225 0)
(5.099 0.261419 0)
(4.93084 0.26228 0)
(4.75976 0.263807 0)
(4.58553 0.265747 0)
(4.40792 0.267728 0)
(4.2268 0.269378 0)
(4.04223 0.270407 0)
(3.8544 0.270615 0)
(3.66358 0.269885 0)
(3.47005 0.268153 0)
(3.27416 0.265387 0)
(3.07624 0.261581 0)
(2.87664 0.256758 0)
(2.67574 0.250979 0)
(2.4739 0.244342 0)
(2.27151 0.236976 0)
(2.06892 0.229037 0)
(1.86649 0.2207 0)
(1.66457 0.212149 0)
(1.46345 0.203582 0)
(1.26342 0.195225 0)
(1.06473 0.187317 0)
(0.867635 0.180084 0)
(0.672268 0.173797 0)
(0.47862 0.168682 0)
(0.286488 0.165109 0)
(0.0949988 0.163005 0)
(9.96572 -0.00155086 0)
(10.0058 0.00427121 0)
(9.9822 0.0096267 0)
(9.98202 0.0147566 0)
(9.97593 0.0194049 0)
(9.96602 0.0237004 0)
(9.95475 0.0280421 0)
(9.94235 0.0325898 0)
(9.92849 0.037178 0)
(9.91294 0.0416288 0)
(9.89556 0.0459269 0)
(9.87626 0.0501485 0)
(9.85506 0.0543391 0)
(9.83217 0.0585424 0)
(9.80781 0.0628805 0)
(9.78204 0.0674958 0)
(9.75469 0.0723858 0)
(9.72551 0.0773285 0)
(9.69435 0.0820306 0)
(9.6612 0.0863704 0)
(9.62615 0.0904959 0)
(9.58929 0.0946793 0)
(9.55064 0.0990731 0)
(9.51021 0.103611 0)
(9.46799 0.108134 0)
(9.42407 0.112584 0)
(9.37856 0.117049 0)
(9.33158 0.121639 0)
(9.28319 0.126353 0)
(9.23332 0.131082 0)
(9.18183 0.135736 0)
(9.12855 0.140345 0)
(9.07334 0.145027 0)
(9.01617 0.149876 0)
(8.95708 0.154871 0)
(8.89614 0.159899 0)
(8.83344 0.164849 0)
(8.76903 0.16971 0)
(8.70292 0.174581 0)
(8.63504 0.1796 0)
(8.56532 0.184865 0)
(8.49366 0.19041 0)
(8.41999 0.196206 0)
(8.34419 0.202154 0)
(8.26622 0.208093 0)
(8.18609 0.213885 0)
(8.10396 0.219546 0)
(8.02 0.225265 0)
(7.93434 0.231278 0)
(7.84699 0.237686 0)
(7.75784 0.24438 0)
(7.66678 0.251167 0)
(7.57381 0.257945 0)
(7.47903 0.264777 0)
(7.38253 0.271805 0)
(7.2843 0.27916 0)
(7.1842 0.286931 0)
(7.08206 0.295145 0)
(6.97771 0.303715 0)
(6.87108 0.312427 0)
(6.76216 0.32106 0)
(6.65098 0.329568 0)
(6.53763 0.338109 0)
(6.42222 0.346866 0)
(6.30484 0.355853 0)
(6.18545 0.364922 0)
(6.06388 0.373841 0)
(5.93995 0.382279 0)
(5.81333 0.3898 0)
(5.68358 0.396078 0)
(5.55012 0.40123 0)
(5.41266 0.405798 0)
(5.2713 0.410408 0)
(5.12627 0.415449 0)
(4.97778 0.421045 0)
(4.82596 0.427143 0)
(4.67079 0.433528 0)
(4.5122 0.439853 0)
(4.35009 0.445751 0)
(4.18439 0.450917 0)
(4.01505 0.455144 0)
(3.84204 0.458321 0)
(3.66529 0.460393 0)
(3.48473 0.461342 0)
(3.30027 0.461163 0)
(3.11186 0.459871 0)
(2.91944 0.457518 0)
(2.72299 0.454182 0)
(2.52254 0.449969 0)
(2.31813 0.445009 0)
(2.10988 0.439443 0)
(1.89795 0.43342 0)
(1.68258 0.427095 0)
(1.46412 0.420603 0)
(1.24293 0.414102 0)
(1.01949 0.407791 0)
(0.794345 0.40195 0)
(0.567972 0.396901 0)
(0.340989 0.393306 0)
(0.113288 0.390789 0)
(9.97754 0.00548385 0)
(10.01 0.0117493 0)
(9.983 0.018417 0)
(9.9823 0.0246578 0)
(9.97659 0.0305136 0)
(9.96677 0.0364877 0)
(9.95512 0.0428172 0)
(9.94206 0.0492881 0)
(9.92744 0.0556046 0)
(9.91112 0.0617314 0)
(9.89301 0.0677883 0)
(9.87307 0.0738081 0)
(9.8513 0.0797245 0)
(9.8277 0.085533 0)
(9.80237 0.0913691 0)
(9.77542 0.0973964 0)
(9.74695 0.103655 0)
(9.717 0.110044 0)
(9.68551 0.116429 0)
(9.65238 0.122743 0)
(9.6175 0.128989 0)
(9.58084 0.135191 0)
(9.54238 0.141364 0)
(9.50215 0.147515 0)
(9.46011 0.153645 0)
(9.41627 0.159732 0)
(9.37067 0.165756 0)
(9.3234 0.171745 0)
(9.27451 0.177814 0)
(9.22394 0.184122 0)
(9.17156 0.190781 0)
(9.11726 0.197766 0)
(9.06101 0.204932 0)
(9.00284 0.2121 0)
(8.94281 0.219165 0)
(8.88084 0.226137 0)
(8.81682 0.233101 0)
(8.75065 0.240161 0)
(8.68233 0.247369 0)
(8.61194 0.25471 0)
(8.53961 0.262137 0)
(8.46537 0.269627 0)
(8.38919 0.277206 0)
(8.311 0.284903 0)
(8.2307 0.292691 0)
(8.14821 0.300491 0)
(8.06349 0.308246 0)
(7.97655 0.316013 0)
(7.88747 0.323945 0)
(7.79633 0.332178 0)
(7.70312 0.340715 0)
(7.60778 0.349414 0)
(7.51022 0.358095 0)
(7.41042 0.36668 0)
(7.30842 0.375253 0)
(7.20434 0.384014 0)
(7.09825 0.393163 0)
(6.99022 0.402801 0)
(6.88026 0.412879 0)
(6.76831 0.423242 0)
(6.6543 0.433713 0)
(6.53816 0.444156 0)
(6.41995 0.454506 0)
(6.29989 0.464754 0)
(6.1783 0.474932 0)
(6.05535 0.485092 0)
(5.93097 0.495256 0)
(5.80495 0.505356 0)
(5.67698 0.515212 0)
(5.54669 0.524578 0)
(5.4137 0.533321 0)
(5.27773 0.541509 0)
(5.13869 0.549352 0)
(4.99667 0.557161 0)
(4.85179 0.565247 0)
(4.70413 0.57377 0)
(4.55376 0.582661 0)
(4.40068 0.591659 0)
(4.24492 0.600421 0)
(4.08639 0.608632 0)
(3.92501 0.616079 0)
(3.76064 0.622653 0)
(3.59313 0.628309 0)
(3.42229 0.633041 0)
(3.24791 0.636858 0)
(3.06978 0.639783 0)
(2.88767 0.641851 0)
(2.70135 0.643113 0)
(2.51061 0.643627 0)
(2.31525 0.643459 0)
(2.11511 0.642674 0)
(1.91011 0.641328 0)
(1.7002 0.639468 0)
(1.48543 0.637118 0)
(1.26602 0.634323 0)
(1.04232 0.631177 0)
(0.814867 0.627894 0)
(0.584238 0.624739 0)
(0.351421 0.622413 0)
(0.116887 0.620034 0)
(9.96222 0.00925267 0)
(10.0034 0.0141928 0)
(9.98036 0.021497 0)
(9.98075 0.0292305 0)
(9.97501 0.0368202 0)
(9.96501 0.0443995 0)
(9.9535 0.0522596 0)
(9.94096 0.0603631 0)
(9.927 0.0684576 0)
(9.91129 0.0763998 0)
(9.89374 0.0842674 0)
(9.8744 0.0921647 0)
(9.8533 0.100065 0)
(9.83042 0.107881 0)
(9.80576 0.115622 0)
(9.77939 0.123403 0)
(9.75138 0.131316 0)
(9.72177 0.139309 0)
(9.69056 0.147236 0)
(9.65771 0.155013 0)
(9.62315 0.162715 0)
(9.5868 0.170507 0)
(9.54858 0.178496 0)
(9.5084 0.186639 0)
(9.46625 0.19479 0)
(9.42214 0.202823 0)
(9.37614 0.210731 0)
(9.3283 0.218621 0)
(9.27865 0.226638 0)
(9.22728 0.234861 0)
(9.17421 0.243266 0)
(9.11942 0.251768 0)
(9.06287 0.260316 0)
(9.00445 0.268943 0)
(8.94406 0.277738 0)
(8.88167 0.286747 0)
(8.81725 0.295905 0)
(8.75086 0.305072 0)
(8.6825 0.314147 0)
(8.61218 0.32316 0)
(8.53988 0.332259 0)
(8.46559 0.341621 0)
(8.38932 0.351346 0)
(8.31109 0.361399 0)
(8.23084 0.371626 0)
(8.14846 0.38184 0)
(8.0638 0.391941 0)
(7.97678 0.401994 0)
(7.8874 0.412183 0)
(7.79573 0.422679 0)
(7.70183 0.43352 0)
(7.60569 0.444599 0)
(7.50721 0.455775 0)
(7.40625 0.466964 0)
(7.3027 0.47819 0)
(7.19652 0.489555 0)
(7.08783 0.501193 0)
(6.97688 0.513205 0)
(6.86392 0.525593 0)
(6.74902 0.538244 0)
(6.63209 0.550978 0)
(6.51297 0.563609 0)
(6.39155 0.575994 0)
(6.26784 0.588077 0)
(6.14197 0.599933 0)
(6.01414 0.611744 0)
(5.88448 0.623673 0)
(5.75299 0.635709 0)
(5.61957 0.647634 0)
(5.48402 0.659165 0)
(5.34616 0.670165 0)
(5.20584 0.680723 0)
(5.06298 0.691117 0)
(4.91754 0.701662 0)
(4.76952 0.712566 0)
(4.61896 0.723865 0)
(4.46599 0.735421 0)
(4.31074 0.746974 0)
(4.15329 0.75823 0)
(3.99364 0.768944 0)
(3.83174 0.778967 0)
(3.66751 0.788235 0)
(3.5008 0.796742 0)
(3.33148 0.804512 0)
(3.15938 0.811582 0)
(2.98431 0.817996 0)
(2.80605 0.823803 0)
(2.62436 0.829059 0)
(2.439 0.833828 0)
(2.24972 0.838168 0)
(2.05626 0.842125 0)
(1.85839 0.845715 0)
(1.65589 0.848918 0)
(1.44864 0.851679 0)
(1.23657 0.853908 0)
(1.01977 0.8555 0)
(0.798564 0.856431 0)
(0.573398 0.856714 0)
(0.345303 0.85685 0)
(0.114928 0.855349 0)
(9.96725 0.0015261 0)
(10.0074 0.0145784 0)
(9.98378 0.0249117 0)
(9.98349 0.0354314 0)
(9.97749 0.0462152 0)
(9.96762 0.0565286 0)
(9.95623 0.0662786 0)
(9.94353 0.0758204 0)
(9.92921 0.0853832 0)
(9.9131 0.0949738 0)
(9.8953 0.104533 0)
(9.87598 0.114031 0)
(9.8552 0.123448 0)
(9.83286 0.132783 0)
(9.80873 0.142083 0)
(9.78266 0.151431 0)
(9.75464 0.160883 0)
(9.72482 0.170423 0)
(9.69332 0.180002 0)
(9.6601 0.189617 0)
(9.62506 0.199314 0)
(9.58814 0.209148 0)
(9.54943 0.219117 0)
(9.50908 0.229163 0)
(9.46722 0.239191 0)
(9.4238 0.24911 0)
(9.37867 0.258867 0)
(9.33167 0.268482 0)
(9.28274 0.278066 0)
(9.23191 0.287796 0)
(9.17924 0.297845 0)
(9.12474 0.308293 0)
(9.06832 0.31909 0)
(9.00991 0.330091 0)
(8.94948 0.341134 0)
(8.88711 0.352128 0)
(8.82291 0.363082 0)
(8.75692 0.37408 0)
(8.68911 0.38521 0)
(8.61934 0.396507 0)
(8.5475 0.407924 0)
(8.47354 0.4194 0)
(8.39748 0.430931 0)
(8.31938 0.442607 0)
(8.2393 0.454535 0)
(8.15719 0.466738 0)
(8.0729 0.479129 0)
(7.98629 0.491614 0)
(7.89726 0.504191 0)
(7.80583 0.516956 0)
(7.71208 0.529986 0)
(7.61607 0.543282 0)
(7.51778 0.556791 0)
(7.41716 0.570475 0)
(7.31407 0.58431 0)
(7.20841 0.59824 0)
(7.10017 0.612191 0)
(6.98948 0.626159 0)
(6.87653 0.640252 0)
(6.76148 0.654629 0)
(6.64428 0.669361 0)
(6.52478 0.684348 0)
(6.40278 0.699353 0)
(6.2781 0.714119 0)
(6.15067 0.72851 0)
(6.02059 0.742587 0)
(5.88802 0.756535 0)
(5.75315 0.7705 0)
(5.61603 0.784456 0)
(5.47656 0.798239 0)
(5.33458 0.811701 0)
(5.18994 0.824856 0)
(5.0426 0.837884 0)
(4.89258 0.851018 0)
(4.74 0.864415 0)
(4.58497 0.878071 0)
(4.42771 0.891836 0)
(4.26834 0.90547 0)
(4.10697 0.918743 0)
(3.94364 0.931481 0)
(3.77833 0.943589 0)
(3.61096 0.955034 0)
(3.44145 0.965828 0)
(3.26972 0.976008 0)
(3.09569 0.985624 0)
(2.91923 0.994738 0)
(2.74025 1.00342 0)
(2.55859 1.01175 0)
(2.37411 1.01982 0)
(2.18661 1.0277 0)
(1.99588 1.03544 0)
(1.80171 1.04307 0)
(1.60386 1.05054 0)
(1.40211 1.05773 0)
(1.1963 1.06446 0)
(0.986335 1.07045 0)
(0.772372 1.07546 0)
(0.554659 1.07922 0)
(0.334085 1.08196 0)
(0.111201 1.08144 0)
(9.97901 0.00642821 0)
(10.0116 0.0197693 0)
(9.98524 0.0310493 0)
(9.98495 0.0419553 0)
(9.97922 0.0531306 0)
(9.96938 0.0645425 0)
(9.95798 0.0760875 0)
(9.94538 0.0876867 0)
(9.93122 0.0992062 0)
(9.91525 0.110489 0)
(9.89744 0.12149 0)
(9.8779 0.132338 0)
(9.85674 0.143266 0)
(9.83397 0.154475 0)
(9.80951 0.166005 0)
(9.78326 0.177722 0)
(9.75519 0.189413 0)
(9.72536 0.200938 0)
(9.69384 0.212316 0)
(9.66068 0.223677 0)
(9.62584 0.235123 0)
(9.58924 0.246628 0)
(9.55082 0.258077 0)
(9.51058 0.269397 0)
(9.46859 0.280642 0)
(9.42491 0.291954 0)
(9.37956 0.303449 0)
(9.33251 0.315151 0)
(9.28363 0.327011 0)
(9.23282 0.338982 0)
(9.18006 0.351074 0)
(9.12541 0.363335 0)
(9.06898 0.375798 0)
(9.01081 0.388439 0)
(8.95088 0.401191 0)
(8.88908 0.413979 0)
(8.82535 0.426761 0)
(8.75965 0.439549 0)
(8.69202 0.452408 0)
(8.62251 0.465432 0)
(8.55111 0.47871 0)
(8.4777 0.492281 0)
(8.40211 0.506127 0)
(8.3242 0.520198 0)
(8.24396 0.534449 0)
(8.1615 0.548871 0)
(8.07693 0.56347 0)
(7.99024 0.57826 0)
(7.90133 0.593251 0)
(7.8101 0.608449 0)
(7.71654 0.623847 0)
(7.62067 0.639421 0)
(7.52254 0.655166 0)
(7.42223 0.671116 0)
(7.31975 0.687318 0)
(7.21508 0.703767 0)
(7.10811 0.720374 0)
(6.99868 0.737047 0)
(6.88666 0.753779 0)
(6.77203 0.770664 0)
(6.65488 0.787806 0)
(6.53526 0.805204 0)
(6.41317 0.82273 0)
(6.28854 0.840175 0)
(6.16127 0.857361 0)
(6.0313 0.874231 0)
(5.89863 0.890867 0)
(5.76328 0.90741 0)
(5.62528 0.923928 0)
(5.48455 0.940362 0)
(5.34101 0.956598 0)
(5.19452 0.972588 0)
(5.04506 0.98841 0)
(4.89269 1.00422 0)
(4.73753 1.02011 0)
(4.57979 1.03609 0)
(4.41965 1.05199 0)
(4.25728 1.06765 0)
(4.09281 1.08287 0)
(3.92627 1.09756 0)
(3.75766 1.11165 0)
(3.58698 1.12513 0)
(3.41417 1.13803 0)
(3.2392 1.15037 0)
(3.06206 1.1622 0)
(2.88272 1.17359 0)
(2.70118 1.18463 0)
(2.5174 1.19542 0)
(2.33133 1.20605 0)
(2.14292 1.21662 0)
(1.95208 1.22723 0)
(1.75868 1.2379 0)
(1.56259 1.24861 0)
(1.36361 1.25925 0)
(1.16161 1.26958 0)
(0.956449 1.27923 0)
(0.74816 1.28776 0)
(0.536842 1.2946 0)
(0.32319 1.29971 0)
(0.107538 1.30009 0)
(9.99511 0.011557 0)
(10.0327 0.0227219 0)
(10.008 0.0360571 0)
(10.0076 0.0496846 0)
(10.0017 0.0630613 0)
(9.99185 0.0762624 0)
(9.98043 0.0893918 0)
(9.96785 0.102512 0)
(9.95389 0.11565 0)
(9.9384 0.12875 0)
(9.92116 0.141733 0)
(9.90196 0.154563 0)
(9.88072 0.167267 0)
(9.85759 0.179947 0)
(9.83283 0.192724 0)
(9.80657 0.205647 0)
(9.77879 0.21864 0)
(9.7494 0.231583 0)
(9.71834 0.244446 0)
(9.6856 0.257345 0)
(9.65121 0.270447 0)
(9.6151 0.283828 0)
(9.57718 0.29741 0)
(9.53734 0.31102 0)
(9.49555 0.324493 0)
(9.45184 0.337767 0)
(9.40626 0.350902 0)
(9.35882 0.364053 0)
(9.30951 0.377381 0)
(9.2583 0.390979 0)
(9.20519 0.404854 0)
(9.15021 0.418965 0)
(9.09345 0.43328 0)
(9.03494 0.44778 0)
(8.9747 0.462446 0)
(8.91267 0.477234 0)
(8.84874 0.492091 0)
(8.78278 0.506985 0)
(8.71469 0.521934 0)
(8.64442 0.537014 0)
(8.57201 0.552342 0)
(8.49753 0.568018 0)
(8.42101 0.584065 0)
(8.34245 0.600396 0)
(8.26182 0.616876 0)
(8.17911 0.633421 0)
(8.09431 0.650059 0)
(8.00737 0.666899 0)
(7.91822 0.684039 0)
(7.82674 0.701498 0)
(7.73291 0.719219 0)
(7.63673 0.737115 0)
(7.53825 0.75512 0)
(7.43747 0.773222 0)
(7.3344 0.791464 0)
(7.22906 0.809931 0)
(7.12145 0.828678 0)
(7.01147 0.847707 0)
(6.89903 0.866977 0)
(6.78407 0.886469 0)
(6.6666 0.906186 0)
(6.54667 0.926109 0)
(6.42427 0.946131 0)
(6.29937 0.966075 0)
(6.17197 0.985797 0)
(6.04203 1.00527 0)
(5.90954 1.0246 0)
(5.77439 1.0439 0)
(5.63642 1.06324 0)
(5.49553 1.08255 0)
(5.35164 1.10173 0)
(5.20474 1.12073 0)
(5.05482 1.13958 0)
(4.90195 1.15836 0)
(4.74618 1.17709 0)
(4.58763 1.19573 0)
(4.42641 1.21411 0)
(4.26265 1.23209 0)
(4.09646 1.24955 0)
(3.9279 1.26642 0)
(3.75703 1.28269 0)
(3.58385 1.29836 0)
(3.40839 1.31344 0)
(3.23065 1.32797 0)
(3.05067 1.34197 0)
(2.86848 1.35552 0)
(2.68416 1.3687 0)
(2.49773 1.3816 0)
(2.30927 1.39435 0)
(2.11883 1.40706 0)
(1.92644 1.41984 0)
(1.73212 1.43275 0)
(1.53586 1.4458 0)
(1.33758 1.45889 0)
(1.13724 1.47178 0)
(0.934704 1.48406 0)
(0.730014 1.49518 0)
(0.523167 1.50432 0)
(0.314683 1.51126 0)
(0.104653 1.51225 0)
(9.98495 0.00946037 0)
(10.0249 0.0242497 0)
(10.0009 0.0398231 0)
(10.0006 0.0552524 0)
(9.99491 0.0700657 0)
(9.98553 0.0846469 0)
(9.97472 0.0993956 0)
(9.96263 0.114247 0)
(9.94893 0.128956 0)
(9.93354 0.143519 0)
(9.91649 0.158117 0)
(9.89776 0.172847 0)
(9.87727 0.18763 0)
(9.85503 0.202359 0)
(9.83113 0.217046 0)
(9.80567 0.231789 0)
(9.7786 0.246621 0)
(9.74976 0.261457 0)
(9.71899 0.27621 0)
(9.68624 0.29093 0)
(9.65159 0.305765 0)
(9.61514 0.32081 0)
(9.57703 0.336002 0)
(9.53734 0.351192 0)
(9.49603 0.366299 0)
(9.45304 0.381385 0)
(9.40822 0.39659 0)
(9.36146 0.412011 0)
(9.31272 0.427645 0)
(9.26208 0.443424 0)
(9.20966 0.459283 0)
(9.15553 0.475201 0)
(9.09971 0.4912 0)
(9.04219 0.507323 0)
(8.9829 0.523609 0)
(8.92178 0.540094 0)
(8.85872 0.556804 0)
(8.7936 0.573748 0)
(8.72633 0.590905 0)
(8.65686 0.608238 0)
(8.58523 0.625728 0)
(8.51154 0.643406 0)
(8.43585 0.661323 0)
(8.3582 0.679497 0)
(8.27852 0.697894 0)
(8.19669 0.716478 0)
(8.11263 0.735287 0)
(8.0263 0.754416 0)
(7.93767 0.773927 0)
(7.84677 0.793776 0)
(7.75361 0.81384 0)
(7.65822 0.834033 0)
(7.56057 0.854356 0)
(7.46056 0.874868 0)
(7.35806 0.895615 0)
(7.25296 0.916613 0)
(7.14526 0.937869 0)
(7.03501 0.959382 0)
(6.92227 0.981126 0)
(6.80703 1.00306 0)
(6.68927 1.0252 0)
(6.56894 1.04755 0)
(6.44603 1.07005 0)
(6.32052 1.09252 0)
(6.19243 1.11475 0)
(6.06181 1.13672 0)
(5.92866 1.15858 0)
(5.79289 1.18059 0)
(5.65432 1.20282 0)
(5.51281 1.22516 0)
(5.36833 1.2474 0)
(5.2209 1.26939 0)
(5.07063 1.29117 0)
(4.91753 1.31281 0)
(4.76161 1.33438 0)
(4.60285 1.3558 0)
(4.44126 1.37691 0)
(4.27688 1.39753 0)
(4.10979 1.41755 0)
(3.94005 1.43692 0)
(3.76772 1.45564 0)
(3.59287 1.47372 0)
(3.41552 1.49118 0)
(3.23572 1.50804 0)
(3.05355 1.52433 0)
(2.86905 1.54009 0)
(2.68234 1.55539 0)
(2.49351 1.57033 0)
(2.3027 1.58501 0)
(2.11002 1.59957 0)
(1.91564 1.6141 0)
(1.71966 1.62872 0)
(1.5222 1.64344 0)
(1.32334 1.65821 0)
(1.12312 1.67281 0)
(0.921515 1.68681 0)
(0.718593 1.6996 0)
(0.514317 1.71026 0)
(0.30907 1.71843 0)
(0.10273 1.71971 0)
(9.97733 0.00952213 0)
(10.0162 0.0275576 0)
(9.99283 0.0449978 0)
(9.99351 0.0621048 0)
(9.98835 0.0788672 0)
(9.97899 0.095331 0)
(9.96794 0.11177 0)
(9.9557 0.128296 0)
(9.94206 0.14476 0)
(9.92675 0.161071 0)
(9.90962 0.177342 0)
(9.89066 0.19367 0)
(9.86998 0.209964 0)
(9.84765 0.226087 0)
(9.82365 0.242078 0)
(9.79797 0.25816 0)
(9.77059 0.274516 0)
(9.74155 0.291138 0)
(9.71086 0.307886 0)
(9.67846 0.324651 0)
(9.64435 0.341424 0)
(9.60851 0.358235 0)
(9.57098 0.375071 0)
(9.53179 0.391882 0)
(9.49089 0.408655 0)
(9.44826 0.425458 0)
(9.40385 0.442382 0)
(9.35768 0.459467 0)
(9.30977 0.47668 0)
(9.26012 0.493969 0)
(9.20875 0.511337 0)
(9.15564 0.528839 0)
(9.10076 0.54655 0)
(9.04409 0.564523 0)
(8.98557 0.582785 0)
(8.92512 0.601345 0)
(8.86268 0.620193 0)
(8.79817 0.639293 0)
(8.73159 0.658587 0)
(8.66295 0.678019 0)
(8.5923 0.697575 0)
(8.51966 0.717304 0)
(8.44506 0.7373 0)
(8.36846 0.757632 0)
(8.28974 0.778291 0)
(8.20881 0.799214 0)
(8.12557 0.820366 0)
(8.04003 0.841777 0)
(7.95224 0.863495 0)
(7.86227 0.885508 0)
(7.77008 0.90774 0)
(7.67563 0.930137 0)
(7.57882 0.952754 0)
(7.4796 0.9757 0)
(7.3779 0.99903 0)
(7.2737 1.02268 0)
(7.16698 1.04655 0)
(7.05774 1.0706 0)
(6.94599 1.09484 0)
(6.83168 1.11935 0)
(6.71474 1.14415 0)
(6.59508 1.16922 0)
(6.47266 1.19444 0)
(6.34747 1.21958 0)
(6.21949 1.24444 0)
(6.08871 1.26901 0)
(5.95507 1.29351 0)
(5.81855 1.31825 0)
(5.6791 1.34333 0)
(5.53673 1.36858 0)
(5.39151 1.3937 0)
(5.24353 1.41849 0)
(5.09285 1.44302 0)
(4.93942 1.46744 0)
(4.78317 1.49183 0)
(4.62401 1.51612 0)
(4.46192 1.5401 0)
(4.29693 1.56357 0)
(4.12909 1.58637 0)
(3.95846 1.60846 0)
(3.78509 1.62984 0)
(3.60904 1.65054 0)
(3.43034 1.67056 0)
(3.24906 1.68991 0)
(3.06525 1.70862 0)
(2.879 1.72671 0)
(2.69041 1.74422 0)
(2.49962 1.76124 0)
(2.30678 1.77785 0)
(2.11207 1.79415 0)
(1.91569 1.81026 0)
(1.71787 1.82629 0)
(1.51879 1.84229 0)
(1.31865 1.85821 0)
(1.1176 1.87388 0)
(0.915737 1.8889 0)
(0.713173 1.90266 0)
(0.509881 1.91418 0)
(0.306157 1.92306 0)
(0.101717 1.92436 0)
(9.97654 0.00790074 0)
(10.0155 0.0275533 0)
(9.99154 0.0471977 0)
(9.99209 0.0663088 0)
(9.98701 0.0851454 0)
(9.97772 0.103855 0)
(9.96675 0.122306 0)
(9.95467 0.140404 0)
(9.9412 0.158296 0)
(9.92597 0.176232 0)
(9.90888 0.194326 0)
(9.89003 0.212496 0)
(9.86955 0.230611 0)
(9.84742 0.248653 0)
(9.82348 0.266714 0)
(9.79764 0.284864 0)
(9.76999 0.303073 0)
(9.74067 0.32126 0)
(9.70978 0.339404 0)
(9.67734 0.357581 0)
(9.64327 0.37589 0)
(9.60754 0.394357 0)
(9.57014 0.412912 0)
(9.53105 0.431465 0)
(9.49028 0.449997 0)
(9.44783 0.468575 0)
(9.40372 0.487295 0)
(9.35797 0.506211 0)
(9.31056 0.525305 0)
(9.2614 0.544528 0)
(9.21038 0.563844 0)
(9.15743 0.58326 0)
(9.10259 0.602815 0)
(9.04594 0.622576 0)
(8.98755 0.642628 0)
(8.92746 0.663037 0)
(8.86565 0.683816 0)
(8.80202 0.70491 0)
(8.73643 0.726212 0)
(8.66871 0.747627 0)
(8.59874 0.769123 0)
(8.52653 0.790754 0)
(8.45216 0.812647 0)
(8.37578 0.834926 0)
(8.29744 0.85764 0)
(8.21712 0.880743 0)
(8.13471 0.904149 0)
(8.05015 0.927812 0)
(7.96342 0.951743 0)
(7.87454 0.975971 0)
(7.78348 1.0005 0)
(7.69018 1.02531 0)
(7.59452 1.0504 0)
(7.49641 1.07579 0)
(7.39586 1.10152 0)
(7.2929 1.12756 0)
(7.1875 1.15386 0)
(7.07957 1.18041 0)
(6.969 1.20723 0)
(6.85573 1.23435 0)
(6.73973 1.26183 0)
(6.62102 1.28962 0)
(6.49958 1.31763 0)
(6.37531 1.34563 0)
(6.2481 1.37343 0)
(6.11785 1.40104 0)
(5.98447 1.42864 0)
(5.8479 1.45647 0)
(5.7082 1.48456 0)
(5.56548 1.51269 0)
(5.41988 1.54055 0)
(5.27151 1.56803 0)
(5.12041 1.59526 0)
(4.96651 1.62248 0)
(4.80969 1.64979 0)
(4.64988 1.67705 0)
(4.48705 1.704 0)
(4.32127 1.73037 0)
(4.15261 1.75603 0)
(3.98112 1.78092 0)
(3.80686 1.80505 0)
(3.62985 1.82846 0)
(3.45012 1.85114 0)
(3.2677 1.87311 0)
(3.08265 1.89437 0)
(2.89503 1.91491 0)
(2.70497 1.93475 0)
(2.51259 1.95395 0)
(2.31805 1.97254 0)
(2.12158 1.99063 0)
(1.92339 2.0083 0)
(1.72374 2.02564 0)
(1.52292 2.04271 0)
(1.32116 2.05948 0)
(1.11874 2.07585 0)
(0.91583 2.09142 0)
(0.712606 2.10565 0)
(0.509078 2.11753 0)
(0.305494 2.12675 0)
(0.101464 2.12786 0)
(9.97704 0.0104638 0)
(10.0145 0.0324099 0)
(9.99018 0.052879 0)
(9.98999 0.073295 0)
(9.98422 0.0938323 0)
(9.97465 0.114168 0)
(9.96366 0.134153 0)
(9.95149 0.15389 0)
(9.93776 0.173583 0)
(9.92223 0.19335 0)
(9.90484 0.213165 0)
(9.88573 0.232928 0)
(9.86501 0.252593 0)
(9.84275 0.272216 0)
(9.81899 0.291889 0)
(9.79373 0.311646 0)
(9.76695 0.33145 0)
(9.73857 0.351261 0)
(9.70853 0.371096 0)
(9.67681 0.39101 0)
(9.64343 0.41104 0)
(9.60846 0.431171 0)
(9.57196 0.451351 0)
(9.53389 0.471532 0)
(9.49416 0.491694 0)
(9.45265 0.511862 0)
(9.40927 0.532099 0)
(9.36402 0.552499 0)
(9.31694 0.573141 0)
(9.26809 0.594059 0)
(9.21752 0.615217 0)
(9.16522 0.636541 0)
(9.11112 0.65797 0)
(9.05516 0.679503 0)
(8.9973 0.701203 0)
(8.93753 0.723181 0)
(8.87591 0.74556 0)
(8.81248 0.768429 0)
(8.74726 0.791803 0)
(8.68018 0.815593 0)
(8.61109 0.839635 0)
(8.53986 0.863773 0)
(8.46641 0.88796 0)
(8.39075 0.912285 0)
(8.31295 0.936896 0)
(8.23308 0.961901 0)
(8.15113 0.987309 0)
(8.06705 1.01307 0)
(7.98077 1.03913 0)
(7.89226 1.06548 0)
(7.80153 1.09214 0)
(7.70856 1.11916 0)
(7.61331 1.14658 0)
(7.51573 1.1744 0)
(7.41574 1.20258 0)
(7.31334 1.23108 0)
(7.20851 1.25991 0)
(7.10121 1.28911 0)
(6.99133 1.3187 0)
(6.87874 1.34863 0)
(6.76341 1.37887 0)
(6.64535 1.40941 0)
(6.52455 1.44019 0)
(6.4009 1.47108 0)
(6.27427 1.50191 0)
(6.14454 1.53264 0)
(6.01165 1.56343 0)
(5.87563 1.59446 0)
(5.7365 1.62569 0)
(5.5943 1.65684 0)
(5.44907 1.6876 0)
(5.30085 1.7179 0)
(5.14969 1.74796 0)
(4.99555 1.77809 0)
(4.83839 1.80839 0)
(4.67815 1.8387 0)
(4.51481 1.86866 0)
(4.34844 1.89798 0)
(4.17913 1.9265 0)
(4.00695 1.9542 0)
(3.83194 1.98111 0)
(3.65412 2.00728 0)
(3.47353 2.03272 0)
(3.29016 2.05739 0)
(3.10407 2.08128 0)
(2.91533 2.10438 0)
(2.72403 2.12666 0)
(2.5303 2.14814 0)
(2.33432 2.16884 0)
(2.13629 2.1888 0)
(1.93644 2.20809 0)
(1.73507 2.22675 0)
(1.53246 2.24486 0)
(1.32894 2.2624 0)
(1.12483 2.27925 0)
(0.920343 2.29512 0)
(0.715748 2.3095 0)
(0.511084 2.32145 0)
(0.306587 2.33074 0)
(0.10181 2.33152 0)
(9.96547 0.010337 0)
(10.0007 0.0342782 0)
(9.976 0.0567107 0)
(9.97678 0.0789708 0)
(9.97185 0.101273 0)
(9.96274 0.123295 0)
(9.95209 0.14494 0)
(9.94036 0.166409 0)
(9.92726 0.187888 0)
(9.91246 0.209412 0)
(9.89586 0.230914 0)
(9.87743 0.252299 0)
(9.85724 0.27352 0)
(9.83536 0.294622 0)
(9.81192 0.315724 0)
(9.78696 0.336937 0)
(9.76047 0.358297 0)
(9.73237 0.379763 0)
(9.70259 0.401283 0)
(9.67114 0.422832 0)
(9.63804 0.444409 0)
(9.60328 0.466016 0)
(9.56682 0.48767 0)
(9.52867 0.509428 0)
(9.48882 0.531375 0)
(9.44733 0.553574 0)
(9.4042 0.576014 0)
(9.35939 0.598616 0)
(9.31283 0.62129 0)
(9.2645 0.643993 0)
(9.21443 0.666764 0)
(9.16266 0.689694 0)
(9.10924 0.712886 0)
(9.05409 0.736403 0)
(8.99711 0.760259 0)
(8.93817 0.784426 0)
(8.87723 0.808866 0)
(8.81437 0.833557 0)
(8.74969 0.858514 0)
(8.68332 0.883782 0)
(8.61525 0.909401 0)
(8.54539 0.935374 0)
(8.47353 0.961676 0)
(8.39949 0.988285 0)
(8.32317 1.0152 0)
(8.24457 1.04245 0)
(8.16375 1.07007 0)
(8.08072 1.09806 0)
(7.99547 1.12641 0)
(7.90795 1.1551 0)
(7.81813 1.18409 0)
(7.72596 1.21341 0)
(7.63144 1.24313 0)
(7.53456 1.27328 0)
(7.43526 1.30383 0)
(7.33349 1.33472 0)
(7.2292 1.36593 0)
(7.1224 1.39754 0)
(7.01304 1.42964 0)
(6.90106 1.46221 0)
(6.78637 1.49516 0)
(6.66896 1.52845 0)
(6.54879 1.56205 0)
(6.42578 1.5959 0)
(6.29978 1.62982 0)
(6.17068 1.6637 0)
(6.03844 1.69759 0)
(5.90313 1.73167 0)
(5.7648 1.76595 0)
(5.62341 1.80019 0)
(5.47887 1.83407 0)
(5.33109 1.86748 0)
(5.18009 1.90062 0)
(5.0259 1.93382 0)
(4.86858 1.96722 0)
(4.70812 2.00064 0)
(4.54455 2.0337 0)
(4.37787 2.06605 0)
(4.20815 2.09753 0)
(4.03547 2.12812 0)
(3.85986 2.15789 0)
(3.68136 2.18689 0)
(3.49999 2.21513 0)
(3.31577 2.24259 0)
(3.12874 2.26922 0)
(2.93897 2.29497 0)
(2.74655 2.31979 0)
(2.5516 2.34366 0)
(2.35428 2.36657 0)
(2.1548 2.38851 0)
(1.95339 2.40952 0)
(1.75033 2.42961 0)
(1.54594 2.44882 0)
(1.34055 2.46713 0)
(1.13451 2.48446 0)
(0.92811 2.50053 0)
(0.721638 2.51493 0)
(0.515187 2.52678 0)
(0.308997 2.53601 0)
(0.102606 2.53638 0)
(9.9765 0.0153062 0)
(10.0123 0.0381467 0)
(9.98757 0.0616184 0)
(9.98764 0.0852212 0)
(9.98203 0.108997 0)
(9.97251 0.132692 0)
(9.96152 0.155934 0)
(9.94927 0.17877 0)
(9.93536 0.201604 0)
(9.91964 0.224754 0)
(9.90225 0.248174 0)
(9.8833 0.27159 0)
(9.86282 0.29476 0)
(9.84073 0.317645 0)
(9.81705 0.340383 0)
(9.79189 0.363162 0)
(9.76537 0.386091 0)
(9.73745 0.40916 0)
(9.70798 0.432311 0)
(9.67682 0.455529 0)
(9.64392 0.478862 0)
(9.6093 0.502346 0)
(9.57297 0.525939 0)
(9.53489 0.549538 0)
(9.49506 0.573066 0)
(9.45355 0.596556 0)
(9.41043 0.620143 0)
(9.36576 0.643987 0)
(9.31949 0.668159 0)
(9.2715 0.692607 0)
(9.2217 0.717209 0)
(9.17004 0.741891 0)
(9.11658 0.766708 0)
(9.06137 0.791803 0)
(9.00445 0.817302 0)
(8.94579 0.843234 0)
(8.88535 0.869541 0)
(8.82304 0.896151 0)
(8.7588 0.923038 0)
(8.69262 0.950223 0)
(8.62454 0.977755 0)
(8.55463 1.00569 0)
(8.48294 1.03404 0)
(8.40943 1.06281 0)
(8.33397 1.09197 0)
(8.25644 1.12147 0)
(8.17672 1.15131 0)
(8.09477 1.18148 0)
(8.01057 1.21202 0)
(7.92412 1.24296 0)
(7.83538 1.27428 0)
(7.74431 1.30599 0)
(7.65085 1.33812 0)
(7.55497 1.37072 0)
(7.45665 1.4038 0)
(7.35578 1.43728 0)
(7.25227 1.47114 0)
(7.14606 1.50541 0)
(7.0371 1.54017 0)
(6.92542 1.57542 0)
(6.81099 1.61108 0)
(6.69384 1.64707 0)
(6.57398 1.68342 0)
(6.45143 1.7201 0)
(6.32609 1.75699 0)
(6.1978 1.79396 0)
(6.06645 1.83095 0)
(5.93202 1.86807 0)
(5.79455 1.90538 0)
(5.654 1.94274 0)
(5.51023 1.97989 0)
(5.36307 2.01665 0)
(5.21244 2.05314 0)
(5.05838 2.0896 0)
(4.901 2.12619 0)
(4.74041 2.16275 0)
(4.57665 2.19894 0)
(4.40976 2.23439 0)
(4.23976 2.26892 0)
(4.06668 2.30252 0)
(3.89056 2.33525 0)
(3.71144 2.36718 0)
(3.52934 2.39834 0)
(3.3443 2.42867 0)
(3.15635 2.45812 0)
(2.96556 2.48661 0)
(2.77203 2.51407 0)
(2.57587 2.54043 0)
(2.37724 2.56566 0)
(2.17632 2.58971 0)
(1.97335 2.61257 0)
(1.76859 2.63421 0)
(1.56237 2.65465 0)
(1.355 2.67384 0)
(1.14687 2.6917 0)
(0.938281 2.70801 0)
(0.729561 2.72243 0)
(0.520838 2.73416 0)
(0.312381 2.74328 0)
(0.103735 2.74322 0)
(9.97221 0.0142896 0)
(10.0108 0.0410817 0)
(9.98661 0.0668783 0)
(9.98735 0.0920814 0)
(9.98273 0.117062 0)