/*--------------------------------*- C++ -*----------------------------------*\
| =========                 |                                                 |
| \\      /  F ield         | OpenFOAM: The Open Source CFD Toolbox           |
|  \\    /   O peration     | Version:  4.1                                   |
|   \\  /    A nd           | Web:      www.OpenFOAM.org                      |
|    \\/     M anipulation  |                                                 |
\*---------------------------------------------------------------------------*/
FoamFile
{
    version     2.0;
    format      ascii;
    class       volSymmTensorField;
    location    "0.2";
    object      UPrime2Mean;
}
// * * * * * * * * * * * * * * * * * * * * * * * * * * * * * * * * * * * * * //

dimensions      [0 2 -2 0 0 0 0];

internalField   nonuniform List<symmTensor> 
43750
(
(0.0410529 0.00278187 0 0.0099193 0 0)
(0.0223133 0.00280273 0 0.00327228 0 0)
(0.00880968 0.000814182 0 0.00138198 0 0)
(0.00413654 0.000320814 0 0.000780349 0 0)
(0.00322529 7.25089e-05 0 0.000510164 0 0)
(0.00315267 -4.98706e-05 0 0.000397875 0 0)
(0.00330512 -7.00098e-05 0 0.000370627 0 0)
(0.00350269 -6.49392e-05 0 0.000368971 0 0)
(0.00385364 -8.57883e-05 0 0.000363882 0 0)
(0.00444218 -0.000128906 0 0.000352389 0 0)
(0.00527225 -0.000172762 0 0.000338875 0 0)
(0.00629097 -0.000204248 0 0.000327672 0 0)
(0.00744564 -0.00022311 0 0.00032114 0 0)
(0.00872288 -0.000235976 0 0.000318503 0 0)
(0.0101339 -0.000247585 0 0.000317748 0 0)
(0.0116825 -0.000255701 0 0.000317662 0 0)
(0.0133566 -0.000254401 0 0.000318253 0 0)
(0.0151405 -0.000239886 0 0.000319854 0 0)
(0.0170109 -0.000214481 0 0.000322061 0 0)
(0.0189434 -0.000184524 0 0.000322685 0 0)
(0.0209232 -0.000151795 0 0.000319609 0 0)
(0.0229395 -0.000110607 0 0.00031465 0 0)
(0.0249769 -5.48943e-05 0 0.000311573 0 0)
(0.0270101 1.75668e-05 0 0.000311024 0 0)
(0.0290084 0.000103885 0 0.000310945 0 0)
(0.0309401 0.00019628 0 0.000309916 0 0)
(0.0327777 0.000284338 0 0.000309758 0 0)
(0.0345099 0.000357193 0 0.000312725 0 0)
(0.0361322 0.000412675 0 0.000315547 0 0)
(0.0376368 0.000466031 0 0.0003158 0 0)
(0.0389989 0.000539453 0 0.000318057 0 0)
(0.0401684 0.000642859 0 0.000323604 0 0)
(0.0410996 0.00076495 0 0.000329414 0 0)
(0.0417789 0.00087555 0 0.000336524 0 0)
(0.0422265 0.000947817 0 0.000341649 0 0)
(0.0424774 0.000988726 0 0.000337701 0 0)
(0.0425373 0.00103331 0 0.0003322 0 0)
(0.0423655 0.00111242 0 0.000337939 0 0)
(0.0419079 0.00123574 0 0.000350097 0 0)
(0.0411199 0.0013824 0 0.000361737 0 0)
(0.0400189 0.00149814 0 0.000377693 0 0)
(0.038702 0.00154252 0 0.000389856 0 0)
(0.0372667 0.00154847 0 0.00038739 0 0)
(0.0357215 0.0015856 0 0.000390962 0 0)
(0.0340053 0.00168053 0 0.000410365 0 0)
(0.0320449 0.00181571 0 0.000418598 0 0)
(0.029799 0.00195668 0 0.000417168 0 0)
(0.0272733 0.00205222 0 0.000435498 0 0)
(0.0245273 0.00206343 0 0.000470718 0 0)
(0.0216543 0.00199876 0 0.000505781 0 0)
(0.0187454 0.0018912 0 0.000543635 0 0)
(0.0158884 0.00175907 0 0.00059198 0 0)
(0.0131727 0.00159529 0 0.000650873 0 0)
(0.0107197 0.00137648 0 0.000718139 0 0)
(0.00869253 0.00107873 0 0.000789678 0 0)
(0.00729018 0.000701425 0 0.000858219 0 0)
(0.00670748 0.000270647 0 0.000926394 0 0)
(0.00711525 -0.000199816 0 0.0010116 0 0)
(0.00870614 -0.000737384 0 0.00112497 0 0)
(0.0117531 -0.00139192 0 0.00126518 0 0)
(0.0166331 -0.00221572 0 0.00143072 0 0)
(0.0238335 -0.00326861 0 0.00162258 0 0)
(0.0339822 -0.00460982 0 0.0018491 0 0)
(0.0478473 -0.00625354 0 0.00211948 0 0)
(0.0662488 -0.0081354 0 0.00238809 0 0)
(0.0899808 -0.0102039 0 0.0026232 0 0)
(0.119935 -0.0125901 0 0.00289708 0 0)
(0.157263 -0.0153187 0 0.00319811 0 0)
(0.20262 -0.0176392 0 0.00325714 0 0)
(0.254612 -0.0180627 0 0.00265945 0 0)
(0.309099 -0.0157548 0 0.00154105 0 0)
(0.361236 -0.0118905 0 0.000623248 0 0)
(0.408411 -0.00860964 0 0.000219656 0 0)
(0.450729 -0.00702454 0 0.000121391 0 0)
(0.489617 -0.00679689 0 0.000108279 0 0)
(0.526603 -0.00702975 0 0.000104642 0 0)
(0.562683 -0.00705217 0 9.52024e-05 0 0)
(0.598139 -0.00657629 0 7.69663e-05 0 0)
(0.632604 -0.00552559 0 5.22294e-05 0 0)
(0.665159 -0.00390464 0 2.69113e-05 0 0)
(0.694514 -0.00171993 0 8.62967e-06 0 0)
(0.719141 0.00102486 0 6.41544e-06 0 0)
(0.737375 0.00430753 0 3.08346e-05 0 0)
(0.747561 0.00806136 0 9.3348e-05 0 0)
(0.748229 0.0121426 0 0.000203937 0 0)
(0.738168 0.0163542 0 0.000369132 0 0)
(0.716601 0.0204809 0 0.000591511 0 0)
(0.683283 0.0242922 0 0.00086872 0 0)
(0.638606 0.0275676 0 0.00119402 0 0)
(0.583553 0.0301148 0 0.0015575 0 0)
(0.519725 0.0317822 0 0.00194748 0 0)
(0.449271 0.0324678 0 0.00235231 0 0)
(0.374762 0.0320914 0 0.00275742 0 0)
(0.299219 0.0306 0 0.00314373 0 0)
(0.225896 0.0279981 0 0.00349111 0 0)
(0.158171 0.0243761 0 0.00378552 0 0)
(0.0992511 0.019878 0 0.00401861 0 0)
(0.0521163 0.0147153 0 0.00419998 0 0)
(0.0190998 0.00906063 0 0.00434758 0 0)
(0.00213672 0.00303494 0 0.00436503 0 0)
(0.0436694 0.00149962 0 0.0131161 0 0)
(0.0192774 0.0033063 0 0.00419957 0 0)
(0.0083612 0.000907194 0 0.00171942 0 0)
(0.00385871 0.000665024 0 0.00109908 0 0)
(0.0031375 0.000401329 0 0.000910032 0 0)
(0.00329688 0.00013388 0 0.000842064 0 0)
(0.00368239 -7.36402e-05 0 0.000792105 0 0)
(0.00412711 -0.00023832 0 0.000739538 0 0)
(0.00475484 -0.000376524 0 0.000701862 0 0)
(0.00563765 -0.000498134 0 0.000687724 0 0)
(0.0067781 -0.000608299 0 0.000677629 0 0)
(0.00814502 -0.000705647 0 0.000657717 0 0)
(0.00971071 -0.000795684 0 0.00064073 0 0)
(0.0114604 -0.000892618 0 0.000631501 0 0)
(0.0133948 -0.0010035 0 0.000615183 0 0)
(0.0155288 -0.00111569 0 0.00059441 0 0)
(0.0178726 -0.00121432 0 0.000583411 0 0)
(0.020406 -0.00130496 0 0.000577101 0 0)
(0.0231074 -0.00139519 0 0.000566482 0 0)
(0.0259907 -0.00147475 0 0.000554953 0 0)
(0.0290831 -0.00153677 0 0.000545422 0 0)
(0.0323828 -0.00158711 0 0.000536488 0 0)
(0.0358728 -0.00162932 0 0.000526879 0 0)
(0.0395463 -0.00165958 0 0.000516389 0 0)
(0.0434055 -0.00167034 0 0.000506356 0 0)
(0.047447 -0.00165559 0 0.000496687 0 0)
(0.0516504 -0.00161619 0 0.000484526 0 0)
(0.0559765 -0.00155452 0 0.000468664 0 0)
(0.0603898 -0.00146854 0 0.000450892 0 0)
(0.0648694 -0.00135501 0 0.000432994 0 0)
(0.0694212 -0.00121435 0 0.000415595 0 0)
(0.0740829 -0.0010514 0 0.00039938 0 0)
(0.0788726 -0.000871617 0 0.000385483 0 0)
(0.0837631 -0.000676483 0 0.000374399 0 0)
(0.0886875 -0.00046264 0 0.000365314 0 0)
(0.0935757 -0.000221215 0 0.00035624 0 0)
(0.0983992 5.75941e-05 0 0.000344586 0 0)
(0.103191 0.000372557 0 0.000329608 0 0)
(0.108031 0.000705678 0 0.000315534 0 0)
(0.112958 0.00103706 0 0.000308155 0 0)
(0.117932 0.00136053 0 0.000307839 0 0)
(0.122847 0.00167708 0 0.000309798 0 0)
(0.127569 0.0019853 0 0.000309557 0 0)
(0.131997 0.00228738 0 0.000306283 0 0)
(0.136196 0.0026045 0 0.000303053 0 0)
(0.140379 0.00297735 0 0.000305195 0 0)
(0.144724 0.00343985 0 0.000315645 0 0)
(0.149227 0.00399389 0 0.000331584 0 0)
(0.153736 0.00462101 0 0.000349813 0 0)
(0.158068 0.00530278 0 0.000372739 0 0)
(0.162097 0.00602282 0 0.000405445 0 0)
(0.165774 0.006767 0 0.000450508 0 0)
(0.169128 0.00753251 0 0.000508339 0 0)
(0.172191 0.00832261 0 0.000579629 0 0)
(0.174911 0.00913471 0 0.00066536 0 0)
(0.177166 0.00995997 0 0.000765671 0 0)
(0.178789 0.0107955 0 0.000881686 0 0)
(0.179638 0.0116546 0 0.00101952 0 0)
(0.179639 0.0125587 0 0.0011893 0 0)
(0.178808 0.0135094 0 0.00139992 0 0)
(0.177261 0.0144844 0 0.00165733 0 0)
(0.175193 0.0154733 0 0.00196937 0 0)
(0.172742 0.0164926 0 0.00235141 0 0)
(0.169833 0.0175384 0 0.0028221 0 0)
(0.166143 0.0185334 0 0.00338814 0 0)
(0.161354 0.0193431 0 0.00403954 0 0)
(0.155372 0.0198352 0 0.0047569 0 0)
(0.148374 0.0199086 0 0.0054906 0 0)
(0.140466 0.0194496 0 0.00608536 0 0)
(0.131536 0.0183253 0 0.00625554 0 0)
(0.121559 0.0165132 0 0.00579191 0 0)
(0.110875 0.0142488 0 0.00480516 0 0)
(0.100174 0.0119981 0 0.00366852 0 0)
(0.0900469 0.0101571 0 0.00271383 0 0)
(0.0806308 0.00880575 0 0.00206974 0 0)
(0.0718059 0.00778062 0 0.00170201 0 0)
(0.0634876 0.00687152 0 0.00150877 0 0)
(0.0557278 0.00593552 0 0.00139237 0 0)
(0.0486911 0.00492113 0 0.00128445 0 0)
(0.0425688 0.00385097 0 0.00114615 0 0)
(0.0375121 0.00279221 0 0.00096303 0 0)
(0.0335992 0.0018299 0 0.000740905 0 0)
(0.0308298 0.00104953 0 0.000500852 0 0)
(0.0291229 0.000528563 0 0.000274894 0 0)
(0.0283314 0.000330198 0 0.000102705 0 0)
(0.0282537 0.000493495 0 2.95883e-05 0 0)
(0.0286359 0.00102767 0 0.000102035 0 0)
(0.0291885 0.00190587 0 0.000362271 0 0)
(0.0296154 0.00306637 0 0.000842984 0 0)
(0.0296386 0.0044161 0 0.00156344 0 0)
(0.0290242 0.00583838 0 0.00252739 0 0)
(0.0276036 0.00720111 0 0.00372355 0 0)
(0.0253192 0.00836685 0 0.00512407 0 0)
(0.0221837 0.00918483 0 0.0066775 0 0)
(0.0183132 0.00951483 0 0.00831477 0 0)
(0.0139343 0.0092374 0 0.00995533 0 0)
(0.00940813 0.00826516 0 0.0114962 0 0)
(0.00523979 0.0065809 0 0.0128315 0 0)
(0.00200445 0.00424824 0 0.0138197 0 0)
(0.000232422 0.00148713 0 0.0143325 0 0)
(0.0438924 0.0008093 0 0.0159174 0 0)
(0.0208115 0.00369683 0 0.0063174 0 0)
(0.0093126 0.00111972 0 0.00297973 0 0)
(0.00470635 0.000946135 0 0.0018645 0 0)
(0.00386955 0.000521921 0 0.00140408 0 0)
(0.00382318 5.11619e-06 0 0.00120888 0 0)
(0.00403066 -0.000349645 0 0.00115029 0 0)
(0.00435322 -0.000565602 0 0.00115729 0 0)
(0.00487386 -0.000752243 0 0.00118165 0 0)
(0.0056389 -0.000975168 0 0.00120144 0 0)
(0.00664583 -0.00123322 0 0.00121213 0 0)
(0.00786688 -0.00149261 0 0.00122208 0 0)
(0.00927659 -0.00172757 0 0.00123862 0 0)
(0.0108686 -0.0019367 0 0.00125891 0 0)
(0.0126335 -0.00213664 0 0.00127154 0 0)
(0.0145419 -0.00235002 0 0.00125768 0 0)
(0.0165802 -0.00257862 0 0.00120643 0 0)
(0.0187614 -0.00279174 0 0.0011458 0 0)
(0.0210903 -0.00296796 0 0.00111544 0 0)
(0.0235531 -0.00311957 0 0.00111106 0 0)
(0.026132 -0.00325954 0 0.00110857 0 0)
(0.0288117 -0.00338087 0 0.00110238 0 0)
(0.0315694 -0.00347329 0 0.00109063 0 0)
(0.0343837 -0.00353839 0 0.00107314 0 0)
(0.0372469 -0.0035863 0 0.00105769 0 0)
(0.0401693 -0.00361977 0 0.00104619 0 0)
(0.0431788 -0.00362987 0 0.00103397 0 0)
(0.0462972 -0.00361336 0 0.00101624 0 0)
(0.0495156 -0.00358364 0 0.000992142 0 0)
(0.0528063 -0.00355394 0 0.000967581 0 0)
(0.0561343 -0.00352257 0 0.000946374 0 0)
(0.0594703 -0.0034788 0 0.000926204 0 0)
(0.0627883 -0.00340825 0 0.000904627 0 0)
(0.0660647 -0.00329828 0 0.000879362 0 0)
(0.0692951 -0.00315045 0 0.000849902 0 0)
(0.0724873 -0.00298386 0 0.000821033 0 0)
(0.0756528 -0.0028183 0 0.000795228 0 0)
(0.0787949 -0.00265581 0 0.000768562 0 0)
(0.081903 -0.00248132 0 0.000739455 0 0)
(0.0849606 -0.0022762 0 0.000710776 0 0)
(0.0879465 -0.00202683 0 0.000682614 0 0)
(0.0908342 -0.00172538 0 0.000650789 0 0)
(0.0935949 -0.00137091 0 0.000612443 0 0)
(0.096186 -0.000977615 0 0.000572356 0 0)
(0.0985752 -0.000582631 0 0.000540805 0 0)
(0.100778 -0.00023055 0 0.000518366 0 0)
(0.102877 7.3718e-05 0 0.000494394 0 0)
(0.105005 0.000384168 0 0.00046838 0 0)
(0.107256 0.000769573 0 0.00044805 0 0)
(0.109645 0.00125254 0 0.000431211 0 0)
(0.112134 0.00180433 0 0.000415885 0 0)
(0.114697 0.00238067 0 0.000408245 0 0)
(0.117351 0.00296054 0 0.000409025 0 0)
(0.120156 0.00356264 0 0.000415471 0 0)
(0.123165 0.00422516 0 0.000430626 0 0)
(0.126376 0.00498108 0 0.000459702 0 0)
(0.129751 0.00585248 0 0.00050478 0 0)
(0.133224 0.00685623 0 0.000567526 0 0)
(0.13677 0.00798841 0 0.000658189 0 0)
(0.140381 0.00920815 0 0.000796213 0 0)
(0.144096 0.0104601 0 0.000987063 0 0)
(0.147974 0.0117313 0 0.00121742 0 0)
(0.152119 0.013081 0 0.00149334 0 0)
(0.156667 0.0145891 0 0.00184777 0 0)
(0.161731 0.0162813 0 0.00230759 0 0)
(0.167344 0.0181149 0 0.0028798 0 0)
(0.173459 0.02 0 0.0035484 0 0)
(0.179944 0.0217881 0 0.00424385 0 0)
(0.186559 0.0232481 0 0.00479336 0 0)
(0.192834 0.024111 0 0.00495762 0 0)
(0.198135 0.0242314 0 0.00463849 0 0)
(0.201982 0.0237532 0 0.00400826 0 0)
(0.204294 0.0230436 0 0.00335306 0 0)
(0.205245 0.022434 0 0.00285605 0 0)
(0.205072 0.0221021 0 0.00257005 0 0)
(0.203924 0.0220776 0 0.00247374 0 0)
(0.201805 0.0222515 0 0.00250367 0 0)
(0.198628 0.022411 0 0.00257903 0 0)
(0.194338 0.0223286 0 0.0026277 0 0)
(0.188924 0.0218264 0 0.00259511 0 0)
(0.18241 0.0208068 0 0.00244991 0 0)
(0.174852 0.0192507 0 0.00218772 0 0)
(0.166307 0.0171943 0 0.00182806 0 0)
(0.156816 0.0147038 0 0.00140694 0 0)
(0.146435 0.0118609 0 0.000970256 0 0)
(0.135238 0.00876835 0 0.000572317 0 0)
(0.123333 0.00554795 0 0.000271506 0 0)
(0.110862 0.00233633 0 0.000124881 0 0)
(0.098 -0.000724257 0 0.000182317 0 0)
(0.0849597 -0.00349414 0 0.000481572 0 0)
(0.07198 -0.00584641 0 0.00104516 0 0)
(0.0593262 -0.00767426 0 0.00187915 0 0)
(0.0472942 -0.00890049 0 0.00297388 0 0)
(0.0361679 -0.00948332 0 0.00431192 0 0)
(0.0262178 -0.00940948 0 0.00586032 0 0)
(0.0176751 -0.00870007 0 0.00756214 0 0)
(0.0107259 -0.00741662 0 0.00931685 0 0)
(0.00547027 -0.00565362 0 0.0109742 0 0)
(0.00197162 -0.00354012 0 0.0122888 0 0)
(0.000213909 -0.00118974 0 0.0129839 0 0)
(0.0430015 -0.000949563 0 0.0149013 0 0)
(0.019755 0.00291385 0 0.00633304 0 0)
(0.00786159 0.000194839 0 0.00309882 0 0)
(0.00400867 0.000557206 0 0.00215189 0 0)
(0.00350049 0.000380492 0 0.00189683 0 0)
(0.00362884 -6.15971e-05 0 0.00181474 0 0)
(0.00389433 -0.000470209 0 0.00175874 0 0)
(0.00420745 -0.000799658 0 0.00172787 0 0)
(0.00471127 -0.00110355 0 0.00174135 0 0)
(0.00545442 -0.00141543 0 0.00178357 0 0)
(0.00640172 -0.00173736 0 0.00182919 0 0)
(0.00751342 -0.00206131 0 0.00186798 0 0)
(0.00878036 -0.00238119 0 0.00189843 0 0)
(0.0102128 -0.00269077 0 0.0019206 0 0)
(0.0118199 -0.00297588 0 0.00193886 0 0)
(0.0136032 -0.00322617 0 0.00195401 0 0)
(0.015559 -0.00345291 0 0.00195708 0 0)
(0.0176754 -0.0036762 0 0.0019459 0 0)
(0.0199408 -0.00390125 0 0.00192923 0 0)
(0.0223447 -0.00411736 0 0.00191351 0 0)
(0.0248746 -0.00431269 0 0.00189938 0 0)
(0.0275125 -0.00448202 0 0.00188561 0 0)
(0.0302445 -0.00462579 0 0.00187052 0 0)
(0.0330574 -0.00474576 0 0.00185272 0 0)
(0.0359421 -0.00484453 0 0.00183178 0 0)
(0.0388917 -0.00492538 0 0.0018078 0 0)
(0.0419014 -0.00498998 0 0.00177985 0 0)
(0.044969 -0.0050338 0 0.00174708 0 0)
(0.0480793 -0.00504616 0 0.00171207 0 0)
(0.0512041 -0.00501822 0 0.00167557 0 0)
(0.0543164 -0.00494412 0 0.00162697 0 0)
(0.0573924 -0.0048193 0 0.00155515 0 0)
(0.0604186 -0.00464981 0 0.0014689 0 0)
(0.0633939 -0.00445393 0 0.00138986 0 0)
(0.0663088 -0.00424497 0 0.0013285 0 0)
(0.0691427 -0.00402263 0 0.00128008 0 0)
(0.0718516 -0.00377731 0 0.00123636 0 0)
(0.0743965 -0.00349873 0 0.00119218 0 0)
(0.0767633 -0.00318257 0 0.00114512 0 0)
(0.0789785 -0.00283673 0 0.00109604 0 0)
(0.0810754 -0.00247439 0 0.00104826 0 0)
(0.0830771 -0.00210069 0 0.00100365 0 0)
(0.0849703 -0.00170922 0 0.000961498 0 0)
(0.0867262 -0.00129366 0 0.000920963 0 0)
(0.0883125 -0.00086164 0 0.000883754 0 0)
(0.0896911 -0.000435353 0 0.000852336 0 0)
(0.0908403 -3.42788e-05 0 0.000824444 0 0)
(0.0917699 0.00034886 0 0.000796423 0 0)
(0.0925277 0.000751017 0 0.000769987 0 0)
(0.0931645 0.00120662 0 0.000746372 0 0)
(0.0936961 0.00171493 0 0.000723841 0 0)
(0.0941058 0.00224047 0 0.00070566 0 0)
(0.0943696 0.00273886 0 0.000694495 0 0)
(0.0944892 0.00318937 0 0.000682758 0 0)
(0.0945167 0.00361569 0 0.000665174 0 0)
(0.0945196 0.00407604 0 0.000651486 0 0)
(0.0945662 0.00462743 0 0.000654144 0 0)
(0.0947052 0.00529216 0 0.000674361 0 0)
(0.09497 0.00605113 0 0.000710344 0 0)
(0.0953797 0.00686329 0 0.000769725 0 0)
(0.0959275 0.00768779 0 0.000863505 0 0)
(0.0966144 0.00849454 0 0.000994234 0 0)
(0.0975239 0.00926957 0 0.00115514 0 0)
(0.0988613 0.0100259 0 0.00133767 0 0)
(0.100871 0.0108075 0 0.00153987 0 0)
(0.103706 0.0116651 0 0.00176951 0 0)
(0.107397 0.0126236 0 0.00203704 0 0)
(0.111889 0.0136642 0 0.00233847 0 0)
(0.11707 0.014716 0 0.00263572 0 0)
(0.122738 0.0156552 0 0.00285059 0 0)
(0.128593 0.0163473 0 0.00290327 0 0)
(0.134329 0.0167226 0 0.00277284 0 0)
(0.139739 0.0168113 0 0.0025078 0 0)
(0.144767 0.0167679 0 0.00221845 0 0)
(0.149452 0.0168113 0 0.0020197 0 0)
(0.153807 0.017108 0 0.00196063 0 0)
(0.157835 0.0176918 0 0.00201678 0 0)
(0.161534 0.0184549 0 0.00213236 0 0)
(0.164858 0.0191955 0 0.00225081 0 0)
(0.167716 0.0197005 0 0.00232374 0 0)
(0.169978 0.0198121 0 0.00231559 0 0)
(0.171466 0.0194442 0 0.00220952 0 0)
(0.171999 0.0185714 0 0.00200862 0 0)
(0.171357 0.0172017 0 0.00173052 0 0)
(0.169328 0.0153714 0 0.00140268 0 0)
(0.165698 0.0131344 0 0.00105738 0 0)
(0.160283 0.0105663 0 0.000729242 0 0)
(0.152934 0.00776128 0 0.000452436 0 0)
(0.143571 0.0048324 0 0.000258376 0 0)
(0.132202 0.00190563 0 0.000173372 0 0)
(0.118945 -0.000886569 0 0.000217446 0 0)
(0.104048 -0.00341335 0 0.000404831 0 0)
(0.0879088 -0.00554761 0 0.000745062 0 0)
(0.0710753 -0.00717673 0 0.0012482 0 0)
(0.0542867 -0.00818877 0 0.00192168 0 0)
(0.0383754 -0.00847155 0 0.00276091 0 0)
(0.0242623 -0.00792824 0 0.00372651 0 0)
(0.0127823 -0.00651963 0 0.00472817 0 0)
(0.0047039 -0.00430038 0 0.00557847 0 0)
(0.000520661 -0.00149688 0 0.00607583 0 0)
(0.0429436 -0.000817536 0 0.0151169 0 0)
(0.018855 0.00345905 0 0.006463 0 0)
(0.00776197 -6.18109e-05 0 0.00348903 0 0)
(0.00342363 0.000538412 0 0.00263567 0 0)
(0.00287981 0.000307936 0 0.00233937 0 0)
(0.0030602 -0.000309956 0 0.0022289 0 0)
(0.0033978 -0.000847925 0 0.00221635 0 0)
(0.00375317 -0.00126007 0 0.00226369 0 0)
(0.00423847 -0.00162128 0 0.00235301 0 0)
(0.00495252 -0.00199358 0 0.00245504 0 0)
(0.00591621 -0.00240167 0 0.00253712 0 0)
(0.00709951 -0.00282981 0 0.00259094 0 0)
(0.00847169 -0.00324907 0 0.00263181 0 0)
(0.0100168 -0.00364204 0 0.0026758 0 0)
(0.0117322 -0.00400955 0 0.00272137 0 0)
(0.013621 -0.00435898 0 0.00275593 0 0)
(0.0156802 -0.00469693 0 0.00276897 0 0)
(0.0178967 -0.0050268 0 0.00276351 0 0)
(0.0202497 -0.005342 0 0.00275508 0 0)
(0.0227256 -0.00563063 0 0.0027508 0 0)
(0.025318 -0.00588581 0 0.00274543 0 0)
(0.0280188 -0.0061078 0 0.00273161 0 0)
(0.0308123 -0.00629694 0 0.00270157 0 0)
(0.0336735 -0.006451 0 0.00265563 0 0)
(0.0365697 -0.00657116 0 0.0026076 0 0)
(0.0394764 -0.00666441 0 0.00256786 0 0)
(0.0423781 -0.00673299 0 0.00253267 0 0)
(0.0452739 -0.00676997 0 0.0024949 0 0)
(0.0481701 -0.00676556 0 0.00245067 0 0)
(0.0510723 -0.00671814 0 0.00239689 0 0)
(0.0539847 -0.00663646 0 0.0023341 0 0)
(0.0568949 -0.00652952 0 0.00226851 0 0)
(0.0597751 -0.0063966 0 0.00220448 0 0)
(0.0625926 -0.00622707 0 0.00214 0 0)
(0.065315 -0.00600624 0 0.0020694 0 0)
(0.0679216 -0.00572764 0 0.00198884 0 0)
(0.0704091 -0.00540517 0 0.00190435 0 0)
(0.0727823 -0.00506911 0 0.00182925 0 0)
(0.075043 -0.00474315 0 0.0017674 0 0)
(0.0771846 -0.00442511 0 0.00171097 0 0)
(0.0791967 -0.0040891 0 0.00165451 0 0)
(0.0810772 -0.0037036 0 0.0015957 0 0)
(0.0828422 -0.00325333 0 0.00152807 0 0)
(0.0844963 -0.00274896 0 0.00144869 0 0)
(0.0860232 -0.00222073 0 0.00136981 0 0)
(0.0873785 -0.00169957 0 0.00130702 0 0)
(0.0885018 -0.0012042 0 0.00125949 0 0)
(0.0893555 -0.00072901 0 0.00121635 0 0)
(0.0899402 -0.000240002 0 0.00117455 0 0)
(0.0902911 0.000299732 0 0.00113499 0 0)
(0.0904411 0.000896629 0 0.00109584 0 0)
(0.0904046 0.00152475 0 0.00105994 0 0)
(0.090159 0.00214996 0 0.00103374 0 0)
(0.0896555 0.00275177 0 0.00101772 0 0)
(0.0888461 0.00333055 0 0.00100844 0 0)
(0.0877269 0.00390843 0 0.00100577 0 0)
(0.0863962 0.00452258 0 0.00101277 0 0)
(0.0850272 0.00519888 0 0.00103076 0 0)
(0.0837761 0.00592633 0 0.00106103 0 0)
(0.0826912 0.00666375 0 0.0011119 0 0)
(0.0817325 0.00736745 0 0.00119499 0 0)
(0.0808428 0.00800304 0 0.001311 0 0)
(0.0800025 0.00854224 0 0.00144082 0 0)
(0.0792661 0.00897444 0 0.00155443 0 0)
(0.0787443 0.00932848 0 0.00163883 0 0)
(0.078574 0.00966974 0 0.00171783 0 0)
(0.0788471 0.010054 0 0.00182844 0 0)
(0.0795996 0.0104837 0 0.00197851 0 0)
(0.0807975 0.0109022 0 0.00213248 0 0)
(0.0823688 0.0112276 0 0.00222589 0 0)
(0.0842171 0.0113968 0 0.00220157 0 0)
(0.0862526 0.0114033 0 0.00205625 0 0)
(0.0884009 0.0113166 0 0.00185894 0 0)
(0.0905873 0.0112555 0 0.00170134 0 0)
(0.0927582 0.0113404 0 0.00163492 0 0)
(0.0949016 0.0116487 0 0.00165646 0 0)
(0.0970746 0.0121794 0 0.00173333 0 0)
(0.0993689 0.0128479 0 0.00183184 0 0)
(0.101845 0.0135173 0 0.00192451 0 0)
(0.104497 0.0140515 0 0.00198623 0 0)
(0.107258 0.0143518 0 0.00199515 0 0)
(0.109989 0.0143635 0 0.00193918 0 0)
(0.11253 0.014069 0 0.00181894 0 0)
(0.11468 0.0134723 0 0.00164524 0 0)
(0.116222 0.0125926 0 0.00143487 0 0)
(0.116913 0.011459 0 0.00120686 0 0)
(0.116504 0.010112 0 0.000980444 0 0)
(0.114735 0.00860447 0 0.000773342 0 0)
(0.111361 0.00700064 0 0.000600253 0 0)
(0.106181 0.00537113 0 0.00047139 0 0)
(0.0990582 0.00378521 0 0.000392176 0 0)
(0.0899561 0.00230273 0 0.000363842 0 0)
(0.0789745 0.00096937 0 0.00038572 0 0)
(0.0663851 -0.000176459 0 0.000457071 0 0)
(0.0527019 -0.00110328 0 0.000579946 0 0)
(0.0386587 -0.00177031 0 0.000759836 0 0)
(0.0252782 -0.00210392 0 0.000998384 0 0)
(0.0136969 -0.0020225 0 0.0012786 0 0)
(0.00514592 -0.00146954 0 0.00154585 0 0)
(0.000577299 -0.000541991 0 0.00170523 0 0)
(0.0420067 -0.00181393 0 0.0163947 0 0)
(0.0191573 0.00249819 0 0.0073213 0 0)
(0.00761443 -0.00105947 0 0.00423234 0 0)
(0.00329132 -0.000113785 0 0.00334147 0 0)
(0.0027603 -0.000147852 0 0.00309258 0 0)
(0.00297921 -0.000707828 0 0.00314864 0 0)
(0.00331078 -0.00127223 0 0.00329295 0 0)
(0.00366386 -0.00175235 0 0.0034238 0 0)
(0.00421133 -0.00219952 0 0.00354264 0 0)
(0.00502609 -0.00265971 0 0.00366374 0 0)
(0.00607965 -0.00314851 0 0.00378349 0 0)
(0.00730042 -0.00365554 0 0.00389347 0 0)
(0.00863901 -0.00415906 0 0.00399294 0 0)
(0.0101049 -0.0046411 0 0.0040821 0 0)
(0.0117429 -0.00509574 0 0.0041571 0 0)
(0.013575 -0.00552299 0 0.00421338 0 0)
(0.015589 -0.00592339 0 0.00424923 0 0)
(0.0177615 -0.00630094 0 0.00426699 0 0)
(0.02007 -0.00666044 0 0.00427151 0 0)
(0.022494 -0.00699701 0 0.00426452 0 0)
(0.0250156 -0.0072956 0 0.00424306 0 0)
(0.0276282 -0.00754202 0 0.00420229 0 0)
(0.0303371 -0.00773424 0 0.00414102 0 0)
(0.0331557 -0.0078869 0 0.00406646 0 0)
(0.0360747 -0.00801606 0 0.00399116 0 0)
(0.0390591 -0.00812542 0 0.00392388 0 0)
(0.0420707 -0.0082112 0 0.00386298 0 0)
(0.0450851 -0.00827214 0 0.00379956 0 0)
(0.0480898 -0.00830423 0 0.00372855 0 0)
(0.0510804 -0.00829108 0 0.00365182 0 0)
(0.0540582 -0.00821187 0 0.00356645 0 0)
(0.057005 -0.00805417 0 0.00345878 0 0)
(0.0598861 -0.00781804 0 0.00332134 0 0)
(0.0626663 -0.00751634 0 0.00316855 0 0)
(0.0653315 -0.00717467 0 0.00302496 0 0)
(0.0679034 -0.00681919 0 0.00290303 0 0)
(0.0704157 -0.00645748 0 0.00279871 0 0)
(0.0728796 -0.00607843 0 0.00270245 0 0)
(0.0752668 -0.0056675 0 0.0026072 0 0)
(0.0775339 -0.00522083 0 0.00251086 0 0)
(0.0796409 -0.00474705 0 0.00241669 0 0)
(0.0815643 -0.00426013 0 0.00232878 0 0)
(0.0833121 -0.00376366 0 0.00224624 0 0)
(0.0849171 -0.00324341 0 0.00216555 0 0)
(0.0863945 -0.00268039 0 0.0020835 0 0)
(0.0877309 -0.00207365 0 0.0019996 0 0)
(0.0888774 -0.00143908 0 0.00191899 0 0)
(0.0897793 -0.000795985 0 0.00184704 0 0)
(0.0904015 -0.000149005 0 0.00178268 0 0)
(0.0907573 0.000514767 0 0.0017229 0 0)
(0.0908959 0.00120727 0 0.00166586 0 0)
(0.0908595 0.00192215 0 0.00161251 0 0)
(0.0906652 0.00264445 0 0.00156606 0 0)
(0.090291 0.0033662 0 0.00152922 0 0)
(0.0896962 0.00408359 0 0.00150385 0 0)
(0.0888533 0.00478052 0 0.00149126 0 0)
(0.0877843 0.00543229 0 0.00148948 0 0)
(0.0865831 0.00603455 0 0.00149388 0 0)
(0.0853775 0.0066214 0 0.00150719 0 0)
(0.0842417 0.00723519 0 0.00154046 0 0)
(0.0831717 0.00788586 0 0.00160186 0 0)
(0.0820993 0.00854334 0 0.00169365 0 0)
(0.0809527 0.009153 0 0.00181244 0 0)
(0.0796886 0.00965253 0 0.00193746 0 0)
(0.0783033 0.00999908 0 0.00203257 0 0)
(0.0768608 0.0102033 0 0.00208077 0 0)
(0.0754845 0.0103277 0 0.00210478 0 0)
(0.0742749 0.01043 0 0.0021352 0 0)
(0.0732653 0.0105137 0 0.00217245 0 0)
(0.072403 0.0105325 0 0.00218689 0 0)
(0.0715895 0.0104353 0 0.00214553 0 0)
(0.0707435 0.0102147 0 0.00204605 0 0)
(0.0698098 0.0099265 0 0.00192822 0 0)
(0.0687877 0.00967072 0 0.00184359 0 0)
(0.067713 0.00954194 0 0.00181437 0 0)
(0.0666836 0.00958414 0 0.0018269 0 0)
(0.065816 0.00977027 0 0.00185592 0 0)
(0.0652367 0.0100245 0 0.0018835 0 0)
(0.0650224 0.0102594 0 0.00189833 0 0)
(0.0651892 0.0104056 0 0.00188977 0 0)
(0.0656935 0.0104212 0 0.00184827 0 0)
(0.066457 0.0102881 0 0.00176934 0 0)
(0.0673672 0.0100052 0 0.00165576 0 0)
(0.0683115 0.00958318 0 0.00151607 0 0)
(0.0691543 0.00904078 0 0.0013623 0 0)
(0.0697552 0.00840386 0 0.00120736 0 0)
(0.0699559 0.00770535 0 0.00106353 0 0)
(0.0695804 0.0069852 0 0.000941244 0 0)
(0.0684408 0.00628786 0 0.00084817 0 0)
(0.0663454 0.00565662 0 0.00078892 0 0)
(0.0631132 0.00512423 0 0.000765138 0 0)
(0.0585915 0.00470331 0 0.000776829 0 0)
(0.0526982 0.00437521 0 0.000822127 0 0)
(0.0454531 0.00409041 0 0.000898527 0 0)
(0.0370564 0.0037751 0 0.00100107 0 0)
(0.0279063 0.00334932 0 0.00112154 0 0)
(0.0187027 0.00277079 0 0.00124992 0 0)
(0.0103492 0.00204257 0 0.00136895 0 0)
(0.00395152 0.00124239 0 0.00147386 0 0)
(0.000446789 0.000404484 0 0.00150662 0 0)
(0.0403064 -0.00209592 0 0.014992 0 0)
(0.0192858 0.00406077 0 0.00707038 0 0)
(0.00730826 -0.000612144 0 0.00465648 0 0)
(0.00309227 0.00032369 0 0.00406451 0 0)
(0.00248173 0.000137741 0 0.00402818 0 0)
(0.00261984 -0.000602561 0 0.00420118 0 0)
(0.00300105 -0.00126757 0 0.00441887 0 0)
(0.00344794 -0.00180528 0 0.00463065 0 0)
(0.00402249 -0.00231579 0 0.0048442 0 0)
(0.0047927 -0.00286107 0 0.00505891 0 0)
(0.00577451 -0.00343968 0 0.00525216 0 0)
(0.00694648 -0.00402273 0 0.00541481 0 0)
(0.00828725 -0.00458997 0 0.00555549 0 0)
(0.00978813 -0.0051425 0 0.00566728 0 0)
(0.0114474 -0.005684 0 0.00572749 0 0)
(0.0132689 -0.00620619 0 0.00573765 0 0)
(0.0152553 -0.00669769 0 0.00573009 0 0)
(0.0174039 -0.00715463 0 0.00572847 0 0)
(0.0197028 -0.00757597 0 0.0057275 0 0)
(0.0221289 -0.00796061 0 0.0057112 0 0)
(0.0246534 -0.00830864 0 0.00567038 0 0)
(0.0272553 -0.0086203 0 0.00561098 0 0)
(0.0299238 -0.00889552 0 0.00554891 0 0)
(0.0326561 -0.00913283 0 0.00549084 0 0)
(0.0354533 -0.00932484 0 0.00543111 0 0)
(0.0383133 -0.0094614 0 0.0053628 0 0)
(0.0412209 -0.0095399 0 0.00528013 0 0)
(0.0441498 -0.00956703 0 0.00518008 0 0)
(0.0470722 -0.0095499 0 0.00506635 0 0)
(0.0499611 -0.00948901 0 0.00494485 0 0)
(0.0528075 -0.00937939 0 0.004817 0 0)
(0.0556205 -0.00921367 0 0.00467961 0 0)
(0.0584154 -0.00899052 0 0.00452965 0 0)
(0.0611931 -0.00871858 0 0.0043704 0 0)
(0.0639274 -0.00840849 0 0.00421189 0 0)
(0.0665853 -0.00806793 0 0.00406381 0 0)
(0.0691404 -0.00770115 0 0.00392873 0 0)
(0.0715791 -0.00730866 0 0.00380264 0 0)
(0.0739095 -0.00688638 0 0.00367998 0 0)
(0.0761365 -0.00642531 0 0.00355687 0 0)
(0.0782504 -0.00591842 0 0.00343078 0 0)
(0.0802118 -0.00536174 0 0.00329976 0 0)
(0.0819648 -0.00475487 0 0.00316496 0 0)
(0.0834565 -0.00410157 0 0.00303102 0 0)
(0.0846767 -0.00341233 0 0.00290268 0 0)
(0.0856733 -0.00269988 0 0.00278195 0 0)
(0.0864988 -0.001972 0 0.00266858 0 0)
(0.0871682 -0.00123114 0 0.0025621 0 0)
(0.0876494 -0.000475525 0 0.00246233 0 0)
(0.0879111 0.000295911 0 0.00236968 0 0)
(0.0879552 0.00107709 0 0.0022857 0 0)
(0.0878141 0.00185705 0 0.00221229 0 0)
(0.0875364 0.00262894 0 0.00214981 0 0)
(0.0871582 0.0033995 0 0.00209741 0 0)
(0.0867192 0.0041801 0 0.00205534 0 0)
(0.0862122 0.00496784 0 0.00202603 0 0)
(0.0856056 0.00574185 0 0.0020124 0 0)
(0.0848382 0.00647793 0 0.00201335 0 0)
(0.0838839 0.00717042 0 0.00202518 0 0)
(0.0827679 0.00783933 0 0.00204988 0 0)
(0.0815555 0.00851092 0 0.00209403 0 0)
(0.0803029 0.00918702 0 0.00216214 0 0)
(0.0790293 0.00983365 0 0.00225461 0 0)
(0.0777144 0.0103954 0 0.00236254 0 0)
(0.076329 0.0108222 0 0.00246194 0 0)
(0.0748601 0.0110957 0 0.0025265 0 0)
(0.0733191 0.0112416 0 0.00255324 0 0)
(0.0717411 0.0113099 0 0.00256318 0 0)
(0.0701434 0.0113301 0 0.00257234 0 0)
(0.0684928 0.011289 0 0.00257475 0 0)
(0.0667097 0.0111495 0 0.00255307 0 0)
(0.0647094 0.0108953 0 0.00250097 0 0)
(0.0624496 0.0105616 0 0.00243481 0 0)
(0.0599561 0.0102257 0 0.00238161 0 0)
(0.0573252 0.00996105 0 0.00235286 0 0)
(0.0546895 0.0097909 0 0.00233837 0 0)
(0.0521975 0.00968356 0 0.00232137 0 0)
(0.0499663 0.00958186 0 0.00229096 0 0)
(0.0480645 0.00943655 0 0.00224111 0 0)
(0.046507 0.00921779 0 0.00216653 0 0)
(0.0452652 0.00892012 0 0.00206645 0 0)
(0.0442819 0.00854562 0 0.00194224 0 0)
(0.0434953 0.00810451 0 0.00179966 0 0)
(0.0428398 0.00761397 0 0.00164862 0 0)
(0.0422496 0.00709248 0 0.00149909 0 0)
(0.0416571 0.00656555 0 0.00136215 0 0)
(0.0409878 0.00606339 0 0.00124819 0 0)
(0.0401624 0.00561918 0 0.0011658 0 0)
(0.0390917 0.00526873 0 0.00112287 0 0)
(0.0376726 0.00504327 0 0.00112649 0 0)
(0.0357937 0.00496263 0 0.00118452 0 0)
(0.0333399 0.00502703 0 0.00130795 0 0)
(0.0302121 0.00520565 0 0.00151116 0 0)
(0.0263494 0.00542344 0 0.00180835 0 0)
(0.0217849 0.00556014 0 0.00220511 0 0)
(0.0166652 0.00546188 0 0.00268745 0 0)
(0.0113512 0.00498682 0 0.00321459 0 0)
(0.00637214 0.00403603 0 0.0037094 0 0)
(0.00246161 0.00264626 0 0.00411548 0 0)
(0.000279274 0.000906991 0 0.00428137 0 0)
(0.0441474 -0.00275596 0 0.0155283 0 0)
(0.019215 0.00366311 0 0.00763618 0 0)
(0.00870453 -0.00167698 0 0.00518497 0 0)
(0.00433341 -0.000385671 0 0.00465418 0 0)
(0.00356176 -0.000438188 0 0.00474263 0 0)
(0.00377431 -0.00118354 0 0.00506624 0 0)
(0.00423437 -0.00191142 0 0.00542912 0 0)
(0.00472973 -0.00254728 0 0.00578412 0 0)
(0.0053707 -0.00318791 0 0.00612686 0 0)
(0.00622695 -0.00388209 0 0.00643666 0 0)
(0.00731777 -0.0046163 0 0.00669234 0 0)
(0.00863 -0.00534935 0 0.00689836 0 0)
(0.0101381 -0.00605391 0 0.00707591 0 0)
(0.01183 -0.00672146 0 0.00723746 0 0)
(0.0137121 -0.00735557 0 0.0073746 0 0)
(0.0157798 -0.00796759 0 0.00747091 0 0)
(0.0180167 -0.00856301 0 0.00752619 0 0)
(0.020409 -0.00913127 0 0.00755756 0 0)
(0.0229471 -0.00965759 0 0.00757619 0 0)
(0.0256188 -0.0101349 0 0.00757858 0 0)
(0.0284039 -0.0105647 0 0.00755 0 0)
(0.0312828 -0.01095 0 0.00747374 0 0)