# vtk DataFile Version 2.0
sampleSurface
ASCII
DATASET POLYDATA
POINTS 652 double
0 0 0
0.02 0 0
0.02 0 0.1
0 0 0.1
0.04 0 0
0.04 0 0.1
0.06 0 0
0.06 0 0.1
0.08 0 0
0.08 0 0.1
0.1 0 0
0.1 0 0.1
0.12 0 0
0.12 0 0.1
0.14 0 0
0.14 0 0.1
0.16 0 0
0.16 0 0.1
0.18 0 0
0.18 0 0.1
0.2 0 0
0.2 0 0.1
0.22 0 0
0.22 0 0.1
0.24 0 0
0.24 0 0.1
0.26 0 0
0.26 0 0.1
0.28 0 0
0.28 0 0.1
0.3 0 0
0.3 0 0.1
0.32 0 0
0.32 0 0.1
0.34 0 0
0.34 0 0.1
0.36 0 0
0.36 0 0.1
0.38 0 0
0.38 0 0.1
0.4 0 0
0.4 0 0.1
0.42 0 0
0.42 0 0.1
0.44 0 0
0.44 0 0.1
0.46 0 0
0.46 0 0.1
0.48 0 0
0.48 0 0.1
0.5 0 0
0.5 0 0.1
0.52 0 0
0.52 0 0.1
0.54 0 0
0.54 0 0.1
0.56 0 0
0.56 0 0.1
0.58 0 0
0.58 0 0.1
0.6 0 0
0.6 0 0.1
0.62 0 0
0.62 0 0.1
0.64 0 0
0.64 0 0.1
0.66 0 0
0.66 0 0.1
0.68 0 0
0.68 0 0.1
0.7 0 0
0.7 0 0.1
0.72 0 0
0.72 0 0.1
0.74 0 0
0.74 0 0.1
0.76 0 0
0.76 0 0.1
0.78 0 0
0.78 0 0.1
0.8 0 0
0.8 0 0.1
0.82 0 0
0.82 0 0.1
0.84 0 0
0.84 0 0.1
0.86 0 0
0.86 0 0.1
0.88 0 0
0.88 0 0.1
0.9 0 0
0.9 0 0.1
0.92 0 0
0.92 0 0.1
0.94 0 0
0.94 0 0.1
0.96 0 0
0.96 0 0.1
0.98 0 0
0.98 0 0.1
1 0 0
1 0 0.1
1.02 0 0
1.02 0 0.1
1.04 0 0
1.04 0 0.1
1.06 0 0
1.06 0 0.1
1.08 0 0
1.08 0 0.1
1.1 0 0
1.1 0 0.1
1.12 0 0
1.12 0 0.1
1.14 0 0
1.14 0 0.1
1.16 0 0
1.16 0 0.1
1.18 0 0
1.18 0 0.1
1.2 0 0
1.2 0 0.1
1.22 0 0
1.22 0 0.1
1.24 0 0
1.24 0 0.1
1.26 0 0
1.26 0 0.1
1.28 0 0
1.28 0 0.1
1.3 0 0
1.3 0 0.1
1.32 0 0
1.32 0 0.1
1.34 0 0
1.34 0 0.1
1.36 0 0
1.36 0 0.1
1.38 0 0
1.38 0 0.1
1.4 0 0
1.4 0 0.1
1.42 0 0
1.42 0 0.1
1.44 0 0
1.44 0 0.1
1.46 0 0
1.46 0 0.1
1.48 0 0
1.48 0 0.1
1.5 0 0
1.5 0 0.1
1.52 0 0
1.52 0 0.1
1.54 0 0
1.54 0 0.1
1.56 0 0
1.56 0 0.1
1.58 0 0
1.58 0 0.1
1.6 0 0
1.6 0 0.1
1.62 0 0
1.62 0 0.1
1.64 0 0
1.64 0 0.1
1.66 0 0
1.66 0 0.1
1.68 0 0
1.68 0 0.1
1.7 0 0
1.7 0 0.1
1.72 0 0
1.72 0 0.1
1.74 0 0
1.74 0 0.1
1.76 0 0
1.76 0 0.1
1.78 0 0
1.78 0 0.1
1.8 0 0
1.8 0 0.1
1.82 0 0
1.82 0 0.1
1.84 0 0
1.84 0 0.1
1.86 0 0
1.86 0 0.1
1.88 0 0
1.88 0 0.1
1.9 0 0
1.9 0 0.1
1.92 0 0
1.92 0 0.1
1.94 0 0
1.94 0 0.1
1.96 0 0
1.96 0 0.1
1.98 0 0
1.98 0 0.1
2 0 0
2 0 0.1
2 0.02 0
2 0.02 0.1
2 0.04 0
2 0.04 0.1
2 0.06 0
2 0.06 0.1
2 0.08 0
2 0.08 0.1
2 0.1 0
2 0.1 0.1
2 0.12 0
2 0.12 0.1
2 0.14 0
2 0.14 0.1
2 0.16 0
2 0.16 0.1
2 0.18 0
2 0.18 0.1
2 0.2 0
2 0.2 0.1
2 0.22 0
2 0.22 0.1
2 0.24 0
2 0.24 0.1
2 0.26 0
2 0.26 0.1
2 0.28 0
2 0.28 0.1
2 0.3 0
2 0.3 0.1
2 0.32 0
2 0.32 0.1
2 0.34 0
2 0.34 0.1
2 0.36 0
2 0.36 0.1
2 0.38 0
2 0.38 0.1
2 0.4 0
2 0.4 0.1
2 0.42 0
2 0.42 0.1
2 0.44 0
2 0.44 0.1
2 0.46 0
2 0.46 0.1
2 0.48 0
2 0.48 0.1
2 0.5 0
2 0.5 0.1
2 0.52 0
2 0.52 0.1
2 0.54 0
2 0.54 0.1
2 0.56 0
2 0.56 0.1
2 0.58 0
2 0.58 0.1
2 0.6 0
2 0.6 0.1
2 0.62 0
2 0.62 0.1
2 0.64 0
2 0.64 0.1
2 0.66 0
2 0.66 0.1
2 0.68 0
2 0.68 0.1
2 0.7 0
2 0.7 0.1
2 0.72 0
2 0.72 0.1
2 0.74 0
2 0.74 0.1
2 0.76 0
2 0.76 0.1
2 0.78 0
2 0.78 0.1
2 0.8 0
2 0.8 0.1
2 0.82 0
2 0.82 0.1
2 0.84 0
2 0.84 0.1
2 0.86 0
2 0.86 0.1
2 0.88 0
2 0.88 0.1
2 0.9 0
2 0.9 0.1
2 0.92 0
2 0.92 0.1
2 0.94 0
2 0.94 0.1
2 0.96 0
2 0.96 0.1
2 0.98 0
2 0.98 0.1
2 1 0
2 1 0.1
2.02 1 0
2.02 1 0.1
2.04 1 0
2.04 1 0.1
2.06 1 0
2.06 1 0.1
2.08 1 0
2.08 1 0.1
2.1 1 0
2.1 1 0.1
2.12 1 0
2.12 1 0.1
2.14 1 0
2.14 1 0.1
2.16 1 0
2.16 1 0.1
2.18 1 0
2.18 1 0.1
2.2 1 0
2.2 1 0.1
2.22 1 0
2.22 1 0.1
2.24 1 0
2.24 1 0.1
2.26 1 0
2.26 1 0.1
2.28 1 0
2.28 1 0.1
2.3 1 0
2.3 1 0.1
2.32 1 0
2.32 1 0.1
2.34 1 0
2.34 1 0.1
2.36 1 0
2.36 1 0.1
2.38 1 0
2.38 1 0.1
2.4 1 0
2.4 1 0.1
2.42 1 0
2.42 1 0.1
2.44 1 0
2.44 1 0.1
2.46 1 0
2.46 1 0.1
2.48 1 0
2.48 1 0.1
2.5 1 0
2.5 1 0.1
2.5 0 0
2.5 0 0.1
2.5 0.02 0.1
2.5 0.02 0
2.5 0.04 0.1
2.5 0.04 0
2.5 0.06 0.1
2.5 0.06 0
2.5 0.08 0.1
2.5 0.08 0
2.5 0.1 0.1
2.5 0.1 0
2.5 0.12 0.1
2.5 0.12 0
2.5 0.14 0.1
2.5 0.14 0
2.5 0.16 0.1
2.5 0.16 0
2.5 0.18 0.1
2.5 0.18 0
2.5 0.2 0.1
2.5 0.2 0
2.5 0.22 0.1
2.5 0.22 0
2.5 0.24 0.1
2.5 0.24 0
2.5 0.26 0.1
2.5 0.26 0
2.5 0.28 0.1
2.5 0.28 0
2.5 0.3 0.1
2.5 0.3 0
2.5 0.32 0.1
2.5 0.32 0
2.5 0.34 0.1
2.5 0.34 0
2.5 0.36 0.1
2.5 0.36 0
2.5 0.38 0.1
2.5 0.38 0
2.5 0.4 0.1
2.5 0.4 0
2.5 0.42 0.1
2.5 0.42 0
2.5 0.44 0.1
2.5 0.44 0
2.5 0.46 0.1
2.5 0.46 0
2.5 0.48 0.1
2.5 0.48 0
2.5 0.5 0.1
2.5 0.5 0
2.5 0.52 0.1
2.5 0.52 0
2.5 0.54 0.1
2.5 0.54 0
2.5 0.56 0.1
2.5 0.56 0
2.5 0.58 0.1
2.5 0.58 0
2.5 0.6 0.1
2.5 0.6 0
2.5 0.62 0.1
2.5 0.62 0
2.5 0.64 0.1
2.5 0.64 0
2.5 0.66 0.1
2.5 0.66 0
2.5 0.68 0.1
2.5 0.68 0
2.5 0.7 0.1
2.5 0.7 0
2.5 0.72 0.1
2.5 0.72 0
2.5 0.74 0.1
2.5 0.74 0
2.5 0.76 0.1
2.5 0.76 0
2.5 0.78 0.1
2.5 0.78 0
2.5 0.8 0.1
2.5 0.8 0
2.5 0.82 0.1
2.5 0.82 0
2.5 0.84 0.1
2.5 0.84 0
2.5 0.86 0.1
2.5 0.86 0
2.5 0.88 0.1
2.5 0.88 0
2.5 0.9 0.1
2.5 0.9 0
2.5 0.92 0.1
2.5 0.92 0
2.5 0.94 0.1
2.5 0.94 0
2.5 0.96 0.1
2.5 0.96 0
2.5 0.98 0.1
2.5 0.98 0
2.52 0 0
2.52 0 0.1
2.54 0 0
2.54 0 0.1
2.56 0 0
2.56 0 0.1
2.58 0 0
2.58 0 0.1
2.6 0 0
2.6 0 0.1
2.62 0 0
2.62 0 0.1
2.64 0 0
2.64 0 0.1
2.66 0 0
2.66 0 0.1
2.68 0 0
2.68 0 0.1
2.7 0 0
2.7 0 0.1
2.72 0 0
2.72 0 0.1
2.74 0 0
2.74 0 0.1
2.76 0 0
2.76 0 0.1
2.78 0 0
2.78 0 0.1
2.8 0 0
2.8 0 0.1
2.82 0 0
2.82 0 0.1
2.84 0 0
2.84 0 0.1
2.86 0 0
2.86 0 0.1
2.88 0 0
2.88 0 0.1
2.9 0 0
2.9 0 0.1
2.92 0 0
2.92 0 0.1
2.94 0 0
2.94 0 0.1
2.96 0 0
2.96 0 0.1
2.98 0 0
2.98 0 0.1
3 0 0
3 0 0.1
3.02 0 0
3.02 0 0.1
3.04 0 0
3.04 0 0.1
3.06 0 0
3.06 0 0.1
3.08 0 0
3.08 0 0.1
3.1 0 0
3.1 0 0.1
3.12 0 0
3.12 0 0.1
3.14 0 0
3.14 0 0.1
3.16 0 0
3.16 0 0.1
3.18 0 0
3.18 0 0.1
3.2 0 0
3.2 0 0.1
3.22 0 0
3.22 0 0.1
3.24 0 0
3.24 0 0.1
3.26 0 0
3.26 0 0.1
3.28 0 0
3.28 0 0.1
3.3 0 0
3.3 0 0.1
3.32 0 0
3.32 0 0.1
3.34 0 0
3.34 0 0.1
3.36 0 0
3.36 0 0.1
3.38 0 0
3.38 0 0.1
3.4 0 0
3.4 0 0.1
3.42 0 0
3.42 0 0.1
3.44 0 0
3.44 0 0.1
3.46 0 0
3.46 0 0.1
3.48 0 0
3.48 0 0.1
3.5 0 0
3.5 0 0.1
3.52 0 0
3.52 0 0.1
3.54 0 0
3.54 0 0.1
3.56 0 0
3.56 0 0.1
3.58 0 0
3.58 0 0.1
3.6 0 0
3.6 0 0.1
3.62 0 0
3.62 0 0.1
3.64 0 0
3.64 0 0.1
3.66 0 0
3.66 0 0.1
3.68 0 0
3.68 0 0.1
3.7 0 0
3.7 0 0.1
3.72 0 0
3.72 0 0.1
3.74 0 0
3.74 0 0.1
3.76 0 0
3.76 0 0.1
3.78 0 0
3.78 0 0.1
3.8 0 0
3.8 0 0.1
3.82 0 0
3.82 0 0.1
3.84 0 0
3.84 0 0.1
3.86 0 0
3.86 0 0.1
3.88 0 0
3.88 0 0.1
3.9 0 0
3.9 0 0.1
3.92 0 0
3.92 0 0.1
3.94 0 0
3.94 0 0.1
3.96 0 0
3.96 0 0.1
3.98 0 0
3.98 0 0.1
4 0 0
4 0 0.1
4.02 0 0
4.02 0 0.1
4.04 0 0
4.04 0 0.1
4.06 0 0
4.06 0 0.1
4.08 0 0
4.08 0 0.1
4.1 0 0
4.1 0 0.1
4.12 0 0
4.12 0 0.1
4.14 0 0
4.14 0 0.1
4.16 0 0
4.16 0 0.1
4.18 0 0
4.18 0 0.1
4.2 0 0
4.2 0 0.1
4.22 0 0
4.22 0 0.1
4.24 0 0
4.24 0 0.1
4.26 0 0
4.26 0 0.1
4.28 0 0
4.28 0 0.1
4.3 0 0
4.3 0 0.1
4.32 0 0
4.32 0 0.1
4.34 0 0
4.34 0 0.1
4.36 0 0
4.36 0 0.1
4.38 0 0
4.38 0 0.1
4.4 0 0
4.4 0 0.1
4.42 0 0
4.42 0 0.1
4.44 0 0
4.44 0 0.1
4.46 0 0
4.46 0 0.1
4.48 0 0
4.48 0 0.1
4.5 0 0
4.5 0 0.1

POLYGONS 325 1625
4 0 1 2 3
4 1 4 5 2
4 4 6 7 5
4 6 8 9 7
4 8 10 11 9
4 10 12 13 11
4 12 14 15 13
4 14 16 17 15
4 16 18 19 17
4 18 20 21 19
4 20 22 23 21
4 22 24 25 23
4 24 26 27 25
4 26 28 29 27
4 28 30 31 29
4 30 32 33 31
4 32 34 35 33
4 34 36 37 35
4 36 38 39 37
4 38 40 41 39
4 40 42 43 41
4 42 44 45 43
4 44 46 47 45
4 46 48 49 47
4 48 50 51 49
4 50 52 53 51
4 52 54 55 53
4 54 56 57 55
4 56 58 59 57
4 58 60 61 59
4 60 62 63 61
4 62 64 65 63
4 64 66 67 65
4 66 68 69 67
4 68 70 71 69
4 70 72 73 71
4 72 74 75 73
4 74 76 77 75
4 76 78 79 77
4 78 80 81 79
4 80 82 83 81
4 82 84 85 83
4 84 86 87 85
4 86 88 89 87
4 88 90 91 89
4 90 92 93 91
4 92 94 95 93
4 94 96 97 95
4 96 98 99 97
4 98 100 101 99
4 100 102 103 101
4 102 104 105 103
4 104 106 107 105
4 106 108 109 107
4 108 110 111 109
4 110 112 113 111
4 112 114 115 113
4 114 116 117 115
4 116 118 119 117
4 118 120 121 119
4 120 122 123 121
4 122 124 125 123
4 124 126 127 125
4 126 128 129 127
4 128 130 131 129
4 130 132 133 131
4 132 134 135 133
4 134 136 137 135
4 136 138 139 137
4 138 140 141 139
4 140 142 143 141
4 142 144 145 143
4 144 146 147 145
4 146 148 149 147
4 148 150 151 149
4 150 152 153 151
4 152 154 155 153
4 154 156 157 155
4 156 158 159 157
4 158 160 161 159
4 160 162 163 161
4 162 164 165 163
4 164 166 167 165
4 166 168 169 167
4 168 170 171 169
4 170 172 173 171
4 172 174 175 173
4 174 176 177 175
4 176 178 179 177
4 178 180 181 179
4 180 182 183 181
4 182 184 185 183
4 184 186 187 185
4 186 188 189 187
4 188 190 191 189
4 190 192 193 191
4 192 194 195 193
4 194 196 197 195
4 196 198 199 197
4 198 200 201 199
4 200 202 203 201
4 202 204 205 203
4 204 206 207 205
4 206 208 209 207
4 208 210 211 209
4 210 212 213 211
4 212 214 215 213
4 214 216 217 215
4 216 218 219 217
4 218 220 221 219
4 220 222 223 221
4 222 224 225 223
4 224 226 227 225
4 226 228 229 227
4 228 230 231 229
4 230 232 233 231
4 232 234 235 233
4 234 236 237 235
4 236 238 239 237
4 238 240 241 239
4 240 242 243 241
4 242 244 245 243
4 244 246 247 245
4 246 248 249 247
4 248 250 251 249
4 250 252 253 251
4 252 254 255 253
4 254 256 257 255
4 256 258 259 257
4 258 260 261 259
4 260 262 263 261
4 262 264 265 263
4 264 266 267 265
4 266 268 269 267
4 268 270 271 269
4 270 272 273 271
4 272 274 275 273
4 274 276 277 275
4 276 278 279 277
4 278 280 281 279
4 280 282 283 281
4 282 284 285 283
4 284 286 287 285
4 286 288 289 287
4 288 290 291 289
4 290 292 293 291
4 292 294 295 293
4 294 296 297 295
4 296 298 299 297
4 298 300 301 299
4 300 302 303 301
4 302 304 305 303
4 304 306 307 305
4 306 308 309 307
4 308 310 311 309
4 310 312 313 311
4 312 314 315 313
4 314 316 317 315
4 316 318 319 317
4 318 320 321 319
4 320 322 323 321
4 322 324 325 323
4 324 326 327 325
4 326 328 329 327
4 328 330 331 329
4 330 332 333 331
4 332 334 335 333
4 334 336 337 335
4 336 338 339 337
4 338 340 341 339
4 340 342 343 341
4 342 344 345 343
4 344 346 347 345
4 346 348 349 347
4 348 350 351 349
4 352 353 354 355
4 355 354 356 357
4 357 356 358 359
4 359 358 360 361
4 361 360 362 363
4 363 362 364 365
4 365 364 366 367
4 367 366 368 369
4 369 368 370 371
4 371 370 372 373
4 373 372 374 375
4 375 374 376 377
4 377 376 378 379
4 379 378 380 381
4 381 380 382 383
4 383 382 384 385
4 385 384 386 387
4 387 386 388 389
4 389 388 390 391
4 391 390 392 393
4 393 392 394 395
4 395 394 396 397
4 397 396 398 399
4 399 398 400 401
4 401 400 402 403
4 403 402 404 405
4 405 404 406 407
4 407 406 408 409
4 409 408 410 411
4 411 410 412 413
4 413 412 414 415
4 415 414 416 417
4 417 416 418 419
4 419 418 420 421
4 421 420 422 423
4 423 422 424 425
4 425 424 426 427
4 427 426 428 429
4 429 428 430 431
4 431 430 432 433
4 433 432 434 435
4 435 434 436 437
4 437 436 438 439
4 439 438 440 441
4 441 440 442 443
4 443 442 444 445
4 445 444 446 447
4 447 446 448 449
4 449 448 450 451
4 451 450 351 350
4 352 452 453 353
4 452 454 455 453
4 454 456 457 455
4 456 458 459 457
4 458 460 461 459
4 460 462 463 461
4 462 464 465 463
4 464 466 467 465
4 466 468 469 467
4 468 470 471 469
4 470 472 473 471
4 472 474 475 473
4 474 476 477 475
4 476 478 479 477
4 478 480 481 479
4 480 482 483 481
4 482 484 485 483
4 484 486 487 485
4 486 488 489 487
4 488 490 491 489
4 490 492 493 491
4 492 494 495 493
4 494 496 497 495
4 496 498 499 497
4 498 500 501 499
4 500 502 503 501
4 502 504 505 503
4 504 506 507 505
4 506 508 509 507
4 508 510 511 509
4 510 512 513 511
4 512 514 515 513
4 514 516 517 515
4 516 518 519 517
4 518 520 521 519
4 520 522 523 521
4 522 524 525 523
4 524 526 527 525
4 526 528 529 527
4 528 530 531 529
4 530 532 533 531
4 532 534 535 533
4 534 536 537 535
4 536 538 539 537
4 538 540 541 539
4 540 542 543 541
4 542 544 545 543
4 544 546 547 545
4 546 548 549 547
4 548 550 551 549
4 550 552 553 551
4 552 554 555 553
4 554 556 557 555
4 556 558 559 557
4 558 560 561 559
4 560 562 563 561
4 562 564 565 563
4 564 566 567 565
4 566 568 569 567
4 568 570 571 569
4 570 572 573 571
4 572 574 575 573
4 574 576 577 575
4 576 578 579 577
4 578 580 581 579
4 580 582 583 581
4 582 584 585 583
4 584 586 587 585
4 586 588 589 587
4 588 590 591 589
4 590 592 593 591
4 592 594 595 593
4 594 596 597 595
4 596 598 599 597
4 598 600 601 599
4 600 602 603 601
4 602 604 605 603
4 604 606 607 605
4 606 608 609 607
4 608 610 611 609
4 610 612 613 611
4 612 614 615 613
4 614 616 617 615
4 616 618 619 617
4 618 620 621 619
4 620 622 623 621
4 622 624 625 623
4 624 626 627 625
4 626 628 629 627
4 628 630 631 629
4 630 632 633 631
4 632 634 635 633
4 634 636 637 635
4 636 638 639 637
4 638 640 641 639
4 640 642 643 641
4 642 644 645 643
4 644 646 647 645
4 646 648 649 647
4 648 650 651 649
POINT_DATA 652
FIELD attributes 1
U 3 652 float
2.58912 -0.0160235 -0.00319017
1.29507 -0.00800966 -0.00159509
1.29507 -0.00800966 -0.00159509
2.58912 -0.0160235 -0.00319017
0.00102116 2.56754e-06 0
0.00102116 2.56754e-06 0
0.00101596 1.14094e-06 0
0.00101596 1.14094e-06 0
0.00101048 1.61977e-06 0
0.00101048 1.61977e-06 0
0.00100605 2.02975e-06 0
0.00100605 2.02975e-06 0
0.00100351 2.0619e-06 0
0.00100351 2.0619e-06 0
0.00100253 1.51933e-06 0
0.00100253 1.51933e-06 0
0.00100181 7.03251e-07 0
0.00100181 7.03251e-07 0
0.00100006 2.90231e-07 0
0.00100006 2.90231e-07 0
0.000996799 4.55183e-07 0
0.000996799 4.55183e-07 0
0.000992727 6.21082e-07 0
0.000992727 6.21082e-07 0
0.00098913 2.33358e-07 0
0.00098913 2.33358e-07 0
0.000986647 -4.63326e-07 0
0.000986647 -4.63326e-07 0
0.000984745 -7.00659e-07 0
0.000984745 -7.00659e-07 0
0.000982434 -1.31156e-07 0
0.000982434 -1.31156e-07 0
0.000979317 7.98179e-07 0
0.000979317 7.98179e-07 0
0.000975885 1.42822e-06 0
0.000975885 1.42822e-06 0
0.000972853 1.66155e-06 0
0.000972853 1.66155e-06 0
0.000970369 2.02506e-06 0
0.000970369 2.02506e-06 0
0.000967866 2.94627e-06 0
0.000967866 2.94627e-06 0
0.000964645 4.11296e-06 0
0.000964645 4.11296e-06 0
0.000960564 4.67184e-06 0
0.000960564 4.67184e-06 0
0.000956149 4.0977e-06 0
0.000956149 4.0977e-06 0
0.000952047 2.88114e-06 0
0.000952047 2.88114e-06 0
0.000948358 2.26172e-06 0
0.000948358 2.26172e-06 0
0.000944492 3.12663e-06 0
0.000944492 3.12663e-06 0
0.000939678 5.11889e-06 0
0.000939678 5.11889e-06 0
0.000933718 6.83243e-06 0
0.000933718 6.83243e-06 0
0.000927247 6.92552e-06 0
0.000927247 6.92552e-06 0
0.000921234 5.22113e-06 0
0.000921234 5.22113e-06 0
0.000916188 2.89391e-06 0
0.000916188 2.89391e-06 0
0.000911726 1.61228e-06 0
0.000911726 1.61228e-06 0
0.000906764 2.34594e-06 0
0.000906764 2.34594e-06 0
0.000900176 4.65946e-06 0
0.000900176 4.65946e-06 0
0.000891546 6.92588e-06 0
0.000891546 6.92588e-06 0
0.000881532 7.40438e-06 0
0.000881532 7.40438e-06 0
0.000871521 5.54935e-06 0
0.000871521 5.54935e-06 0
0.000862804 2.59485e-06 0
0.000862804 2.59485e-06 0
0.000855799 7.36902e-07 0
0.000855799 7.36902e-07 0
0.000849815 1.40631e-06 0
0.000849815 1.40631e-06 0
0.000843556 4.12378e-06 0
0.000843556 4.12378e-06 0
0.000836062 6.94445e-06 0
0.000836062 6.94445e-06 0
0.000827297 8.13817e-06 0
0.000827297 8.13817e-06 0
0.000817885 7.5352e-06 0
0.000817885 7.5352e-06 0
0.00080838 6.31168e-06 0
0.00080838 6.31168e-06 0
0.000798818 5.71132e-06 0
0.000798818 5.71132e-06 0
0.000788858 6.12906e-06 0
0.000788858 6.12906e-06 0
0.000778121 7.22312e-06 0
0.000778121 7.22312e-06 0
0.000766373 8.46348e-06 0
0.000766373 8.46348e-06 0
0.000753575 9.36274e-06 0
0.000753575 9.36274e-06 0
0.000739996 9.47326e-06 0
0.000739996 9.47326e-06 0
0.000726221 8.61309e-06 0
0.000726221 8.61309e-06 0
0.000712819 7.17539e-06 0
0.000712819 7.17539e-06 0
0.000699871 5.93649e-06 0
0.000699871 5.93649e-06 0
0.000686917 5.39986e-06 0
0.000686917 5.39986e-06 0
0.00067346 5.5018e-06 0
0.00067346 5.5018e-06 0
0.000659404 6.11194e-06 0
0.000659404 6.11194e-06 0
0.000644789 7.54829e-06 0
0.000644789 7.54829e-06 0
0.000629189 1.00964e-05 0
0.000629189 1.00964e-05 0
0.000611784 1.30141e-05 0
0.000611784 1.30141e-05 0
0.000592261 1.47497e-05 0
0.000592261 1.47497e-05 0
0.000571302 1.47507e-05 0
0.000571302 1.47507e-05 0
0.000549666 1.46544e-05 0
0.000549666 1.46544e-05 0
0.00052679 1.67739e-05 0
0.00052679 1.67739e-05 0
0.000500858 2.12065e-05 0
0.000500858 2.12065e-05 0
0.000470687 2.51493e-05 0
0.000470687 2.51493e-05 0
0.000437343 2.55856e-05 0
0.000437343 2.55856e-05 0
0.000403589 2.21886e-05 0
0.000403589 2.21886e-05 0
0.000371944 1.71373e-05 0
0.000371944 1.71373e-05 0
0.000343464 1.28412e-05 0
0.000343464 1.28412e-05 0
0.00031795 1.04023e-05 0
0.00031795 1.04023e-05 0
0.000294621 9.60431e-06 0
0.000294621 9.60431e-06 0
0.000272597 9.68282e-06 0
0.000272597 9.68282e-06 0
0.000251164 1.00015e-05 0
0.000251164 1.00015e-05 0
0.00022987 1.02359e-05 0
0.00022987 1.02359e-05 0
0.000208517 1.02781e-05 0
0.000208517 1.02781e-05 0
0.00018708 1.01304e-05 0
0.00018708 1.01304e-05 0
0.000165648 9.8215e-06 0
0.000165648 9.8215e-06 0
0.000144371 9.36942e-06 0
0.000144371 9.36942e-06 0
0.000123435 8.77723e-06 0
0.000123435 8.77723e-06 0
0.000103045 8.04145e-06 0
0.000103045 8.04145e-06 0
8.34177e-05 7.15907e-06 0
8.34177e-05 7.15907e-06 0
6.47753e-05 6.13141e-06 0
6.47753e-05 6.13141e-06 0
4.73392e-05 4.96768e-06 0
4.73392e-05 4.96768e-06 0
3.13182e-05 3.69438e-06 0
3.13182e-05 3.69438e-06 0
1.68984e-05 2.35138e-06 0
1.68984e-05 2.35138e-06 0
4.23282e-06 9.74826e-07 0
4.23282e-06 9.74826e-07 0
-6.56206e-06 -4.00732e-07 0
-6.56206e-06 -4.00732e-07 0
-1.54045e-05 -1.74252e-06 0
-1.54045e-05 -1.74252e-06 0
-2.22551e-05 -3.02417e-06 0
-2.22551e-05 -3.02417e-06 0
-2.71213e-05 -4.22286e-06 0
-2.71213e-05 -4.22286e-06 0
-3.00474e-05 -5.32114e-06 0
-3.00474e-05 -5.32114e-06 0
-3.11136e-05 -6.30908e-06 0
-3.11136e-05 -6.30908e-06 0
-3.04143e-05 -7.16914e-06 0
-3.04143e-05 -7.16914e-06 0
-2.80898e-05 -7.87895e-06 0
-2.80898e-05 -7.87895e-06 0
-2.4337e-05 -8.42932e-06 0
-2.4337e-05 -8.42932e-06 0
-1.93911e-05 -8.83828e-06 0
-1.93911e-05 -8.83828e-06 0
-1.34837e-05 -9.15115e-06 0
-1.34837e-05 -9.15115e-06 0
-6.90043e-06 -9.30311e-06 0
-6.90043e-06 -9.30311e-06 0
-3.48681e-06 -9.31619e-06 0
-3.48681e-06 -9.31619e-06 0
1.65356e-06 -6.88205e-06 0
1.65356e-06 -6.88205e-06 0
9.92498e-06 6.91863e-06 0
9.92498e-06 6.91863e-06 0
1.43209e-05 3.31487e-05 0
1.43209e-05 3.31487e-05 0
1.57557e-05 6.41734e-05 0
1.57557e-05 6.41734e-05 0
1.55332e-05 9.5929e-05 0
1.55332e-05 9.5929e-05 0
1.45537e-05 0.000126089 0
1.45537e-05 0.000126089 0
1.3387e-05 0.000153998 0
1.3387e-05 0.000153998 0
1.23295e-05 0.000179623 0
1.23295e-05 0.000179623 0
1.15067e-05 0.000203394 0
1.15067e-05 0.000203394 0
1.09459e-05 0.000225835 0
1.09459e-05 0.000225835 0
1.06241e-05 0.000247427 0
1.06241e-05 0.000247427 0
1.04962e-05 0.000268588 0
1.04962e-05 0.000268588 0
1.05134e-05 0.000289663 0
1.05134e-05 0.000289663 0
1.06327e-05 0.000310897 0
1.06327e-05 0.000310897 0
1.08196e-05 0.000332449 0
1.08196e-05 0.000332449 0
1.1049e-05 0.000354422 0
1.1049e-05 0.000354422 0
1.13043e-05 0.000376879 0
1.13043e-05 0.000376879 0
1.15754e-05 0.000399862 0
1.15754e-05 0.000399862 0
1.1857e-05 0.000423393 0
1.1857e-05 0.000423393 0
1.21478e-05 0.000447491 0
1.21478e-05 0.000447491 0
1.24482e-05 0.000472175 0
1.24482e-05 0.000472175 0
1.27609e-05 0.000497466 0
1.27609e-05 0.000497466 0
1.30885e-05 0.000523392 0
1.30885e-05 0.000523392 0
1.34358e-05 0.000549988 0
1.34358e-05 0.000549988 0
1.38061e-05 0.000577296 0
1.38061e-05 0.000577296 0
1.42058e-05 0.00060537 0
1.42058e-05 0.00060537 0
1.46374e-05 0.000634268 0
1.46374e-05 0.000634268 0
1.51113e-05 0.00066407 0
1.51113e-05 0.00066407 0
1.56266e-05 0.00069485 0
1.56266e-05 0.00069485 0
1.62029e-05 0.000726724 0
1.62029e-05 0.000726724 0
1.68285e-05 0.00075978 0
1.68285e-05 0.00075978 0
1.75478e-05 0.000794195 0
1.75478e-05 0.000794195 0
1.83201e-05 0.000830059 0
1.83201e-05 0.000830059 0
1.92447e-05 0.000867661 0
1.92447e-05 0.000867661 0
2.02056e-05 0.000907054 0
2.02056e-05 0.000907054 0
2.14643e-05 0.000948764 0
2.14643e-05 0.000948764 0
2.26364e-05 0.000992709 0
2.26364e-05 0.000992709 0
2.44818e-05 0.00103988 0
2.44818e-05 0.00103988 0
2.58863e-05 0.00108988 0
2.58863e-05 0.00108988 0
2.87948e-05 0.00114462 0
2.87948e-05 0.00114462 0
3.03878e-05 0.00120299 0
3.03878e-05 0.00120299 0
3.54845e-05 0.00126886 0
3.54845e-05 0.00126886 0
3.70191e-05 0.0013396 0
3.70191e-05 0.0013396 0
4.70091e-05 0.00142322 0
4.70091e-05 0.00142322 0
4.84002e-05 0.00151499 0
4.84002e-05 0.00151499 0
7.14111e-05 0.00163081 0
7.14111e-05 0.00163081 0
7.51858e-05 0.00176738 0
7.51858e-05 0.00176738 0
0.000141498 0.00195385 0
0.000141498 0.00195385 0
0.000173767 0.00220706 0
0.000173767 0.00220706 0
0.000230858 0.00141957 0
0.000230858 0.00141957 0
-0.000239729 6.72564e-05 0
-0.000239729 6.72564e-05 0
-0.000217269 -0.000355967 0
-0.000217269 -0.000355967 0
-3.0736e-05 -3.88138e-05 0
-3.0736e-05 -3.88138e-05 0
-0.000593627 0.000306025 0
-0.000593627 0.000306025 0
-0.00111894 0.00034779 0
-0.00111894 0.00034779 0
-0.00171678 0.000310592 0
-0.00171678 0.000310592 0
-0.00213207 0.000231029 0
-0.00213207 0.000231029 0
-0.00244423 0.000154683 0
-0.00244423 0.000154683 0
-0.00262424 8.98912e-05 0
-0.00262424 8.98912e-05 0
-0.00271291 3.61394e-05 0
-0.00271291 3.61394e-05 0
-0.00270399 -9.90321e-06 0
-0.00270399 -9.90321e-06 0
-0.00261788 -5.32157e-05 0
-0.00261788 -5.32157e-05 0
-0.0024479 -9.75723e-05 0
-0.0024479 -9.75723e-05 0
-0.00219589 -0.000141287 0
-0.00219589 -0.000141287 0
-0.00186084 -0.000181637 0
-0.00186084 -0.000181637 0
-0.00145582 -0.000212966 0
-0.00145582 -0.000212966 0
-0.00101094 -0.000226307 0
-0.00101094 -0.000226307 0
-0.000561506 -0.000210884 0
-0.000561506 -0.000210884 0
-0.000150232 -0.000159694 0
-0.000150232 -0.000159694 0
0.000160175 -0.00013408 0
0.000160175 -0.00013408 0
0.000423472 -0.000153198 0
0.000423472 -0.000153198 0
0.00068119 -0.000107544 0
0.00068119 -0.000107544 0
0.000875448 -0.000110721 0
0.000875448 -0.000110721 0
0.00108095 -0.000105523 0
0.00108095 -0.000105523 0
0.000595165 -0.000167111 0
0.000595165 -0.000167111 0
-7.28562e-06 5.16934e-06 0
-7.28562e-06 5.16934e-06 0
-8.73638e-06 1.42199e-05 0
-8.73638e-06 1.42199e-05 0
-1.01066e-05 3.3809e-05 0
-1.01066e-05 3.3809e-05 0
-9.76504e-06 5.34873e-05 0
-9.76504e-06 5.34873e-05 0
-9.32621e-06 7.17159e-05 0
-9.32621e-06 7.17159e-05 0
-9.03299e-06 8.95379e-05 0
-9.03299e-06 8.95379e-05 0
-8.82342e-06 0.00010682 0
-8.82342e-06 0.00010682 0
-8.63214e-06 0.000123749 0
-8.63214e-06 0.000123749 0
-8.42414e-06 0.00014031 0
-8.42414e-06 0.00014031 0
-8.18493e-06 0.000156436 0
-8.18493e-06 0.000156436 0
-7.9094e-06 0.000172061 0
-7.9094e-06 0.000172061 0
-7.59584e-06 0.00018711 0
-7.59584e-06 0.00018711 0
-7.24366e-06 0.000201507 0
-7.24366e-06 0.000201507 0
-6.85223e-06 0.000215174 0
-6.85223e-06 0.000215174 0
-6.42113e-06 0.000228032 0
-6.42113e-06 0.000228032 0
-5.9506e-06 0.000240004 0
-5.9506e-06 0.000240004 0
-5.44167e-06 0.000251011 0
-5.44167e-06 0.000251011 0
-4.89628e-06 0.000260979 0
-4.89628e-06 0.000260979 0
-4.31779e-06 0.000269834 0
-4.31779e-06 0.000269834 0
-3.70988e-06 0.000277511 0
-3.70988e-06 0.000277511 0
-3.07627e-06 0.000283949 0
-3.07627e-06 0.000283949 0
-2.42204e-06 0.000289101 0
-2.42204e-06 0.000289101 0
-1.74987e-06 0.000292917 0
-1.74987e-06 0.000292917 0
-1.0664e-06 0.000295385 0
-1.0664e-06 0.000295385 0
-3.67351e-07 0.000296459 0
-3.67351e-07 0.000296459 0
3.52151e-07 0.000296187 0
3.52151e-07 0.000296187 0
1.07683e-06 0.000294429 0
1.07683e-06 0.000294429 0
1.78584e-06 0.000291405 0
1.78584e-06 0.000291405 0
2.50385e-06 0.000286866 0
2.50385e-06 0.000286866 0
3.20605e-06 0.0002813 0
3.20605e-06 0.0002813 0
3.8975e-06 0.000274149 0
3.8975e-06 0.000274149 0
4.52909e-06 0.000266371 0
4.52909e-06 0.000266371 0
5.14676e-06 0.000257017 0
5.14676e-06 0.000257017 0
5.6534e-06 0.000247414 0
5.6534e-06 0.000247414 0
6.18117e-06 0.000236406 0
6.18117e-06 0.000236406 0
6.46746e-06 0.000225377 0
6.46746e-06 0.000225377 0
6.67942e-06 0.000213384 0
6.67942e-06 0.000213384 0
7.19982e-06 0.00020173 0
7.19982e-06 0.00020173 0
6.25126e-06 0.000188244 0
6.25126e-06 0.000188244 0
7.91002e-06 0.000178739 0
7.91002e-06 0.000178739 0
7.77768e-06 0.000162025 0
7.77768e-06 0.000162025 0
4.79811e-06 0.000149336 0
4.79811e-06 0.000149336 0
8.10745e-06 0.000144358 0
8.10745e-06 0.000144358 0
1.49724e-05 0.000116932 0
1.49724e-05 0.000116932 0
6.47453e-06 0.000108542 0
6.47453e-06 0.000108542 0
3.10349e-06 8.53048e-05 0
3.10349e-06 8.53048e-05 0
2.03947e-05 6.88104e-05 0
2.03947e-05 6.88104e-05 0
8.14459e-06 2.47997e-05 0
8.14459e-06 2.47997e-05 0
2.81315e-05 2.8897e-05 0
2.81315e-05 2.8897e-05 0
2.51237e-05 -9.98306e-05 0
2.51237e-05 -9.98306e-05 0
-1.41372e-05 5.19979e-06 0
-1.41372e-05 5.19979e-06 0
-2.82808e-05 5.40264e-06 0
-2.82808e-05 5.40264e-06 0
-4.29953e-05 5.77868e-06 0
-4.29953e-05 5.77868e-06 0
-5.81541e-05 6.23573e-06 0
-5.81541e-05 6.23573e-06 0
-7.39952e-05 6.77991e-06 0
-7.39952e-05 6.77991e-06 0
-9.05677e-05 7.37818e-06 0
-9.05677e-05 7.37818e-06 0
-0.00010792 7.99787e-06 0
-0.00010792 7.99787e-06 0
-0.000126067 8.6132e-06 0
-0.000126067 8.6132e-06 0
-0.000144985 9.20312e-06 0
-0.000144985 9.20312e-06 0
-0.000164646 9.75703e-06 0
-0.000164646 9.75703e-06 0
-0.000185006 1.02724e-05 0
-0.000185006 1.02724e-05 0
-0.000206029 1.07518e-05 0
-0.000206029 1.07518e-05 0
-0.00022767 1.11977e-05 0
-0.00022767 1.11977e-05 0
-0.00024989 1.16085e-05 0
-0.00024989 1.16085e-05 0
-0.000272634 1.19772e-05 0
-0.000272634 1.19772e-05 0
-0.000295835 1.22921e-05 0
-0.000295835 1.22921e-05 0
-0.00031941 1.25411e-05 0
-0.00031941 1.25411e-05 0
-0.000343252 1.2717e-05 0
-0.000343252 1.2717e-05 0
-0.000367219 1.28105e-05 0
-0.000367219 1.28105e-05 0
-0.000391145 1.28051e-05 0
-0.000391145 1.28051e-05 0
-0.000414838 1.26815e-05 0
-0.000414838 1.26815e-05 0
-0.000438078 1.24217e-05 0
-0.000438078 1.24217e-05 0
-0.000460617 1.20098e-05 0
-0.000460617 1.20098e-05 0
-0.000482183 1.14324e-05 0
-0.000482183 1.14324e-05 0
-0.000502481 1.06785e-05 0
-0.000502481 1.06785e-05 0
-0.0005212 9.7415e-06 0
-0.0005212 9.7415e-06 0
-0.000538016 8.6192e-06 0
-0.000538016 8.6192e-06 0
-0.000552602 7.31537e-06 0
-0.000552602 7.31537e-06 0
-0.000564641 5.84206e-06 0
-0.000564641 5.84206e-06 0
-0.000573843 4.22077e-06 0
-0.000573843 4.22077e-06 0
-0.000579955 2.48992e-06 0
-0.000579955 2.48992e-06 0
-0.000582752 7.12011e-07 0
-0.000582752 7.12011e-07 0
-0.000582132 -1.06156e-06 0
-0.000582132 -1.06156e-06 0
-0.000578095 -2.80648e-06 0
-0.000578095 -2.80648e-06 0
-0.000570628 -4.51888e-06 0
-0.000570628 -4.51888e-06 0
-0.000559748 -6.19765e-06 0
-0.000559748 -6.19765e-06 0
-0.000545542 -7.82251e-06 0
-0.000545542 -7.82251e-06 0
-0.000528146 -9.36811e-06 0
-0.000528146 -9.36811e-06 0
-0.000507745 -1.08111e-05 0
-0.000507745 -1.08111e-05 0
-0.000484571 -1.21315e-05 0
-0.000484571 -1.21315e-05 0
-0.000458887 -1.33142e-05 0
-0.000458887 -1.33142e-05 0
-0.000430984 -1.43487e-05 0
-0.000430984 -1.43487e-05 0
-0.000401167 -1.52296e-05 0
-0.000401167 -1.52296e-05 0
-0.000369748 -1.59557e-05 0
-0.000369748 -1.59557e-05 0
-0.000337037 -1.65297e-05 0
-0.000337037 -1.65297e-05 0
-0.000303333 -1.69577e-05 0
-0.000303333 -1.69577e-05 0
-0.000268922 -1.7248e-05 0
-0.000268922 -1.7248e-05 0
-0.00023407 -1.74119e-05 0
-0.00023407 -1.74119e-05 0
-0.000199023 -1.74617e-05 0
-0.000199023 -1.74617e-05 0
-0.000163992 -1.74076e-05 0
-0.000163992 -1.74076e-05 0
-0.000129155 -1.72648e-05 0
-0.000129155 -1.72648e-05 0
-9.46745e-05 -1.70456e-05 0
-9.46745e-05 -1.70456e-05 0
-6.06902e-05 -1.67611e-05 0
-6.06902e-05 -1.67611e-05 0
-2.73314e-05 -1.64244e-05 0
-2.73314e-05 -1.64244e-05 0
5.28234e-06 -1.60469e-05 0
5.28234e-06 -1.60469e-05 0
3.70846e-05 -1.56385e-05 0
3.70846e-05 -1.56385e-05 0
6.80432e-05 -1.52064e-05 0
6.80432e-05 -1.52064e-05 0
9.81238e-05 -1.47593e-05 0
9.81238e-05 -1.47593e-05 0
0.0001273 -1.43038e-05 0
0.0001273 -1.43038e-05 0
0.000155561 -1.38453e-05 0
0.000155561 -1.38453e-05 0
0.000182904 -1.33885e-05 0
0.000182904 -1.33885e-05 0
0.000209338 -1.29373e-05 0
0.000209338 -1.29373e-05 0
0.000234877 -1.24944e-05 0
0.000234877 -1.24944e-05 0
0.00025954 -1.20623e-05 0
0.00025954 -1.20623e-05 0
0.000283351 -1.16427e-05 0
0.000283351 -1.16427e-05 0
0.000306336 -1.12367e-05 0
0.000306336 -1.12367e-05 0
0.000328523 -1.08451e-05 0
0.000328523 -1.08451e-05 0
0.00034994 -1.04683e-05 0
0.00034994 -1.04683e-05 0
0.000370619 -1.01066e-05 0
0.000370619 -1.01066e-05 0
0.00039059 -9.76001e-06 0
0.00039059 -9.76001e-06 0
0.000409882 -9.42835e-06 0
0.000409882 -9.42835e-06 0
0.000428525 -9.11143e-06 0
0.000428525 -9.11143e-06 0
0.000446548 -8.80893e-06 0
0.000446548 -8.80893e-06 0
0.00046398 -8.52049e-06 0
0.00046398 -8.52049e-06 0
0.000480848 -8.24569e-06 0
0.000480848 -8.24569e-06 0
0.000497179 -7.98412e-06 0
0.000497179 -7.98412e-06 0
0.000512999 -7.73534e-06 0
0.000512999 -7.73534e-06 0
0.000528334 -7.49897e-06 0
0.000528334 -7.49897e-06 0
0.000543208 -7.2746e-06 0
0.000543208 -7.2746e-06 0
0.000557643 -7.06188e-06 0
0.000557643 -7.06188e-06 0
0.000571665 -6.86044e-06 0
0.000571665 -6.86044e-06 0
0.000585293 -6.6699e-06 0
0.000585293 -6.6699e-06 0
0.000598552 -6.48985e-06 0
0.000598552 -6.48985e-06 0
0.000611456 -6.31997e-06 0
0.000611456 -6.31997e-06 0
0.000624037 -6.15986e-06 0
0.000624037 -6.15986e-06 0
0.000636295 -6.00931e-06 0
0.000636295 -6.00931e-06 0
0.000648277 -5.86788e-06 0
0.000648277 -5.86788e-06 0
0.000659959 -5.7355e-06 0
0.000659959 -5.7355e-06 0
0.000671423 -5.61166e-06 0
0.000671423 -5.61166e-06 0
0.000682589 -5.49655e-06 0
0.000682589 -5.49655e-06 0
0.000693618 -5.38936e-06 0
0.000693618 -5.38936e-06 0
0.00070431 -5.29084e-06 0
0.00070431 -5.29084e-06 0
0.00071501 -5.19949e-06 0
0.00071501 -5.19949e-06 0
0.000725232 -5.11714e-06 0
0.000725232 -5.11714e-06 0
0.000735752 -5.04075e-06 0
0.000735752 -5.04075e-06 0
0.000745437 -4.9745e-06 0
0.000745437 -4.9745e-06 0
0.000756024 -4.91198e-06 0
0.000756024 -4.91198e-06 0
0.000764943 -4.86246e-06 0
0.000764943 -4.86246e-06 0
0.981823 -0.00597466 0
0.981823 -0.00597466 0
1.96288 -0.0119445 0
1.96288 -0.0119445 0
