# vtk DataFile Version 2.0
sampleSurface
ASCII
DATASET POLYDATA
POINTS 652 double
0 0 0
0.02 0 0
0.02 0 0.1
0 0 0.1
0.04 0 0
0.04 0 0.1
0.06 0 0
0.06 0 0.1
0.08 0 0
0.08 0 0.1
0.1 0 0
0.1 0 0.1
0.12 0 0
0.12 0 0.1
0.14 0 0
0.14 0 0.1
0.16 0 0
0.16 0 0.1
0.18 0 0
0.18 0 0.1
0.2 0 0
0.2 0 0.1
0.22 0 0
0.22 0 0.1
0.24 0 0
0.24 0 0.1
0.26 0 0
0.26 0 0.1
0.28 0 0
0.28 0 0.1
0.3 0 0
0.3 0 0.1
0.32 0 0
0.32 0 0.1
0.34 0 0
0.34 0 0.1
0.36 0 0
0.36 0 0.1
0.38 0 0
0.38 0 0.1
0.4 0 0
0.4 0 0.1
0.42 0 0
0.42 0 0.1
0.44 0 0
0.44 0 0.1
0.46 0 0
0.46 0 0.1
0.48 0 0
0.48 0 0.1
0.5 0 0
0.5 0 0.1
0.52 0 0
0.52 0 0.1
0.54 0 0
0.54 0 0.1
0.56 0 0
0.56 0 0.1
0.58 0 0
0.58 0 0.1
0.6 0 0
0.6 0 0.1
0.62 0 0
0.62 0 0.1
0.64 0 0
0.64 0 0.1
0.66 0 0
0.66 0 0.1
0.68 0 0
0.68 0 0.1
0.7 0 0
0.7 0 0.1
0.72 0 0
0.72 0 0.1
0.74 0 0
0.74 0 0.1
0.76 0 0
0.76 0 0.1
0.78 0 0
0.78 0 0.1
0.8 0 0
0.8 0 0.1
0.82 0 0
0.82 0 0.1
0.84 0 0
0.84 0 0.1
0.86 0 0
0.86 0 0.1
0.88 0 0
0.88 0 0.1
0.9 0 0
0.9 0 0.1
0.92 0 0
0.92 0 0.1
0.94 0 0
0.94 0 0.1
0.96 0 0
0.96 0 0.1
0.98 0 0
0.98 0 0.1
1 0 0
1 0 0.1
1.02 0 0
1.02 0 0.1
1.04 0 0
1.04 0 0.1
1.06 0 0
1.06 0 0.1
1.08 0 0
1.08 0 0.1
1.1 0 0
1.1 0 0.1
1.12 0 0
1.12 0 0.1
1.14 0 0
1.14 0 0.1
1.16 0 0
1.16 0 0.1
1.18 0 0
1.18 0 0.1
1.2 0 0
1.2 0 0.1
1.22 0 0
1.22 0 0.1
1.24 0 0
1.24 0 0.1
1.26 0 0
1.26 0 0.1
1.28 0 0
1.28 0 0.1
1.3 0 0
1.3 0 0.1
1.32 0 0
1.32 0 0.1
1.34 0 0
1.34 0 0.1
1.36 0 0
1.36 0 0.1
1.38 0 0
1.38 0 0.1
1.4 0 0
1.4 0 0.1
1.42 0 0
1.42 0 0.1
1.44 0 0
1.44 0 0.1
1.46 0 0
1.46 0 0.1
1.48 0 0
1.48 0 0.1
1.5 0 0
1.5 0 0.1
1.52 0 0
1.52 0 0.1
1.54 0 0
1.54 0 0.1
1.56 0 0
1.56 0 0.1
1.58 0 0
1.58 0 0.1
1.6 0 0
1.6 0 0.1
1.62 0 0
1.62 0 0.1
1.64 0 0
1.64 0 0.1
1.66 0 0
1.66 0 0.1
1.68 0 0
1.68 0 0.1
1.7 0 0
1.7 0 0.1
1.72 0 0
1.72 0 0.1
1.74 0 0
1.74 0 0.1
1.76 0 0
1.76 0 0.1
1.78 0 0
1.78 0 0.1
1.8 0 0
1.8 0 0.1
1.82 0 0
1.82 0 0.1
1.84 0 0
1.84 0 0.1
1.86 0 0
1.86 0 0.1
1.88 0 0
1.88 0 0.1
1.9 0 0
1.9 0 0.1
1.92 0 0
1.92 0 0.1
1.94 0 0
1.94 0 0.1
1.96 0 0
1.96 0 0.1
1.98 0 0
1.98 0 0.1
2 0 0
2 0 0.1
2 0.02 0
2 0.02 0.1
2 0.04 0
2 0.04 0.1
2 0.06 0
2 0.06 0.1
2 0.08 0
2 0.08 0.1
2 0.1 0
2 0.1 0.1
2 0.12 0
2 0.12 0.1
2 0.14 0
2 0.14 0.1
2 0.16 0
2 0.16 0.1
2 0.18 0
2 0.18 0.1
2 0.2 0
2 0.2 0.1
2 0.22 0
2 0.22 0.1
2 0.24 0
2 0.24 0.1
2 0.26 0
2 0.26 0.1
2 0.28 0
2 0.28 0.1
2 0.3 0
2 0.3 0.1
2 0.32 0
2 0.32 0.1
2 0.34 0
2 0.34 0.1
2 0.36 0
2 0.36 0.1
2 0.38 0
2 0.38 0.1
2 0.4 0
2 0.4 0.1
2 0.42 0
2 0.42 0.1
2 0.44 0
2 0.44 0.1
2 0.46 0
2 0.46 0.1
2 0.48 0
2 0.48 0.1
2 0.5 0
2 0.5 0.1
2 0.52 0
2 0.52 0.1
2 0.54 0
2 0.54 0.1
2 0.56 0
2 0.56 0.1
2 0.58 0
2 0.58 0.1
2 0.6 0
2 0.6 0.1
2 0.62 0
2 0.62 0.1
2 0.64 0
2 0.64 0.1
2 0.66 0
2 0.66 0.1
2 0.68 0
2 0.68 0.1
2 0.7 0
2 0.7 0.1
2 0.72 0
2 0.72 0.1
2 0.74 0
2 0.74 0.1
2 0.76 0
2 0.76 0.1
2 0.78 0
2 0.78 0.1
2 0.8 0
2 0.8 0.1
2 0.82 0
2 0.82 0.1
2 0.84 0
2 0.84 0.1
2 0.86 0
2 0.86 0.1
2 0.88 0
2 0.88 0.1
2 0.9 0
2 0.9 0.1
2 0.92 0
2 0.92 0.1
2 0.94 0
2 0.94 0.1
2 0.96 0
2 0.96 0.1
2 0.98 0
2 0.98 0.1
2 1 0
2 1 0.1
2.02 1 0
2.02 1 0.1
2.04 1 0
2.04 1 0.1
2.06 1 0
2.06 1 0.1
2.08 1 0
2.08 1 0.1
2.1 1 0
2.1 1 0.1
2.12 1 0
2.12 1 0.1
2.14 1 0
2.14 1 0.1
2.16 1 0
2.16 1 0.1
2.18 1 0
2.18 1 0.1
2.2 1 0
2.2 1 0.1
2.22 1 0
2.22 1 0.1
2.24 1 0
2.24 1 0.1
2.26 1 0
2.26 1 0.1
2.28 1 0
2.28 1 0.1
2.3 1 0
2.3 1 0.1
2.32 1 0
2.32 1 0.1
2.34 1 0
2.34 1 0.1
2.36 1 0
2.36 1 0.1
2.38 1 0
2.38 1 0.1
2.4 1 0
2.4 1 0.1
2.42 1 0
2.42 1 0.1
2.44 1 0
2.44 1 0.1
2.46 1 0
2.46 1 0.1
2.48 1 0
2.48 1 0.1
2.5 1 0
2.5 1 0.1
2.5 0 0
2.5 0 0.1
2.5 0.02 0.1
2.5 0.02 0
2.5 0.04 0.1
2.5 0.04 0
2.5 0.06 0.1
2.5 0.06 0
2.5 0.08 0.1
2.5 0.08 0
2.5 0.1 0.1
2.5 0.1 0
2.5 0.12 0.1
2.5 0.12 0
2.5 0.14 0.1
2.5 0.14 0
2.5 0.16 0.1
2.5 0.16 0
2.5 0.18 0.1
2.5 0.18 0
2.5 0.2 0.1
2.5 0.2 0
2.5 0.22 0.1
2.5 0.22 0
2.5 0.24 0.1
2.5 0.24 0
2.5 0.26 0.1
2.5 0.26 0
2.5 0.28 0.1
2.5 0.28 0
2.5 0.3 0.1
2.5 0.3 0
2.5 0.32 0.1
2.5 0.32 0
2.5 0.34 0.1
2.5 0.34 0
2.5 0.36 0.1
2.5 0.36 0
2.5 0.38 0.1
2.5 0.38 0
2.5 0.4 0.1
2.5 0.4 0
2.5 0.42 0.1
2.5 0.42 0
2.5 0.44 0.1
2.5 0.44 0
2.5 0.46 0.1
2.5 0.46 0
2.5 0.48 0.1
2.5 0.48 0
2.5 0.5 0.1
2.5 0.5 0
2.5 0.52 0.1
2.5 0.52 0
2.5 0.54 0.1
2.5 0.54 0
2.5 0.56 0.1
2.5 0.56 0
2.5 0.58 0.1
2.5 0.58 0
2.5 0.6 0.1
2.5 0.6 0
2.5 0.62 0.1
2.5 0.62 0
2.5 0.64 0.1
2.5 0.64 0
2.5 0.66 0.1
2.5 0.66 0
2.5 0.68 0.1
2.5 0.68 0
2.5 0.7 0.1
2.5 0.7 0
2.5 0.72 0.1
2.5 0.72 0
2.5 0.74 0.1
2.5 0.74 0
2.5 0.76 0.1
2.5 0.76 0
2.5 0.78 0.1
2.5 0.78 0
2.5 0.8 0.1
2.5 0.8 0
2.5 0.82 0.1
2.5 0.82 0
2.5 0.84 0.1
2.5 0.84 0
2.5 0.86 0.1
2.5 0.86 0
2.5 0.88 0.1
2.5 0.88 0
2.5 0.9 0.1
2.5 0.9 0
2.5 0.92 0.1
2.5 0.92 0
2.5 0.94 0.1
2.5 0.94 0
2.5 0.96 0.1
2.5 0.96 0
2.5 0.98 0.1
2.5 0.98 0
2.52 0 0
2.52 0 0.1
2.54 0 0
2.54 0 0.1
2.56 0 0
2.56 0 0.1
2.58 0 0
2.58 0 0.1
2.6 0 0
2.6 0 0.1
2.62 0 0
2.62 0 0.1
2.64 0 0
2.64 0 0.1
2.66 0 0
2.66 0 0.1
2.68 0 0
2.68 0 0.1
2.7 0 0
2.7 0 0.1
2.72 0 0
2.72 0 0.1
2.74 0 0
2.74 0 0.1
2.76 0 0
2.76 0 0.1
2.78 0 0
2.78 0 0.1
2.8 0 0
2.8 0 0.1
2.82 0 0
2.82 0 0.1
2.84 0 0
2.84 0 0.1
2.86 0 0
2.86 0 0.1
2.88 0 0
2.88 0 0.1
2.9 0 0
2.9 0 0.1
2.92 0 0
2.92 0 0.1
2.94 0 0
2.94 0 0.1
2.96 0 0
2.96 0 0.1
2.98 0 0
2.98 0 0.1
3 0 0
3 0 0.1
3.02 0 0
3.02 0 0.1
3.04 0 0
3.04 0 0.1
3.06 0 0
3.06 0 0.1
3.08 0 0
3.08 0 0.1
3.1 0 0
3.1 0 0.1
3.12 0 0
3.12 0 0.1
3.14 0 0
3.14 0 0.1
3.16 0 0
3.16 0 0.1
3.18 0 0
3.18 0 0.1
3.2 0 0
3.2 0 0.1
3.22 0 0
3.22 0 0.1
3.24 0 0
3.24 0 0.1
3.26 0 0
3.26 0 0.1
3.28 0 0
3.28 0 0.1
3.3 0 0
3.3 0 0.1
3.32 0 0
3.32 0 0.1
3.34 0 0
3.34 0 0.1
3.36 0 0
3.36 0 0.1
3.38 0 0
3.38 0 0.1
3.4 0 0
3.4 0 0.1
3.42 0 0
3.42 0 0.1
3.44 0 0
3.44 0 0.1
3.46 0 0
3.46 0 0.1
3.48 0 0
3.48 0 0.1
3.5 0 0
3.5 0 0.1
3.52 0 0
3.52 0 0.1
3.54 0 0
3.54 0 0.1
3.56 0 0
3.56 0 0.1
3.58 0 0
3.58 0 0.1
3.6 0 0
3.6 0 0.1
3.62 0 0
3.62 0 0.1
3.64 0 0
3.64 0 0.1
3.66 0 0
3.66 0 0.1
3.68 0 0
3.68 0 0.1
3.7 0 0
3.7 0 0.1
3.72 0 0
3.72 0 0.1
3.74 0 0
3.74 0 0.1
3.76 0 0
3.76 0 0.1
3.78 0 0
3.78 0 0.1
3.8 0 0
3.8 0 0.1
3.82 0 0
3.82 0 0.1
3.84 0 0
3.84 0 0.1
3.86 0 0
3.86 0 0.1
3.88 0 0
3.88 0 0.1
3.9 0 0
3.9 0 0.1
3.92 0 0
3.92 0 0.1
3.94 0 0
3.94 0 0.1
3.96 0 0
3.96 0 0.1
3.98 0 0
3.98 0 0.1
4 0 0
4 0 0.1
4.02 0 0
4.02 0 0.1
4.04 0 0
4.04 0 0.1
4.06 0 0
4.06 0 0.1
4.08 0 0
4.08 0 0.1
4.1 0 0
4.1 0 0.1
4.12 0 0
4.12 0 0.1
4.14 0 0
4.14 0 0.1
4.16 0 0
4.16 0 0.1
4.18 0 0
4.18 0 0.1
4.2 0 0
4.2 0 0.1
4.22 0 0
4.22 0 0.1
4.24 0 0
4.24 0 0.1
4.26 0 0
4.26 0 0.1
4.28 0 0
4.28 0 0.1
4.3 0 0
4.3 0 0.1
4.32 0 0
4.32 0 0.1
4.34 0 0
4.34 0 0.1
4.36 0 0
4.36 0 0.1
4.38 0 0
4.38 0 0.1
4.4 0 0
4.4 0 0.1
4.42 0 0
4.42 0 0.1
4.44 0 0
4.44 0 0.1
4.46 0 0
4.46 0 0.1
4.48 0 0
4.48 0 0.1
4.5 0 0
4.5 0 0.1

POLYGONS 325 1625
4 0 1 2 3
4 1 4 5 2
4 4 6 7 5
4 6 8 9 7
4 8 10 11 9
4 10 12 13 11
4 12 14 15 13
4 14 16 17 15
4 16 18 19 17
4 18 20 21 19
4 20 22 23 21
4 22 24 25 23
4 24 26 27 25
4 26 28 29 27
4 28 30 31 29
4 30 32 33 31
4 32 34 35 33
4 34 36 37 35
4 36 38 39 37
4 38 40 41 39
4 40 42 43 41
4 42 44 45 43
4 44 46 47 45
4 46 48 49 47
4 48 50 51 49
4 50 52 53 51
4 52 54 55 53
4 54 56 57 55
4 56 58 59 57
4 58 60 61 59
4 60 62 63 61
4 62 64 65 63
4 64 66 67 65
4 66 68 69 67
4 68 70 71 69
4 70 72 73 71
4 72 74 75 73
4 74 76 77 75
4 76 78 79 77
4 78 80 81 79
4 80 82 83 81
4 82 84 85 83
4 84 86 87 85
4 86 88 89 87
4 88 90 91 89
4 90 92 93 91
4 92 94 95 93
4 94 96 97 95
4 96 98 99 97
4 98 100 101 99
4 100 102 103 101
4 102 104 105 103
4 104 106 107 105
4 106 108 109 107
4 108 110 111 109
4 110 112 113 111
4 112 114 115 113
4 114 116 117 115
4 116 118 119 117
4 118 120 121 119
4 120 122 123 121
4 122 124 125 123
4 124 126 127 125
4 126 128 129 127
4 128 130 131 129
4 130 132 133 131
4 132 134 135 133
4 134 136 137 135
4 136 138 139 137
4 138 140 141 139
4 140 142 143 141
4 142 144 145 143
4 144 146 147 145
4 146 148 149 147
4 148 150 151 149
4 150 152 153 151
4 152 154 155 153
4 154 156 157 155
4 156 158 159 157
4 158 160 161 159
4 160 162 163 161
4 162 164 165 163
4 164 166 167 165
4 166 168 169 167
4 168 170 171 169
4 170 172 173 171
4 172 174 175 173
4 174 176 177 175
4 176 178 179 177
4 178 180 181 179
4 180 182 183 181
4 182 184 185 183
4 184 186 187 185
4 186 188 189 187
4 188 190 191 189
4 190 192 193 191
4 192 194 195 193
4 194 196 197 195
4 196 198 199 197
4 198 200 201 199
4 200 202 203 201
4 202 204 205 203
4 204 206 207 205
4 206 208 209 207
4 208 210 211 209
4 210 212 213 211
4 212 214 215 213
4 214 216 217 215
4 216 218 219 217
4 218 220 221 219
4 220 222 223 221
4 222 224 225 223
4 224 226 227 225
4 226 228 229 227
4 228 230 231 229
4 230 232 233 231
4 232 234 235 233
4 234 236 237 235
4 236 238 239 237
4 238 240 241 239
4 240 242 243 241
4 242 244 245 243
4 244 246 247 245
4 246 248 249 247
4 248 250 251 249
4 250 252 253 251
4 252 254 255 253
4 254 256 257 255
4 256 258 259 257
4 258 260 261 259
4 260 262 263 261
4 262 264 265 263
4 264 266 267 265
4 266 268 269 267
4 268 270 271 269
4 270 272 273 271
4 272 274 275 273
4 274 276 277 275
4 276 278 279 277
4 278 280 281 279
4 280 282 283 281
4 282 284 285 283
4 284 286 287 285
4 286 288 289 287
4 288 290 291 289
4 290 292 293 291
4 292 294 295 293
4 294 296 297 295
4 296 298 299 297
4 298 300 301 299
4 300 302 303 301
4 302 304 305 303
4 304 306 307 305
4 306 308 309 307
4 308 310 311 309
4 310 312 313 311
4 312 314 315 313
4 314 316 317 315
4 316 318 319 317
4 318 320 321 319
4 320 322 323 321
4 322 324 325 323
4 324 326 327 325
4 326 328 329 327
4 328 330 331 329
4 330 332 333 331
4 332 334 335 333
4 334 336 337 335
4 336 338 339 337
4 338 340 341 339
4 340 342 343 341
4 342 344 345 343
4 344 346 347 345
4 346 348 349 347
4 348 350 351 349
4 352 353 354 355
4 355 354 356 357
4 357 356 358 359
4 359 358 360 361
4 361 360 362 363
4 363 362 364 365
4 365 364 366 367
4 367 366 368 369
4 369 368 370 371
4 371 370 372 373
4 373 372 374 375
4 375 374 376 377
4 377 376 378 379
4 379 378 380 381
4 381 380 382 383
4 383 382 384 385
4 385 384 386 387
4 387 386 388 389
4 389 388 390 391
4 391 390 392 393
4 393 392 394 395
4 395 394 396 397
4 397 396 398 399
4 399 398 400 401
4 401 400 402 403
4 403 402 404 405
4 405 404 406 407
4 407 406 408 409
4 409 408 410 411
4 411 410 412 413
4 413 412 414 415
4 415 414 416 417
4 417 416 418 419
4 419 418 420 421
4 421 420 422 423
4 423 422 424 425
4 425 424 426 427
4 427 426 428 429
4 429 428 430 431
4 431 430 432 433
4 433 432 434 435
4 435 434 436 437
4 437 436 438 439
4 439 438 440 441
4 441 440 442 443
4 443 442 444 445
4 445 444 446 447
4 447 446 448 449
4 449 448 450 451
4 451 450 351 350
4 352 452 453 353
4 452 454 455 453
4 454 456 457 455
4 456 458 459 457
4 458 460 461 459
4 460 462 463 461
4 462 464 465 463
4 464 466 467 465
4 466 468 469 467
4 468 470 471 469
4 470 472 473 471
4 472 474 475 473
4 474 476 477 475
4 476 478 479 477
4 478 480 481 479
4 480 482 483 481
4 482 484 485 483
4 484 486 487 485
4 486 488 489 487
4 488 490 491 489
4 490 492 493 491
4 492 494 495 493
4 494 496 497 495
4 496 498 499 497
4 498 500 501 499
4 500 502 503 501
4 502 504 505 503
4 504 506 507 505
4 506 508 509 507
4 508 510 511 509
4 510 512 513 511
4 512 514 515 513
4 514 516 517 515
4 516 518 519 517
4 518 520 521 519
4 520 522 523 521
4 522 524 525 523
4 524 526 527 525
4 526 528 529 527
4 528 530 531 529
4 530 532 533 531
4 532 534 535 533
4 534 536 537 535
4 536 538 539 537
4 538 540 541 539
4 540 542 543 541
4 542 544 545 543
4 544 546 547 545
4 546 548 549 547
4 548 550 551 549
4 550 552 553 551
4 552 554 555 553
4 554 556 557 555
4 556 558 559 557
4 558 560 561 559
4 560 562 563 561
4 562 564 565 563
4 564 566 567 565
4 566 568 569 567
4 568 570 571 569
4 570 572 573 571
4 572 574 575 573
4 574 576 577 575
4 576 578 579 577
4 578 580 581 579
4 580 582 583 581
4 582 584 585 583
4 584 586 587 585
4 586 588 589 587
4 588 590 591 589
4 590 592 593 591
4 592 594 595 593
4 594 596 597 595
4 596 598 599 597
4 598 600 601 599
4 600 602 603 601
4 602 604 605 603
4 604 606 607 605
4 606 608 609 607
4 608 610 611 609
4 610 612 613 611
4 612 614 615 613
4 614 616 617 615
4 616 618 619 617
4 618 620 621 619
4 620 622 623 621
4 622 624 625 623
4 624 626 627 625
4 626 628 629 627
4 628 630 631 629
4 630 632 633 631
4 632 634 635 633
4 634 636 637 635
4 636 638 639 637
4 638 640 641 639
4 640 642 643 641
4 642 644 645 643
4 644 646 647 645
4 646 648 649 647
4 648 650 651 649
POINT_DATA 652
FIELD attributes 1
U 3 652 float
2.40286 -0.0200718 0.0212609
1.20192 -0.0100378 0.0106304
1.20192 -0.0100378 0.0106304
2.40286 -0.0200718 0.0212609
0.000979797 -2.07424e-06 0
0.000979797 -2.07424e-06 0
0.000981104 1.03681e-07 0
0.000981104 1.03681e-07 0
0.000981677 7.5924e-07 0
0.000981677 7.5924e-07 0
0.000983206 8.56331e-07 0
0.000983206 8.56331e-07 0
0.000985327 3.17792e-07 0
0.000985327 3.17792e-07 0
0.000986673 -4.66139e-07 0
0.000986673 -4.66139e-07 0
0.000986339 -6.77108e-07 0
0.000986339 -6.77108e-07 0
0.00098429 -2.47206e-07 0
0.00098429 -2.47206e-07 0
0.000981492 3.71769e-08 0
0.000981492 3.71769e-08 0
0.000979264 -3.76881e-07 0
0.000979264 -3.76881e-07 0
0.000978059 -1.05723e-06 0
0.000978059 -1.05723e-06 0
0.000977132 -1.11566e-06 0
0.000977132 -1.11566e-06 0
0.000975488 -3.01372e-07 0
0.000975488 -3.01372e-07 0
0.00097294 7.6409e-07 0
0.00097294 7.6409e-07 0
0.00097017 1.38489e-06 0
0.00097017 1.38489e-06 0
0.000967884 1.58403e-06 0
0.000967884 1.58403e-06 0
0.000966065 1.98229e-06 0
0.000966065 1.98229e-06 0
0.000964033 2.94229e-06 0
0.000964033 2.94229e-06 0
0.000961142 4.01919e-06 0
0.000961142 4.01919e-06 0
0.000957408 4.34717e-06 0
0.000957408 4.34717e-06 0
0.000953464 3.56747e-06 0
0.000953464 3.56747e-06 0
0.000949907 2.37799e-06 0
0.000949907 2.37799e-06 0
0.0009467 2.04999e-06 0
0.0009467 2.04999e-06 0
0.000943158 3.25673e-06 0
0.000943158 3.25673e-06 0
0.000938558 5.35194e-06 0
0.000938558 5.35194e-06 0
0.000932856 6.81185e-06 0
0.000932856 6.81185e-06 0
0.000926808 6.45639e-06 0
0.000926808 6.45639e-06 0
0.000921362 4.42921e-06 0
0.000921362 4.42921e-06 0
0.000916882 2.1326e-06 0
0.000916882 2.1326e-06 0
0.000912828 1.19514e-06 0
0.000912828 1.19514e-06 0
0.000908059 2.31946e-06 0
0.000908059 2.31946e-06 0
0.000901539 4.78149e-06 0
0.000901539 4.78149e-06 0
0.000893039 6.86085e-06 0
0.000893039 6.86085e-06 0
0.000883356 6.98377e-06 0
0.000883356 6.98377e-06 0
0.000873886 4.89957e-06 0
0.000873886 4.89957e-06 0
0.000865807 2.03323e-06 0
0.000865807 2.03323e-06 0
0.000859401 5.18654e-07 0
0.000859401 5.18654e-07 0
0.000853886 1.54093e-06 0
0.000853886 1.54093e-06 0
0.000847964 4.39031e-06 0
0.000847964 4.39031e-06 0
0.000840743 7.06406e-06 0
0.000840743 7.06406e-06 0
0.000832271 7.96141e-06 0
0.000832271 7.96141e-06 0
0.000823224 7.10862e-06 0
0.000823224 7.10862e-06 0
0.000814149 5.8057e-06 0
0.000814149 5.8057e-06 0
0.000805041 5.28634e-06 0
0.000805041 5.28634e-06 0
0.000795517 5.83286e-06 0
0.000795517 5.83286e-06 0
0.000785204 6.98272e-06 0
0.000785204 6.98272e-06 0
0.000773915 8.17305e-06 0
0.000773915 8.17305e-06 0
0.000761646 8.98773e-06 0
0.000761646 8.98773e-06 0
0.000748643 9.06561e-06 0
0.000748643 9.06561e-06 0
0.000735436 8.22491e-06 0
0.000735436 8.22491e-06 0
0.00072258 6.78767e-06 0
0.00072258 6.78767e-06 0
0.000710199 5.50795e-06 0
0.000710199 5.50795e-06 0
0.00069786 4.96676e-06 0
0.00069786 4.96676e-06 0
0.000685025 5.15224e-06 0
0.000685025 5.15224e-06 0
0.000671556 5.81785e-06 0
0.000671556 5.81785e-06 0
0.00065758 7.09627e-06 0
0.00065758 7.09627e-06 0
0.000642855 9.31665e-06 0
0.000642855 9.31665e-06 0
0.000626617 1.2078e-05 0
0.000626617 1.2078e-05 0
0.000608335 1.40462e-05 0
0.000608335 1.40462e-05 0
0.000588444 1.43284e-05 0
0.000588444 1.43284e-05 0
0.000567847 1.39411e-05 0
0.000567847 1.39411e-05 0
0.000546514 1.51451e-05 0
0.000546514 1.51451e-05 0
0.000522948 1.88813e-05 0
0.000522948 1.88813e-05 0
0.000495515 2.32474e-05 0
0.000495515 2.32474e-05 0
0.000464337 2.51033e-05 0
0.000464337 2.51033e-05 0
0.00043159 2.30997e-05 0
0.00043159 2.30997e-05 0
0.000399964 1.86114e-05 0
0.000399964 1.86114e-05 0
0.000371086 1.40484e-05 0
0.000371086 1.40484e-05 0
0.000345208 1.09895e-05 0
0.000345208 1.09895e-05 0
0.000321759 9.66824e-06 0
0.000321759 9.66824e-06 0
0.00029989 9.48889e-06 0
0.00029989 9.48889e-06 0
0.000278811 9.76368e-06 0
0.000278811 9.76368e-06 0
0.000257968 1.0072e-05 0
0.000257968 1.0072e-05 0
0.000237066 1.02347e-05 0
0.000237066 1.02347e-05 0
0.000216009 1.02194e-05 0
0.000216009 1.02194e-05 0
0.000194833 1.00487e-05 0
0.000194833 1.00487e-05 0
0.000173648 9.74507e-06 0
0.000173648 9.74507e-06 0
0.000152606 9.3163e-06 0
0.000152606 9.3163e-06 0
0.000131882 8.7591e-06 0
0.000131882 8.7591e-06 0
0.000111665 8.06666e-06 0
0.000111665 8.06666e-06 0
9.21598e-05 7.23438e-06 0
9.21598e-05 7.23438e-06 0
7.35758e-05 6.26255e-06 0
7.35758e-05 6.26255e-06 0
5.61251e-05 5.15842e-06 0
5.61251e-05 5.15842e-06 0
4.00111e-05 3.94167e-06 0
4.00111e-05 3.94167e-06 0
2.54169e-05 2.64793e-06 0
2.54169e-05 2.64793e-06 0
1.24969e-05 1.31422e-06 0
1.24969e-05 1.31422e-06 0
1.36729e-06 -2.78024e-08 0
1.36729e-06 -2.78024e-08 0
-7.88805e-06 -1.34414e-06 0
-7.88805e-06 -1.34414e-06 0
-1.52173e-05 -2.60693e-06 0
-1.52173e-05 -2.60693e-06 0
-2.06182e-05 -3.79485e-06 0
-2.06182e-05 -3.79485e-06 0
-2.41304e-05 -4.88794e-06 0
-2.41304e-05 -4.88794e-06 0
-2.58312e-05 -5.87376e-06 0
-2.58312e-05 -5.87376e-06 0
-2.58184e-05 -6.73389e-06 0
-2.58184e-05 -6.73389e-06 0
-2.42168e-05 -7.44916e-06 0
-2.42168e-05 -7.44916e-06 0
-2.12067e-05 -8.01055e-06 0
-2.12067e-05 -8.01055e-06 0
-1.70226e-05 -8.43002e-06 0
-1.70226e-05 -8.43002e-06 0
-1.1895e-05 -8.74641e-06 0
-1.1895e-05 -8.74641e-06 0
-6.1052e-06 -8.90728e-06 0
-6.1052e-06 -8.90728e-06 0
-3.09021e-06 -8.93013e-06 0
-3.09021e-06 -8.93013e-06 0
2.01533e-06 -6.07984e-06 0
2.01533e-06 -6.07984e-06 0
1.01275e-05 8.36528e-06 0
1.01275e-05 8.36528e-06 0
1.42905e-05 3.47375e-05 0
1.42905e-05 3.47375e-05 0
1.55485e-05 6.54651e-05 0
1.55485e-05 6.54651e-05 0
1.52313e-05 9.66932e-05 0
1.52313e-05 9.66932e-05 0
1.42292e-05 0.000126209 0
1.42292e-05 0.000126209 0
1.30881e-05 0.000153492 0
1.30881e-05 0.000153492 0
1.20817e-05 0.000178577 0
1.20817e-05 0.000178577 0
1.13183e-05 0.000201924 0
1.13183e-05 0.000201924 0
1.08144e-05 0.000224054 0
1.08144e-05 0.000224054 0
1.05405e-05 0.000245435 0
1.05405e-05 0.000245435 0
1.04489e-05 0.000266469 0
1.04489e-05 0.000266469 0
1.04908e-05 0.000287478 0
1.04908e-05 0.000287478 0
1.06247e-05 0.000308682 0
1.06247e-05 0.000308682 0
1.0818e-05 0.000330223 0
1.0818e-05 0.000330223 0
1.1048e-05 0.000352191 0
1.1048e-05 0.000352191 0
1.12998e-05 0.000374641 0
1.12998e-05 0.000374641 0
1.15651e-05 0.000397605 0
1.15651e-05 0.000397605 0
1.18397e-05 0.000421105 0
1.18397e-05 0.000421105 0
1.21231e-05 0.000445159 0
1.21231e-05 0.000445159 0
1.24162e-05 0.000469783 0
1.24162e-05 0.000469783 0
1.2722e-05 0.000495001 0
1.2722e-05 0.000495001 0
1.30434e-05 0.00052084 0
1.30434e-05 0.00052084 0
1.3385e-05 0.000547339 0
1.3385e-05 0.000547339 0
1.37501e-05 0.000574538 0
1.37501e-05 0.000574538 0
1.41452e-05 0.000602494 0
1.41452e-05 0.000602494 0
1.45725e-05 0.000631266 0
1.45725e-05 0.000631266 0
1.50423e-05 0.000660933 0
1.50423e-05 0.000660933 0
1.55535e-05 0.000691571 0
1.55535e-05 0.000691571 0
1.61255e-05 0.000723295 0
1.61255e-05 0.000723295 0
1.67473e-05 0.000756193 0
1.67473e-05 0.000756193 0
1.74624e-05 0.00079044 0
1.74624e-05 0.00079044 0
1.8229e-05 0.00082613 0
1.8229e-05 0.00082613 0
1.91492e-05 0.000863543 0
1.91492e-05 0.000863543 0
2.01092e-05 0.000902748 0
2.01092e-05 0.000902748 0
2.13472e-05 0.000944246 0
2.13472e-05 0.000944246 0
2.25375e-05 0.000987977 0
2.25375e-05 0.000987977 0
2.43511e-05 0.00103491 0
2.43511e-05 0.00103491 0
2.57611e-05 0.00108467 0
2.57611e-05 0.00108467 0
2.86621e-05 0.00113914 0
2.86621e-05 0.00113914 0
3.02456e-05 0.00119726 0
3.02456e-05 0.00119726 0
3.53344e-05 0.00126282 0
3.53344e-05 0.00126282 0
3.68475e-05 0.00133326 0
3.68475e-05 0.00133326 0
4.69227e-05 0.00141655 0
4.69227e-05 0.00141655 0
4.81305e-05 0.00150801 0
4.81305e-05 0.00150801 0
7.14553e-05 0.00162343 0
7.14553e-05 0.00162343 0
7.51538e-05 0.00175991 0
7.51538e-05 0.00175991 0
0.000142126 0.00194605 0
0.000142126 0.00194605 0
0.000173704 0.00219931 0
0.000173704 0.00219931 0
0.000232495 0.00142634 0
0.000232495 0.00142634 0
-0.000251951 0.000104409 0
-0.000251951 0.000104409 0
-0.000266761 -0.000293067 0
-0.000266761 -0.000293067 0
-0.000120508 6.67437e-06 0
-0.000120508 6.67437e-06 0
-0.000690784 0.000307412 0
-0.000690784 0.000307412 0
-0.00118243 0.000326887 0
-0.00118243 0.000326887 0
-0.00173372 0.000288201 0
-0.00173372 0.000288201 0
-0.00211015 0.000215143 0
-0.00211015 0.000215143 0
-0.00239188 0.000139884 0
-0.00239188 0.000139884 0
-0.00254041 7.18662e-05 0
-0.00254041 7.18662e-05 0
-0.00259805 1.39267e-05 0
-0.00259805 1.39267e-05 0
-0.00255446 -3.83149e-05 0
-0.00255446 -3.83149e-05 0
-0.00242584 -8.52496e-05 0
-0.00242584 -8.52496e-05 0
-0.00220101 -0.000130035 0
-0.00220101 -0.000130035 0
-0.00188154 -0.000171127 0
-0.00188154 -0.000171127 0
-0.00147406 -0.000202784 0
-0.00147406 -0.000202784 0
-0.00101902 -0.000218237 0
-0.00101902 -0.000218237 0
-0.000565769 -0.000224764 0
-0.000565769 -0.000224764 0
-0.000131352 -0.000209371 0
-0.000131352 -0.000209371 0
0.000251088 -0.000169697 0
0.000251088 -0.000169697 0
0.000564781 -0.000175322 0
0.000564781 -0.000175322 0
0.000907389 -0.000173552 0
0.000907389 -0.000173552 0
0.00119977 -0.000120289 0
0.00119977 -0.000120289 0
0.00141794 -0.000104576 0
0.00141794 -0.000104576 0
0.00156367 8.72513e-05 0
0.00156367 8.72513e-05 0
0.000789123 3.74277e-05 0
0.000789123 3.74277e-05 0
-7.55051e-06 5.53248e-06 0
-7.55051e-06 5.53248e-06 0
-8.92146e-06 1.47264e-05 0
-8.92146e-06 1.47264e-05 0
-1.01937e-05 3.44964e-05 0
-1.01937e-05 3.44964e-05 0
-9.8467e-06 5.42887e-05 0
-9.8467e-06 5.42887e-05 0
-9.43623e-06 7.26887e-05 0
-9.43623e-06 7.26887e-05 0
-9.17019e-06 9.07375e-05 0
-9.17019e-06 9.07375e-05 0
-8.98014e-06 0.0001083 0
-8.98014e-06 0.0001083 0
-8.80322e-06 0.000125539 0
-8.80322e-06 0.000125539 0
-8.60784e-06 0.000142435 0
-8.60784e-06 0.000142435 0
-8.38147e-06 0.000158924 0
-8.38147e-06 0.000158924 0
-8.11974e-06 0.00017494 0
-8.11974e-06 0.00017494 0
-7.82104e-06 0.00019041 0
-7.82104e-06 0.00019041 0
-7.48457e-06 0.000205261 0
-7.48457e-06 0.000205261 0
-7.10937e-06 0.000219415 0
-7.10937e-06 0.000219415 0
-6.69481e-06 0.000232797 0
-6.69481e-06 0.000232797 0
-6.24099e-06 0.000245326 0
-6.24099e-06 0.000245326 0
-5.74856e-06 0.000256927 0
-5.74856e-06 0.000256927 0
-5.2193e-06 0.000267523 0
-5.2193e-06 0.000267523 0
-4.65673e-06 0.000277042 0
-4.65673e-06 0.000277042 0
-4.06445e-06 0.000285416 0
-4.06445e-06 0.000285416 0
-3.44628e-06 0.000292583 0
-3.44628e-06 0.000292583 0
-2.80737e-06 0.000298497 0
-2.80737e-06 0.000298497 0
-2.1519e-06 0.000303111 0
-2.1519e-06 0.000303111 0
-1.48883e-06 0.00030641 0
-1.48883e-06 0.00030641 0
-8.17796e-07 0.000308355 0
-8.17796e-07 0.000308355 0
-1.31913e-07 0.000309003 0
-1.31913e-07 0.000309003 0
5.59584e-07 0.000308231 0
5.59584e-07 0.000308231 0
1.2419e-06 0.000306242 0
1.2419e-06 0.000306242 0
1.9365e-06 0.000302794 0
1.9365e-06 0.000302794 0
2.60679e-06 0.000298391 0
2.60679e-06 0.000298391 0
3.25401e-06 0.000292469 0
3.25401e-06 0.000292469 0
3.82787e-06 0.000286084 0
3.82787e-06 0.000286084 0
4.36923e-06 0.000278186 0
4.36923e-06 0.000278186 0
4.78023e-06 0.00027034 0
4.78023e-06 0.00027034 0
5.17472e-06 0.000261169 0
5.17472e-06 0.000261169 0
5.28019e-06 0.000252462 0
5.28019e-06 0.000252462 0
5.32692e-06 0.000242945 0
5.32692e-06 0.000242945 0
5.5366e-06 0.000234294 0
5.5366e-06 0.000234294 0
4.34582e-06 0.000224433 0
4.34582e-06 0.000224433 0
5.90885e-06 0.000218913 0
5.90885e-06 0.000218913 0
4.70473e-06 0.000206326 0
4.70473e-06 0.000206326 0
1.53343e-06 0.000201289 0
1.53343e-06 0.000201289 0
5.45354e-06 0.000200581 0
5.45354e-06 0.000200581 0
1.09692e-05 0.000182142 0
1.09692e-05 0.000182142 0
-5.84642e-07 0.000180669 0
-5.84642e-07 0.000180669 0
5.79239e-08 0.000170422 0
5.79239e-08 0.000170422 0
1.73421e-05 0.000157898 0
1.73421e-05 0.000157898 0
8.53666e-06 0.000126986 0
8.53666e-06 0.000126986 0
5.10452e-05 0.000126193 0
5.10452e-05 0.000126193 0
4.79986e-05 -2.72433e-05 0
4.79986e-05 -2.72433e-05 0
-1.46439e-05 5.55655e-06 0
-1.46439e-05 5.55655e-06 0
-2.92668e-05 5.7463e-06 0
-2.92668e-05 5.7463e-06 0
-4.4445e-05 6.10435e-06 0
-4.4445e-05 6.10435e-06 0
-6.003e-05 6.53617e-06 0
-6.003e-05 6.53617e-06 0
-7.62508e-05 7.05069e-06 0
-7.62508e-05 7.05069e-06 0
-9.31546e-05 7.61677e-06 0
-9.31546e-05 7.61677e-06 0
-0.000110785 8.20333e-06 0
-0.000110785 8.20333e-06 0
-0.000129156 8.78561e-06 0
-0.000129156 8.78561e-06 0
-0.000148244 9.34258e-06 0
-0.000148244 9.34258e-06 0
-0.00016802 9.8624e-06 0
-0.00016802 9.8624e-06 0
-0.000188435 1.03407e-05 0
-0.000188435 1.03407e-05 0
-0.000209448 1.07783e-05 0
-0.000209448 1.07783e-05 0
-0.000231007 1.11763e-05 0
-0.000231007 1.11763e-05 0
-0.000253065 1.1533e-05 0
-0.000253065 1.1533e-05 0
-0.000275558 1.18414e-05 0
-0.000275558 1.18414e-05 0
-0.000298416 1.20914e-05 0
-0.000298416 1.20914e-05 0
-0.000321548 1.22749e-05 0
-0.000321548 1.22749e-05 0
-0.000344837 1.23859e-05 0
-0.000344837 1.23859e-05 0
-0.000368139 1.24136e-05 0
-0.000368139 1.24136e-05 0
-0.000391287 1.23407e-05 0
-0.000391287 1.23407e-05 0
-0.000414086 1.21496e-05 0
-0.000414086 1.21496e-05 0
-0.000436319 1.18236e-05 0
-0.000436319 1.18236e-05 0
-0.000457741 1.13487e-05 0
-0.000457741 1.13487e-05 0
-0.000478085 1.07134e-05 0
-0.000478085 1.07134e-05 0
-0.000497065 9.90905e-06 0
-0.000497065 9.90905e-06 0
-0.000514381 8.93067e-06 0
-0.000514381 8.93067e-06 0
-0.000529723 7.77825e-06 0
-0.000529723 7.77825e-06 0
-0.000542786 6.45732e-06 0
-0.000542786 6.45732e-06 0
-0.000553278 4.9825e-06 0
-0.000553278 4.9825e-06 0
-0.000560935 3.38238e-06 0
-0.000560935 3.38238e-06 0
-0.000565537 1.69486e-06 0
-0.000565537 1.69486e-06 0
-0.000566884 -2.37602e-08 0
-0.000566884 -2.37602e-08 0
-0.000564936 -1.71672e-06 0
-0.000564936 -1.71672e-06 0
-0.000559707 -3.37958e-06 0
-0.000559707 -3.37958e-06 0
-0.000551164 -5.02066e-06 0
-0.000551164 -5.02066e-06 0
-0.000539356 -6.62394e-06 0
-0.000539356 -6.62394e-06 0
-0.000524379 -8.1685e-06 0
-0.000524379 -8.1685e-06 0
-0.000506378 -9.63044e-06 0
-0.000506378 -9.63044e-06 0
-0.000485544 -1.09883e-05 0
-0.000485544 -1.09883e-05 0
-0.000462106 -1.22247e-05 0
-0.000462106 -1.22247e-05 0
-0.000436325 -1.33264e-05 0
-0.000436325 -1.33264e-05 0
-0.000408483 -1.4285e-05 0
-0.000408483 -1.4285e-05 0
-0.000378873 -1.50964e-05 0
-0.000378873 -1.50964e-05 0
-0.000347793 -1.57606e-05 0
-0.000347793 -1.57606e-05 0
-0.000315535 -1.6281e-05 0
-0.000315535 -1.6281e-05 0
-0.000282383 -1.66639e-05 0
-0.000282383 -1.66639e-05 0
-0.000248605 -1.69177e-05 0
-0.000248605 -1.69177e-05 0
-0.000214451 -1.70532e-05 0
-0.000214451 -1.70532e-05 0
-0.000180148 -1.70828e-05 0
-0.000180148 -1.70828e-05 0
-0.00014589 -1.70155e-05 0
-0.00014589 -1.70155e-05 0
-0.000111845 -1.68657e-05 0
-0.000111845 -1.68657e-05 0
-7.81639e-05 -1.66455e-05 0
-7.81639e-05 -1.66455e-05 0
-4.49754e-05 -1.63647e-05 0
-4.49754e-05 -1.63647e-05 0
-1.24146e-05 -1.60356e-05 0
-1.24146e-05 -1.60356e-05 0
1.94095e-05 -1.56682e-05 0
1.94095e-05 -1.56682e-05 0
5.04625e-05 -1.52724e-05 0
5.04625e-05 -1.52724e-05 0
8.07082e-05 -1.48552e-05 0
8.07082e-05 -1.48552e-05 0
0.000110102 -1.44239e-05 0
0.000110102 -1.44239e-05 0
0.000138623 -1.39846e-05 0
0.000138623 -1.39846e-05 0
0.000166261 -1.35426e-05 0
0.000166261 -1.35426e-05 0
0.000193015 -1.31022e-05 0
0.000193015 -1.31022e-05 0
0.000218891 -1.26667e-05 0
0.000218891 -1.26667e-05 0
0.000243904 -1.2239e-05 0
0.000243904 -1.2239e-05 0
0.00026807 -1.18213e-05 0
0.00026807 -1.18213e-05 0
0.000291412 -1.14152e-05 0
0.000291412 -1.14152e-05 0
0.000313953 -1.10217e-05 0
0.000313953 -1.10217e-05 0
0.00033572 -1.06418e-05 0
0.00033572 -1.06418e-05 0
0.000356741 -1.02757e-05 0
0.000356741 -1.02757e-05 0
0.000377044 -9.92391e-06 0
0.000377044 -9.92391e-06 0
0.000396657 -9.58634e-06 0
0.000396657 -9.58634e-06 0
0.000415608 -9.26295e-06 0
0.000415608 -9.26295e-06 0
0.000433927 -8.95359e-06 0
0.000433927 -8.95359e-06 0
0.00045164 -8.65799e-06 0
0.00045164 -8.65799e-06 0
0.000468774 -8.37583e-06 0
0.000468774 -8.37583e-06 0
0.000485357 -8.10674e-06 0
0.000485357 -8.10674e-06 0
0.000501414 -7.85035e-06 0
0.000501414 -7.85035e-06 0
0.00051697 -7.60628e-06 0
0.00051697 -7.60628e-06 0
0.000532049 -7.37419e-06 0
0.000532049 -7.37419e-06 0
0.000546676 -7.15372e-06 0
0.000546676 -7.15372e-06 0
0.000560871 -6.94454e-06 0
0.000560871 -6.94454e-06 0
0.00057466 -6.74626e-06 0
0.00057466 -6.74626e-06 0
0.00058806 -6.55852e-06 0
0.00058806 -6.55852e-06 0
0.000601098 -6.38094e-06 0
0.000601098 -6.38094e-06 0
0.000613784 -6.21319e-06 0
0.000613784 -6.21319e-06 0
0.000626151 -6.05491e-06 0
0.000626151 -6.05491e-06 0
0.000638199 -5.90589e-06 0
0.000638199 -5.90589e-06 0
0.000649973 -5.76572e-06 0
0.000649973 -5.76572e-06 0
0.000661451 -5.63434e-06 0
0.000661451 -5.63434e-06 0
0.00067271 -5.51122e-06 0
0.00067271 -5.51122e-06 0
0.000683675 -5.39659e-06 0
0.000683675 -5.39659e-06 0
0.000694502 -5.28963e-06 0
0.000694502 -5.28963e-06 0
0.000704994 -5.19108e-06 0
0.000704994 -5.19108e-06 0
0.000715489 -5.09942e-06 0
0.000715489 -5.09942e-06 0
0.000725513 -5.01652e-06 0
0.000725513 -5.01652e-06 0
0.000735822 -4.93919e-06 0
0.000735822 -4.93919e-06 0
0.000745311 -4.87187e-06 0
0.000745311 -4.87187e-06 0
0.000755675 -4.80777e-06 0
0.000755675 -4.80777e-06 0
0.000764403 -4.75679e-06 0
0.000764403 -4.75679e-06 0
0.980587 -0.00583693 0
0.980587 -0.00583693 0
1.96041 -0.0116691 0
1.96041 -0.0116691 0
