/*--------------------------------*- C++ -*----------------------------------*\
| =========                 |                                                 |
| \\      /  F ield         | OpenFOAM: The Open Source CFD Toolbox           |
|  \\    /   O peration     | Version:  4.1                                   |
|   \\  /    A nd           | Web:      www.OpenFOAM.org                      |
|    \\/     M anipulation  |                                                 |
\*---------------------------------------------------------------------------*/
FoamFile
{
    version     2.0;
    format      ascii;
    class       volScalarField;
    location    "0.01";
    object      k;
}
// * * * * * * * * * * * * * * * * * * * * * * * * * * * * * * * * * * * * * //

dimensions      [0 2 -2 0 0 0 0];

internalField   nonuniform List<scalar> 
43750
(
0.383939
0.392018
0.398931
0.404689
0.409115
0.411982
0.413524
0.414212
0.414335
0.41406
0.413565
0.41298
0.412352
0.411699
0.411034
0.410364
0.40969
0.409011
0.408327
0.407639
0.406945
0.406245
0.405539
0.404825
0.404105
0.403377
0.40264
0.401895
0.40114
0.400376
0.399601
0.398816
0.39802
0.397211
0.396391
0.395558
0.394712
0.393851
0.392977
0.392087
0.391183
0.390262
0.389325
0.38837
0.387398
0.386408
0.385399
0.38437
0.383322
0.382253
0.381163
0.380052
0.378918
0.377762
0.376582
0.375379
0.374151
0.372898
0.37162
0.370316
0.368986
0.36763
0.366246
0.364835
0.363396
0.36193
0.360435
0.358912
0.35736
0.35578
0.354171
0.352534
0.350869
0.349176
0.347455
0.345707
0.343932
0.34213
0.340304
0.338452
0.336577
0.334679
0.332759
0.330818
0.328859
0.326881
0.324887
0.322879
0.320858
0.318825
0.316784
0.314735
0.312682
0.310626
0.308571
0.306519
0.304476
0.302451
0.300473
0.299089
0.349606
0.328286
0.311322
0.298632
0.289648
0.28352
0.279409
0.276735
0.275098
0.274161
0.27365
0.273389
0.273264
0.273206
0.27318
0.273168
0.273164
0.273163
0.273165
0.273168
0.273173
0.273179
0.273186
0.273195
0.273205
0.273217
0.27323
0.273244
0.27326
0.273277
0.273295
0.273315
0.273335
0.273358
0.273381
0.273406
0.273432
0.27346
0.273489
0.273519
0.273551
0.273583
0.273618
0.273653
0.27369
0.273728
0.273767
0.273808
0.27385
0.273893
0.273938
0.273983
0.27403
0.274077
0.274126
0.274175
0.274226
0.274277
0.274329
0.274382
0.274435
0.274488
0.274542
0.274596
0.27465
0.274704
0.274757
0.27481
0.274861
0.274912
0.274962
0.27501
0.275056
0.2751
0.275142
0.275181
0.275217
0.27525
0.275278
0.275303
0.275324
0.275339
0.275349
0.275354
0.275353
0.275345
0.275331
0.27531
0.275282
0.275247
0.275203
0.275153
0.275094
0.275027
0.274952
0.274869
0.274778
0.274692
0.275145
0.298966
0.349338
0.327473
0.309759
0.296215
0.286459
0.279791
0.275393
0.2726
0.27092
0.269968
0.269454
0.269194
0.269073
0.269022
0.269002
0.268995
0.268994
0.268995
0.268998
0.269001
0.269005
0.269009
0.269014
0.269019
0.269024
0.26903
0.269036
0.269043
0.26905
0.269058
0.269066
0.269075
0.269084
0.269094
0.269104
0.269115
0.269127
0.269139
0.269152
0.269166
0.269181
0.269196
0.269213
0.26923
0.269248
0.269267
0.269287
0.269308
0.26933
0.269354
0.269378
0.269404
0.269431
0.26946
0.26949
0.269521
0.269554
0.269588
0.269624
0.269662
0.269701
0.269742
0.269785
0.269829
0.269875
0.269923
0.269973
0.270024
0.270077
0.270132
0.270189
0.270247
0.270306
0.270367
0.270429
0.270492
0.270556
0.27062
0.270685
0.270751
0.270816
0.270881
0.270945
0.271008
0.27107
0.27113
0.271188
0.271243
0.271295
0.271344
0.271389
0.27143
0.271467
0.271499
0.271525
0.271547
0.271561
0.271585
0.272227
0.300581
0.349337
0.327471
0.309752
0.296199
0.286426
0.279727
0.275295
0.272479
0.27079
0.269836
0.269324
0.269065
0.268945
0.268894
0.268874
0.268867
0.268866
0.268867
0.268869
0.268872
0.268875
0.268878
0.268882
0.268886
0.26889
0.268895
0.2689
0.268905
0.268911
0.268916
0.268923
0.26893
0.268937
0.268945
0.268953
0.268961
0.268971
0.26898
0.268991
0.269002
0.269013
0.269026
0.269039
0.269052
0.269067
0.269082
0.269099
0.269116
0.269134
0.269153
0.269173
0.269195
0.269217
0.269241
0.269266
0.269292
0.26932
0.269349
0.269379
0.269411
0.269445
0.26948
0.269517
0.269556
0.269596
0.269638
0.269681
0.269727
0.269774
0.269823
0.269874
0.269926
0.26998
0.270035
0.270092
0.27015
0.270209
0.270269
0.27033
0.270391
0.270453
0.270515
0.270576
0.270637
0.270698
0.270757
0.270814
0.27087
0.270923
0.270973
0.271021
0.271065
0.271105
0.271141
0.271172
0.271199
0.271219
0.271249
0.271926
0.30238
0.349338
0.327472
0.309757
0.296212
0.286442
0.27974
0.275302
0.27248
0.270788
0.269832
0.269319
0.269061
0.268941
0.26889
0.26887
0.268863
0.268862
0.268863
0.268865
0.268868
0.268871
0.268874
0.268878
0.268882
0.268886
0.26889
0.268895
0.2689
0.268906
0.268912
0.268918
0.268925
0.268932
0.26894
0.268948
0.268956
0.268965
0.268975
0.268985
0.268996
0.269007
0.269019
0.269032
0.269046
0.26906
0.269075
0.269092
0.269109
0.269126
0.269145
0.269165
0.269187
0.269209
0.269232
0.269257
0.269283
0.26931
0.269339
0.269369
0.269401
0.269434
0.269469
0.269506
0.269544
0.269584
0.269625
0.269669
0.269714
0.269761
0.269809
0.269859
0.269911
0.269965
0.27002
0.270076
0.270134
0.270192
0.270252
0.270313
0.270374
0.270436
0.270497
0.270559
0.270619
0.27068
0.270738
0.270796
0.270851
0.270904
0.270955
0.271002
0.271046
0.271086
0.271122
0.271154
0.271181
0.271201
0.271231
0.271933
0.304216
0.349338
0.327475
0.309766
0.296229
0.286464
0.279759
0.275314
0.272486
0.27079
0.269832
0.269318
0.269059
0.26894
0.268889
0.268868
0.268862
0.268861
0.268862
0.268864
0.268867
0.26887
0.268873
0.268877
0.268881
0.268885
0.268889
0.268894
0.268899
0.268905
0.268911
0.268917
0.268924
0.268931
0.268938
0.268946
0.268955
0.268964
0.268974
0.268984
0.268995
0.269006
0.269018
0.269031
0.269045
0.269059
0.269074
0.26909
0.269107
0.269125
0.269144
0.269164
0.269185
0.269207
0.269231
0.269256
0.269282
0.269309
0.269338
0.269368
0.2694
0.269433
0.269468
0.269505
0.269543
0.269584
0.269625
0.269669
0.269714
0.269761
0.26981
0.269861
0.269913
0.269967
0.270023
0.270079
0.270138
0.270197
0.270258
0.270319
0.270381
0.270443
0.270505
0.270568
0.27063
0.270691
0.27075
0.270809
0.270865
0.270919
0.27097
0.271019
0.271063
0.271104
0.271141
0.271173
0.271201
0.271221
0.271251
0.271977
0.306077
0.349339
0.327479
0.309776
0.29625
0.286492
0.279783
0.275328
0.272493
0.270792
0.269833
0.269318
0.269058
0.268938
0.268887
0.268867
0.26886
0.268859
0.268861
0.268863
0.268865
0.268869
0.268872
0.268876
0.268879
0.268884
0.268888
0.268893
0.268898
0.268904
0.268909
0.268916
0.268922
0.26893
0.268937
0.268945
0.268954
0.268963
0.268972
0.268983
0.268993
0.269005
0.269017
0.26903
0.269043
0.269058
0.269073
0.269089
0.269106
0.269124
0.269143
0.269163
0.269184
0.269206
0.26923
0.269255
0.269281
0.269308
0.269337
0.269368
0.2694
0.269433
0.269469
0.269505
0.269544
0.269584
0.269627
0.26967
0.269716
0.269764
0.269813
0.269864
0.269917
0.269971
0.270028
0.270085
0.270144
0.270204
0.270266
0.270328
0.270391
0.270454
0.270517
0.270581
0.270644
0.270706
0.270767
0.270826
0.270884
0.270939
0.270991
0.271041
0.271087
0.271128
0.271166
0.271199
0.271227
0.271248
0.271279
0.272028
0.30796
0.34934
0.327483
0.309789
0.296274
0.286525
0.279812
0.275346
0.272502
0.270796
0.269834
0.269317
0.269057
0.268937
0.268886
0.268866
0.268859
0.268858
0.268859
0.268861
0.268864
0.268867
0.268871
0.268874
0.268878
0.268882
0.268887
0.268892
0.268897
0.268902
0.268908
0.268914
0.268921
0.268928
0.268936
0.268944
0.268952
0.268961
0.268971
0.268981
0.268992
0.269003
0.269015
0.269028
0.269042
0.269056
0.269072
0.269088
0.269105
0.269123
0.269142
0.269162
0.269183
0.269205
0.269229
0.269254
0.26928
0.269308
0.269337
0.269368
0.2694
0.269433
0.269469
0.269506
0.269545
0.269586
0.269628
0.269672
0.269719
0.269767
0.269816
0.269868
0.269922
0.269977
0.270034
0.270092
0.270152
0.270213
0.270275
0.270339
0.270403
0.270467
0.270532
0.270597
0.270661
0.270724
0.270787
0.270847
0.270906
0.270963
0.271017
0.271067
0.271114
0.271157
0.271196
0.27123
0.271259
0.27128
0.271312
0.272085
0.309864
0.34934
0.327487
0.309803
0.296303
0.286562
0.279845
0.275367
0.272513
0.270801
0.269835
0.269317
0.269056
0.268936
0.268884
0.268864
0.268857
0.268856
0.268858
0.26886
0.268863
0.268866
0.268869
0.268873
0.268877
0.268881
0.268885
0.26889
0.268895
0.268901
0.268907
0.268913
0.268919
0.268927
0.268934
0.268942
0.268951
0.26896
0.268969
0.26898
0.26899
0.269002
0.269014
0.269027
0.26904
0.269055
0.26907
0.269086
0.269103
0.269121
0.26914
0.26916
0.269182
0.269204
0.269228
0.269253
0.269279
0.269307
0.269336
0.269367
0.269399
0.269433
0.269469
0.269507
0.269546
0.269587
0.26963
0.269675
0.269721
0.26977
0.26982
0.269873
0.269927
0.269983
0.270041
0.2701
0.270161
0.270223
0.270287
0.270351
0.270417
0.270482
0.270549
0.270615
0.270681
0.270746
0.27081
0.270872
0.270933
0.270991
0.271046
0.271098
0.271147
0.271191
0.271231
0.271265
0.271295
0.271318
0.27135
0.272148
0.31179
0.349341
0.327493
0.309819
0.296335
0.286604
0.279881
0.27539
0.272525
0.270806
0.269836
0.269317
0.269055
0.268934
0.268883
0.268862
0.268856
0.268855
0.268856
0.268858
0.268861
0.268864
0.268867
0.268871
0.268875
0.268879
0.268883
0.268888
0.268893
0.268899
0.268905
0.268911
0.268918
0.268925
0.268932
0.26894
0.268949
0.268958
0.268968
0.268978
0.268988
0.269
0.269012
0.269025
0.269039
0.269053
0.269068
0.269084
0.269102
0.26912
0.269139
0.269159
0.26918
0.269203
0.269227
0.269252
0.269278
0.269306
0.269336
0.269367
0.269399
0.269433
0.269469
0.269507
0.269547
0.269588
0.269632
0.269677
0.269724
0.269773
0.269825
0.269878
0.269933
0.26999
0.270049
0.270109
0.270171
0.270235
0.2703
0.270365
0.270432
0.2705
0.270568
0.270635
0.270703
0.27077
0.270836
0.2709
0.270962
0.271022
0.27108
0.271133
0.271183
0.271229
0.271271
0.271307
0.271338
0.271361
0.271394
0.272217
0.313739
0.349342
0.327499
0.309837
0.29637
0.28665
0.279922
0.275416
0.272538
0.270812
0.269838
0.269316
0.269054
0.268933
0.268881
0.268861
0.268854
0.268853
0.268854
0.268856
0.268859
0.268862
0.268865
0.268869
0.268873
0.268877
0.268882
0.268886
0.268892
0.268897
0.268903
0.268909
0.268916
0.268923
0.26893
0.268938
0.268947
0.268956
0.268966
0.268976
0.268986
0.268998
0.26901
0.269023
0.269037
0.269051
0.269066
0.269082
0.2691
0.269118
0.269137
0.269157
0.269179
0.269201
0.269225
0.26925
0.269277
0.269305
0.269335
0.269366
0.269399
0.269433
0.26947
0.269508
0.269548
0.26959
0.269634
0.26968
0.269728
0.269777
0.269829
0.269883
0.26994
0.269997
0.270057
0.270119
0.270182
0.270247
0.270314
0.270381
0.27045
0.270519
0.270589
0.270659
0.270728
0.270797
0.270865
0.270932
0.270996
0.271058
0.271118
0.271173
0.271225
0.271273
0.271316
0.271353
0.271386
0.27141
0.271444
0.272292
0.315714
0.349344
0.327505
0.309856
0.296409
0.286701
0.279967
0.275445
0.272553
0.270818
0.26984
0.269316
0.269053
0.268931
0.268879
0.268859
0.268852
0.268851
0.268852
0.268854
0.268857
0.26886
0.268863
0.268867
0.268871
0.268875
0.26888
0.268884
0.268889
0.268895
0.268901
0.268907
0.268914
0.268921
0.268928
0.268936
0.268945
0.268954
0.268963
0.268974
0.268984
0.268996
0.269008
0.269021
0.269034
0.269049
0.269064
0.26908
0.269098
0.269116
0.269135
0.269155
0.269177
0.2692
0.269224
0.269249
0.269276
0.269304
0.269334
0.269365
0.269399
0.269433
0.26947
0.269509
0.269549
0.269592
0.269636
0.269682
0.269731
0.269782
0.269835
0.26989
0.269947
0.270006
0.270067
0.27013
0.270195
0.270261
0.27033
0.270399
0.270469
0.270541
0.270613
0.270685
0.270757
0.270828
0.270898
0.270967
0.271034
0.271099
0.27116
0.271219
0.271273
0.271322
0.271367
0.271406
0.27144
0.271465
0.271501
0.272373
0.317716
0.349345
0.327512
0.309877
0.29645
0.286756
0.280015
0.275476
0.272569
0.270825
0.269842
0.269316
0.269051
0.268929
0.268877
0.268857
0.26885
0.268849
0.26885
0.268852
0.268855
0.268858
0.268861
0.268865
0.268869
0.268873
0.268877
0.268882
0.268887
0.268893
0.268898
0.268905
0.268911
0.268918
0.268926
0.268934
0.268942
0.268951
0.268961
0.268971
0.268982
0.268993
0.269006
0.269018
0.269032
0.269047
0.269062
0.269078
0.269095
0.269114
0.269133
0.269153
0.269175
0.269198
0.269222
0.269247
0.269274
0.269303
0.269333
0.269365
0.269398
0.269433
0.26947
0.269509
0.26955
0.269593
0.269638
0.269686
0.269735
0.269787
0.26984
0.269896
0.269955
0.270015
0.270078
0.270142
0.270209
0.270277
0.270347
0.270418
0.270491
0.270565
0.270639
0.270713
0.270788
0.270862
0.270935
0.271007
0.271076
0.271144
0.271208
0.271269
0.271326
0.271378
0.271424
0.271466
0.271501
0.271527
0.271564
0.272462
0.319747
0.349346
0.327519
0.3099
0.296495
0.286815
0.280067
0.275509
0.272586
0.270833
0.269845
0.269316
0.26905
0.268927
0.268875
0.268854
0.268847
0.268846
0.268848
0.26885
0.268852
0.268856
0.268859
0.268862
0.268866
0.26887
0.268875
0.26888
0.268885
0.26889
0.268896
0.268902
0.268909
0.268916
0.268923
0.268931
0.26894
0.268949
0.268958
0.268969
0.268979
0.268991
0.269003
0.269016
0.269029
0.269044
0.269059
0.269076
0.269093
0.269111
0.26913
0.269151
0.269173
0.269196
0.26922
0.269246
0.269273
0.269301
0.269332
0.269364
0.269398
0.269433
0.269471
0.26951
0.269551
0.269595
0.269641
0.269689
0.269739
0.269792
0.269846
0.269904
0.269963
0.270025
0.270089
0.270155
0.270223
0.270294
0.270366
0.270439
0.270514
0.270591
0.270668
0.270745
0.270822
0.270899
0.270976
0.27105
0.271123
0.271194
0.271261
0.271325
0.271384
0.271439
0.271488
0.271532
0.271569
0.271597
0.271636
0.272559
0.321808
0.349348
0.327527
0.309924
0.296543
0.286877
0.280123
0.275545
0.272605
0.270841
0.269848
0.269316
0.269049
0.268925
0.268873
0.268852
0.268845
0.268844
0.268845
0.268847
0.26885
0.268853
0.268856
0.26886
0.268864
0.268868
0.268872
0.268877
0.268882
0.268888
0.268893
0.2689
0.268906
0.268913
0.268921
0.268929
0.268937
0.268946
0.268956
0.268966
0.268977
0.268988
0.269
0.269013
0.269027
0.269041
0.269057
0.269073
0.26909
0.269109
0.269128
0.269149
0.26917
0.269193
0.269218
0.269244
0.269271
0.2693
0.269331
0.269363
0.269397
0.269433
0.269471
0.269511
0.269553
0.269597
0.269643
0.269692
0.269743
0.269797
0.269853
0.269911
0.269972
0.270035
0.270101
0.270169
0.270239
0.270312
0.270386
0.270462
0.27054
0.270619
0.270699
0.270779
0.27086
0.270941
0.27102
0.271099
0.271175
0.271249
0.27132
0.271387
0.27145
0.271508
0.27156
0.271606
0.271645
0.271675
0.271715
0.272665
0.323904
0.349349
0.327536
0.309949
0.296594
0.286944
0.280181
0.275583
0.272624
0.27085
0.26985
0.269316
0.269047
0.268923
0.268871
0.26885
0.268842
0.268841
0.268843
0.268845
0.268847
0.26885
0.268854
0.268857
0.268861
0.268865
0.26887
0.268874
0.26888
0.268885
0.268891
0.268897
0.268903
0.26891
0.268918
0.268926
0.268934
0.268943
0.268953
0.268963
0.268974
0.268985
0.268997
0.26901
0.269024
0.269038
0.269054
0.26907
0.269087
0.269106
0.269125
0.269146
0.269168
0.269191
0.269216
0.269242
0.269269
0.269298
0.269329
0.269362
0.269396
0.269432
0.269471
0.269511
0.269554
0.269599
0.269646
0.269696
0.269748
0.269803
0.26986
0.269919
0.269982
0.270047
0.270114
0.270184
0.270257
0.270332
0.270408
0.270487
0.270568
0.27065
0.270733
0.270817
0.270902
0.270986
0.271069
0.271152
0.271232
0.27131
0.271385
0.271456
0.271522
0.271584
0.271639
0.271688
0.27173
0.271761
0.271804
0.272779
0.326035
0.349351
0.327544
0.309976
0.296647
0.287014
0.280243
0.275622
0.272645
0.27086
0.269854
0.269316
0.269046
0.268921
0.268868
0.268847
0.26884
0.268839
0.26884
0.268842
0.268845
0.268848
0.268851
0.268855
0.268858
0.268862
0.268867
0.268872
0.268877
0.268882
0.268888
0.268894
0.268901
0.268907
0.268915
0.268923
0.268931
0.26894
0.26895
0.26896
0.268971
0.268982
0.268994
0.269007
0.269021
0.269035
0.269051
0.269067
0.269084
0.269103
0.269122
0.269143
0.269165
0.269188
0.269213
0.269239
0.269267
0.269296
0.269328
0.26936
0.269395
0.269432
0.269471
0.269512
0.269555
0.269601
0.269649
0.269699
0.269753
0.269808
0.269867
0.269928
0.269992
0.270059
0.270128
0.2702
0.270275
0.270353
0.270432
0.270514
0.270598
0.270683
0.27077
0.270858
0.270947
0.271035
0.271123
0.27121
0.271295
0.271377
0.271457
0.271532
0.271603
0.271668
0.271727
0.271779
0.271824
0.271858
0.271902
0.272904
0.328204
0.349352
0.327554
0.310004
0.296704
0.287088
0.280308
0.275664
0.272667
0.270869
0.269857
0.269316
0.269044
0.268919
0.268866
0.268844
0.268837
0.268836
0.268837
0.268839
0.268842
0.268845
0.268848
0.268852
0.268855
0.26886
0.268864
0.268869
0.268874
0.268879
0.268885
0.268891
0.268897
0.268904
0.268912
0.26892
0.268928
0.268937
0.268947
0.268957
0.268967
0.268979
0.268991
0.269004
0.269017
0.269032
0.269047
0.269064
0.269081
0.2691
0.269119
0.26914
0.269162
0.269186
0.26921
0.269237
0.269265
0.269294
0.269326
0.269359
0.269394
0.269431
0.269471
0.269512
0.269556
0.269603
0.269652
0.269703
0.269758
0.269815
0.269874
0.269937
0.270003
0.270072
0.270143
0.270218
0.270295
0.270375
0.270458
0.270543
0.27063
0.27072
0.270811
0.270903
0.270996
0.271089
0.271181
0.271273
0.271363
0.271451
0.271535
0.271616
0.271691
0.271761
0.271824
0.27188
0.271928
0.271964
0.272011
0.273041
0.330414
0.349354
0.327563
0.310034
0.296762
0.287165
0.280376
0.275708
0.27269
0.27088
0.26986
0.269316
0.269043
0.268917
0.268863
0.268842
0.268834
0.268833
0.268834
0.268836
0.268839
0.268842
0.268845
0.268849
0.268852
0.268857
0.268861
0.268866
0.268871
0.268876
0.268882
0.268888
0.268894
0.268901
0.268909
0.268916
0.268925
0.268934
0.268943
0.268953
0.268964
0.268975
0.268987
0.269
0.269014
0.269029
0.269044
0.26906
0.269078
0.269096
0.269116
0.269137
0.269159
0.269183
0.269208
0.269234
0.269262
0.269292
0.269324
0.269357
0.269393
0.269431
0.269471
0.269513
0.269558
0.269605
0.269655
0.269707
0.269763
0.269821
0.269882
0.269947
0.270014
0.270085
0.270159
0.270236
0.270316
0.270399
0.270485
0.270574
0.270665
0.270759
0.270854
0.270951
0.271049
0.271147
0.271245
0.271343
0.271438
0.271532
0.271622
0.271708
0.271789
0.271864
0.271931
0.271992
0.272043
0.272083
0.272133
0.27319
0.332669
0.349356
0.327574
0.310065
0.296823
0.287245
0.280447
0.275754
0.272714
0.270891
0.269864
0.269316
0.269041
0.268914
0.26886
0.268839
0.268831
0.26883
0.268831
0.268833
0.268836
0.268839
0.268842
0.268846
0.268849
0.268853
0.268858
0.268862
0.268867
0.268873
0.268878
0.268884
0.268891
0.268898
0.268905
0.268913
0.268921
0.26893
0.26894
0.26895
0.26896
0.268972
0.268984
0.268997
0.26901
0.269025
0.26904
0.269057
0.269074
0.269093
0.269113
0.269134
0.269156
0.269179
0.269205
0.269231
0.26926
0.26929
0.269322
0.269356
0.269392
0.26943
0.26947
0.269513
0.269559
0.269607
0.269657
0.269711
0.269768
0.269827
0.26989
0.269957
0.270026
0.270099
0.270175
0.270255
0.270338
0.270424
0.270514
0.270607
0.270702
0.2708
0.270901
0.271003
0.271106
0.27121
0.271314
0.271418
0.27152
0.27162
0.271717
0.271809
0.271896
0.271977
0.272051
0.272116
0.272172
0.272215
0.272268
0.273353
0.334971
0.349358
0.327584
0.310096
0.296886
0.287328
0.28052
0.275801
0.272739
0.270902
0.269868
0.269316
0.26904
0.268912
0.268858
0.268836
0.268828
0.268827
0.268828
0.26883
0.268833
0.268836
0.268839
0.268842
0.268846
0.26885
0.268854
0.268859
0.268864
0.268869
0.268875
0.268881
0.268887
0.268894
0.268902
0.268909
0.268918
0.268927
0.268936
0.268946
0.268957
0.268968
0.26898
0.268993
0.269007
0.269021
0.269037
0.269053
0.269071
0.269089
0.269109
0.26913
0.269152
0.269176
0.269201
0.269228
0.269257
0.269287
0.26932
0.269354
0.26939
0.269429
0.26947
0.269513
0.26956
0.269608
0.26966
0.269715
0.269773
0.269834
0.269899
0.269967
0.270038
0.270114
0.270192
0.270275
0.270361
0.270451
0.270545
0.270642
0.270742
0.270845
0.270951
0.271059
0.271168
0.271279
0.27139
0.2715
0.27161
0.271717
0.271821
0.271921
0.272015
0.272102
0.272182
0.272253
0.272314
0.272361
0.272418
0.273532
0.337324
0.34936
0.327595
0.310129
0.296951
0.287413
0.280596
0.27585
0.272765
0.270913
0.269872
0.269316
0.269038
0.26891
0.268855
0.268833
0.268825
0.268824
0.268825
0.268827
0.26883
0.268832
0.268836
0.268839
0.268843
0.268847
0.268851
0.268856
0.268861
0.268866
0.268871
0.268877
0.268884
0.268891
0.268898
0.268906
0.268914
0.268923
0.268932
0.268942
0.268953
0.268964
0.268976
0.268989
0.269003
0.269017
0.269033
0.269049
0.269067
0.269085
0.269105
0.269126
0.269149
0.269173
0.269198
0.269225
0.269254
0.269284
0.269317
0.269352
0.269389
0.269428
0.269469
0.269513
0.26956
0.26961
0.269663
0.269719
0.269778
0.269841
0.269907
0.269977
0.270051
0.270129
0.27021
0.270296
0.270386
0.27048
0.270577
0.270679
0.270784
0.270893
0.271004
0.271119
0.271235
0.271353
0.271471
0.27159
0.271708
0.271823
0.271936
0.272044
0.272146
0.272241
0.272328
0.272406
0.272473
0.272524
0.272586
0.273728
0.339731
0.349362
0.327606
0.310163
0.297018
0.287501
0.280674
0.2759
0.272791
0.270925
0.269876
0.269316
0.269036
0.268907
0.268852
0.26883
0.268822
0.268821
0.268822
0.268824
0.268826
0.268829
0.268832
0.268836
0.268839
0.268843
0.268848
0.268852
0.268857
0.268862
0.268868
0.268874
0.26888
0.268887
0.268894
0.268902
0.26891
0.268919
0.268928
0.268938
0.268949
0.26896
0.268972
0.268985
0.268999
0.269013
0.269029
0.269045
0.269062
0.269081
0.269101
0.269122
0.269145
0.269169
0.269194
0.269222
0.269251
0.269281
0.269314
0.269349
0.269387
0.269426
0.269468
0.269513
0.269561
0.269612
0.269666
0.269723
0.269783
0.269848
0.269916
0.269988
0.270064
0.270144
0.270229
0.270318
0.270411
0.270509
0.270612
0.270718
0.270829
0.270944
0.271062
0.271183
0.271307
0.271433
0.27156
0.271687
0.271814
0.271939
0.272061
0.272179
0.27229
0.272395
0.27249
0.272575
0.272649
0.272706
0.272772
0.273945
0.342197
0.349364
0.327617
0.310197
0.297087
0.287591
0.280754
0.275952
0.272819
0.270938
0.26988
0.269316
0.269035
0.268904
0.268849
0.268826
0.268819
0.268817
0.268818
0.26882
0.268823
0.268826
0.268829
0.268832
0.268836
0.26884
0.268844
0.268849
0.268853
0.268859
0.268864
0.26887
0.268876
0.268883
0.26889
0.268898
0.268906
0.268915
0.268924
0.268934
0.268945
0.268956
0.268968
0.268981
0.268994
0.269009
0.269024
0.269041
0.269058
0.269077
0.269097
0.269118
0.269141
0.269165
0.26919
0.269218
0.269247
0.269278
0.269311
0.269347
0.269384
0.269425
0.269467
0.269513
0.269562
0.269613
0.269668
0.269727
0.269789
0.269855
0.269925
0.269999
0.270077
0.270161
0.270248
0.270341
0.270438
0.270541
0.270648
0.27076
0.270876
0.270998
0.271123
0.271252
0.271384
0.271519
0.271656
0.271793
0.271931
0.272066
0.272199
0.272327
0.27245
0.272564
0.27267
0.272764
0.272845
0.272909
0.272981
0.274184
0.344726
0.349366
0.327629
0.310232
0.297157
0.287684
0.280836
0.276005
0.272847
0.270951
0.269885
0.269317
0.269033
0.268902
0.268846
0.268823
0.268815
0.268814
0.268815
0.268817
0.268819
0.268822
0.268825
0.268829
0.268832
0.268836
0.26884
0.268845
0.26885
0.268855
0.26886
0.268866
0.268872
0.268879
0.268886
0.268894
0.268902
0.268911
0.26892
0.26893
0.26894
0.268952
0.268964
0.268976
0.26899
0.269004
0.26902
0.269036
0.269054
0.269072
0.269092
0.269114
0.269136
0.269161
0.269186
0.269214
0.269243
0.269275
0.269308
0.269344
0.269382
0.269423
0.269466
0.269512
0.269562
0.269614
0.26967
0.26973
0.269794
0.269861
0.269933
0.27001
0.270091
0.270177
0.270268
0.270364
0.270466
0.270573
0.270686
0.270803
0.270927
0.271055
0.271188
0.271326
0.271467
0.271612
0.27176
0.271908
0.272057
0.272205
0.27235
0.272491
0.272626
0.272753
0.272869
0.272974
0.273065
0.273136
0.273215
0.274449
0.347323
0.349368
0.327641
0.310268
0.297228
0.287778
0.280919
0.276059
0.272875
0.270964
0.269889
0.269317
0.269031
0.268899
0.268843
0.26882
0.268812
0.268811
0.268812
0.268814
0.268816
0.268819
0.268822
0.268825
0.268829
0.268833
0.268837
0.268841
0.268846
0.268851
0.268856
0.268862
0.268869
0.268875
0.268882
0.26889
0.268898
0.268907
0.268916
0.268926
0.268936
0.268947
0.268959
0.268972
0.268985
0.269
0.269015
0.269032
0.269049
0.269068
0.269088
0.269109
0.269132
0.269156
0.269182
0.26921
0.269239
0.269271
0.269305
0.269341
0.269379
0.269421
0.269465
0.269512
0.269562
0.269615
0.269673
0.269734
0.269799
0.269868
0.269942
0.270021
0.270105
0.270194
0.270289
0.270389
0.270495
0.270607
0.270725
0.270849
0.27098
0.271116
0.271258
0.271405
0.271557
0.271713
0.271872
0.272033
0.272195
0.272357
0.272517
0.272672
0.272821
0.272962
0.273092
0.273208
0.273311
0.273391
0.273478
0.274744
0.349992
0.34937
0.327653
0.310305
0.297301
0.287873
0.281004
0.276114
0.272904
0.270977
0.269894
0.269317
0.26903
0.268897
0.268839
0.268817
0.268809
0.268807
0.268808
0.26881
0.268812
0.268815
0.268818
0.268821
0.268825
0.268829
0.268833
0.268837
0.268842
0.268847
0.268853
0.268858
0.268864
0.268871
0.268878
0.268886
0.268894
0.268902
0.268911
0.268921
0.268932
0.268943
0.268955
0.268967
0.268981
0.268995
0.26901
0.269027
0.269044
0.269063
0.269083
0.269104
0.269127
0.269152
0.269178
0.269205
0.269235
0.269267
0.269301
0.269337
0.269376
0.269418
0.269463
0.26951
0.269561
0.269616
0.269674
0.269737
0.269803
0.269875
0.269951
0.270032
0.270119
0.270211
0.270309
0.270414
0.270525
0.270642
0.270766
0.270897
0.271035
0.27118
0.271331
0.271489
0.271652
0.27182
0.271993
0.272169
0.272346
0.272524
0.2727
0.272872
0.273037
0.273194
0.27334
0.273471
0.273586
0.273678
0.273774
0.275074
0.35274
0.349372
0.327665
0.310342
0.297374
0.28797
0.281091
0.27617
0.272934
0.270991
0.269899
0.269318
0.269028
0.268894
0.268836
0.268813
0.268805
0.268804
0.268805
0.268806
0.268809
0.268812
0.268815
0.268818
0.268821
0.268825
0.268829
0.268833
0.268838
0.268843
0.268849
0.268854
0.26886
0.268867
0.268874
0.268881
0.268889
0.268898
0.268907
0.268917
0.268927
0.268938
0.26895
0.268962
0.268976
0.26899
0.269006
0.269022
0.269039
0.269058
0.269078
0.269099
0.269122
0.269147
0.269173
0.269201
0.269231
0.269263
0.269297
0.269334
0.269373
0.269415
0.269461
0.269509
0.269561
0.269616
0.269676
0.26974
0.269808
0.269881
0.269959
0.270043
0.270133
0.270228
0.27033
0.270439
0.270555
0.270678
0.270809
0.270947
0.271094
0.271247
0.271409
0.271578
0.271754
0.271936
0.272124
0.272316
0.27251
0.272706
0.272901
0.273092
0.273277
0.273454
0.273618
0.273766
0.273897
0.274001
0.274109
0.275444
0.355572
0.349375
0.327677
0.310379
0.297449
0.288069
0.281178
0.276227
0.272964
0.271004
0.269904
0.269318
0.269026
0.268891
0.268833
0.26881
0.268802
0.2688
0.268801
0.268803
0.268805
0.268808
0.268811
0.268814
0.268818
0.268821
0.268825
0.26883
0.268834
0.268839
0.268844
0.26885
0.268856
0.268863
0.26887
0.268877
0.268885
0.268893
0.268902
0.268912
0.268922
0.268933
0.268945
0.268958
0.268971
0.268985
0.269001
0.269017
0.269034
0.269053
0.269073
0.269094
0.269117
0.269142
0.269168
0.269196
0.269226
0.269258
0.269293
0.26933
0.26937
0.269412
0.269458
0.269507
0.26956
0.269616
0.269677
0.269742
0.269812
0.269887
0.269968
0.270054
0.270146
0.270246
0.270352
0.270465
0.270586
0.270716
0.270853
0.270999
0.271154
0.271318
0.271491
0.271673
0.271863
0.27206
0.272265
0.272475
0.272689
0.272906
0.273122
0.273336
0.273544
0.273743
0.273929
0.274099
0.274248
0.274368
0.274489
0.27586
0.358495
0.349377
0.327689
0.310417
0.297524
0.288168
0.281266
0.276284
0.272995
0.271018
0.269909
0.269319
0.269024
0.268888
0.26883
0.268807
0.268798
0.268797
0.268797
0.268799
0.268802
0.268804
0.268807
0.26881
0.268814
0.268817
0.268821
0.268826
0.26883
0.268835
0.26884
0.268846
0.268852
0.268858
0.268865
0.268873
0.268881
0.268889
0.268898
0.268907
0.268918
0.268929
0.26894
0.268953
0.268966
0.26898
0.268995
0.269012
0.269029
0.269048
0.269068
0.269089
0.269112
0.269136
0.269163
0.269191
0.269221
0.269253
0.269288
0.269326
0.269366
0.269409
0.269455
0.269505
0.269558
0.269616
0.269678
0.269744
0.269816
0.269893
0.269975
0.270064
0.27016
0.270263
0.270373
0.270491
0.270618
0.270754
0.270899
0.271053
0.271218
0.271393
0.271578
0.271773
0.271979
0.272193
0.272417
0.272647
0.272884
0.273124
0.273366
0.273606
0.273841
0.274067
0.27428
0.274474
0.274646
0.274785
0.274923
0.276333
0.361517
0.349379
0.327702
0.310455
0.2976
0.288268
0.281355
0.276342
0.273026
0.271033
0.269914
0.269319
0.269023
0.268886
0.268827
0.268803
0.268795
0.268793
0.268794
0.268796
0.268798
0.268801
0.268803
0.268807
0.26881
0.268814
0.268818
0.268822
0.268826
0.268831
0.268836
0.268842
0.268848
0.268854
0.268861
0.268868
0.268876
0.268884
0.268893
0.268903
0.268913
0.268924
0.268935
0.268948
0.268961
0.268975
0.26899
0.269006
0.269024
0.269042
0.269062
0.269084
0.269106
0.269131
0.269157
0.269186
0.269216
0.269248
0.269283
0.269321
0.269361
0.269405
0.269452
0.269502
0.269556
0.269615
0.269678
0.269746
0.269819
0.269898
0.269983
0.270074
0.270173
0.27028
0.270394
0.270517
0.27065
0.270792
0.270945
0.271109
0.271284
0.27147
0.271669
0.271879
0.272102
0.272335
0.27258
0.272834
0.273096
0.273364
0.273635
0.273906
0.274173
0.274431
0.274675
0.274899
0.275099
0.275262
0.275421
0.27687
0.364645
0.349381
0.327714
0.310493
0.297676
0.288368
0.281445
0.2764
0.273057
0.271047
0.269919
0.26932
0.269021
0.268883
0.268824
0.2688
0.268791
0.268789
0.26879
0.268792
0.268794
0.268797
0.2688
0.268803
0.268806
0.26881
0.268814
0.268818
0.268822
0.268827
0.268832
0.268838
0.268844
0.26885
0.268857
0.268864
0.268872
0.26888
0.268889
0.268898
0.268908
0.268919
0.26893
0.268943
0.268956
0.26897
0.268985
0.269001
0.269018
0.269037
0.269057
0.269078
0.269101
0.269125
0.269152
0.26918
0.26921
0.269243
0.269278
0.269316
0.269357
0.269401
0.269448
0.269499
0.269554
0.269613
0.269678
0.269747
0.269822
0.269902
0.26999
0.270084
0.270186
0.270296
0.270415
0.270543
0.270682
0.270832
0.270993
0.271166
0.271352
0.271551
0.271764
0.271991
0.272232
0.272487
0.272755
0.273036
0.273327
0.273626
0.273932
0.274239
0.274543
0.27484
0.275122
0.275383
0.275618
0.275809
0.275993
0.277487
0.367889
0.349384
0.327727
0.310531
0.297752
0.288469
0.281535
0.276459
0.273088
0.271062
0.269924
0.26932
0.269019
0.26888
0.26882
0.268796
0.268788
0.268786
0.268787
0.268788
0.268791
0.268793
0.268796
0.268799
0.268802
0.268806
0.26881
0.268814
0.268818
0.268823
0.268828
0.268833
0.268839
0.268846
0.268852
0.268859
0.268867
0.268875
0.268884
0.268893
0.268903
0.268914
0.268925
0.268937
0.26895
0.268964
0.268979
0.268995
0.269013
0.269031
0.269051
0.269072
0.269095
0.269119
0.269146
0.269174
0.269205
0.269237
0.269273
0.269311
0.269352
0.269396
0.269444
0.269495
0.269551
0.269611
0.269677
0.269747
0.269823
0.269906
0.269996
0.270093
0.270198
0.270312
0.270435
0.270569
0.270714
0.270871
0.271041
0.271224
0.271421