/*--------------------------------*- C++ -*----------------------------------*\
| =========                 |                                                 |
| \\      /  F ield         | OpenFOAM: The Open Source CFD Toolbox           |
|  \\    /   O peration     | Version:  4.1                                   |
|   \\  /    A nd           | Web:      www.OpenFOAM.org                      |
|    \\/     M anipulation  |                                                 |
\*---------------------------------------------------------------------------*/
FoamFile
{
    version     2.0;
    format      ascii;
    class       volScalarField;
    location    "0.01";
    object      nut;
}
// * * * * * * * * * * * * * * * * * * * * * * * * * * * * * * * * * * * * * //

dimensions      [0 2 -1 0 0 0 0];

internalField   nonuniform List<scalar> 
43750
(
0.00139156
0.00140644
0.00141925
0.00142994
0.00143831
0.00144398
0.00144721
0.00144876
0.0014492
0.00144883
0.001448
0.00144695
0.0014458
0.0014446
0.00144337
0.00144212
0.00144087
0.0014396
0.00143833
0.00143705
0.00143575
0.00143445
0.00143313
0.00143179
0.00143045
0.00142908
0.0014277
0.00142631
0.00142489
0.00142345
0.001422
0.00142052
0.00141902
0.0014175
0.00141595
0.00141438
0.00141278
0.00141115
0.0014095
0.00140781
0.00140609
0.00140434
0.00140256
0.00140075
0.00139889
0.001397
0.00139508
0.00139311
0.0013911
0.00138905
0.00138696
0.00138482
0.00138264
0.00138041
0.00137814
0.00137581
0.00137343
0.001371
0.00136852
0.00136598
0.00136339
0.00136074
0.00135804
0.00135527
0.00135245
0.00134956
0.00134662
0.00134361
0.00134054
0.00133741
0.00133421
0.00133095
0.00132763
0.00132425
0.0013208
0.00131728
0.00131371
0.00131007
0.00130637
0.00130261
0.0012988
0.00129492
0.001291
0.00128701
0.00128298
0.0012789
0.00127478
0.00127061
0.0012664
0.00126216
0.00125788
0.00125358
0.00124925
0.00124491
0.00124055
0.00123618
0.00123182
0.00122748
0.00122324
0.00122028
0.000846383
0.000843767
0.000844768
0.000848724
0.000853646
0.000857522
0.000859513
0.000860033
0.000859871
0.000859537
0.000859239
0.00085904
0.000858934
0.000858886
0.000858872
0.00085888
0.000858904
0.000858938
0.000858982
0.000859034
0.000859093
0.00085916
0.000859235
0.000859318
0.000859408
0.000859505
0.00085961
0.000859723
0.000859843
0.000859971
0.000860107
0.00086025
0.000860402
0.000860561
0.000860728
0.000860903
0.000861086
0.000861278
0.000861477
0.000861685
0.000861901
0.000862126
0.000862359
0.0008626
0.00086285
0.000863108
0.000863375
0.00086365
0.000863933
0.000864225
0.000864525
0.000864833
0.000865149
0.000865473
0.000865804
0.000866143
0.000866489
0.000866841
0.0008672
0.000867564
0.000867934
0.000868309
0.000868689
0.000869071
0.000869457
0.000869845
0.000870234
0.000870624
0.000871012
0.000871399
0.000871784
0.000872163
0.000872538
0.000872905
0.000873264
0.000873613
0.00087395
0.000874275
0.000874584
0.000874876
0.00087515
0.000875404
0.000875636
0.000875843
0.000876025
0.00087618
0.000876305
0.0008764
0.000876463
0.000876492
0.000876486
0.000876444
0.000876366
0.00087625
0.000876095
0.000875901
0.000875663
0.000875444
0.000881211
0.00121988
0.000844081
0.00083821
0.000835265
0.000834904
0.000835911
0.000837006
0.000837451
0.00083726
0.000836789
0.000836315
0.00083595
0.00083572
0.000835598
0.000835543
0.000835521
0.000835516
0.000835519
0.000835526
0.000835535
0.000835546
0.000835558
0.000835571
0.000835585
0.000835601
0.000835617
0.000835635
0.000835655
0.000835675
0.000835697
0.000835721
0.000835746
0.000835772
0.0008358
0.00083583
0.000835862
0.000835895
0.00083593
0.000835967
0.000836007
0.000836048
0.000836092
0.000836137
0.000836186
0.000836237
0.00083629
0.000836346
0.000836405
0.000836467
0.000836533
0.000836601
0.000836673
0.000836748
0.000836826
0.000836909
0.000836995
0.000837085
0.000837179
0.000837278
0.00083738
0.000837487
0.000837598
0.000837714
0.000837834
0.000837959
0.000838089
0.000838223
0.000838362
0.000838505
0.000838652
0.000838804
0.000838959
0.000839119
0.000839282
0.000839448
0.000839617
0.000839788
0.000839962
0.000840136
0.000840311
0.000840486
0.000840661
0.000840834
0.000841004
0.000841171
0.000841334
0.000841492
0.000841643
0.000841787
0.000841922
0.000842048
0.000842164
0.000842268
0.00084236
0.000842439
0.000842504
0.000842554
0.000842588
0.000842677
0.000849173
0.00122331
0.000844073
0.000838183
0.000835197
0.000834757
0.000835636
0.000836568
0.000836866
0.000836583
0.000836072
0.000835587
0.000835223
0.000834993
0.000834872
0.000834816
0.000834793
0.000834785
0.000834784
0.000834787
0.000834792
0.000834797
0.000834802
0.000834809
0.000834816
0.000834823
0.000834831
0.00083484
0.000834849
0.000834859
0.000834869
0.000834881
0.000834893
0.000834906
0.000834919
0.000834934
0.000834949
0.000834965
0.000834983
0.000835001
0.000835021
0.000835042
0.000835064
0.000835087
0.000835111
0.000835137
0.000835165
0.000835194
0.000835225
0.000835258
0.000835292
0.000835328
0.000835367
0.000835407
0.00083545
0.000835495
0.000835543
0.000835593
0.000835645
0.000835701
0.000835759
0.00083582
0.000835884
0.000835951
0.000836022
0.000836095
0.000836172
0.000836252
0.000836336
0.000836423
0.000836513
0.000836607
0.000836704
0.000836804
0.000836908
0.000837014
0.000837123
0.000837234
0.000837348
0.000837463
0.00083758
0.000837699
0.000837818
0.000837937
0.000838055
0.000838173
0.000838289
0.000838403
0.000838513
0.00083862
0.000838722
0.000838819
0.00083891
0.000838994
0.000839071
0.00083914
0.0008392
0.000839251
0.00083929
0.00083939
0.00084602
0.00122715
0.000844074
0.000838188
0.000835211
0.000834783
0.000835665
0.000836586
0.000836868
0.000836572
0.000836055
0.000835566
0.000835201
0.000834971
0.00083485
0.000834794
0.00083477
0.000834762
0.000834762
0.000834765
0.000834769
0.000834774
0.000834779
0.000834785
0.000834792
0.000834799
0.000834806
0.000834814
0.000834823
0.000834832
0.000834842
0.000834853
0.000834864
0.000834876
0.000834889
0.000834903
0.000834917
0.000834932
0.000834949
0.000834966
0.000834984
0.000835004
0.000835025
0.000835046
0.000835069
0.000835094
0.00083512
0.000835147
0.000835176
0.000835207
0.000835239
0.000835273
0.000835309
0.000835347
0.000835387
0.000835429
0.000835474
0.000835521
0.00083557
0.000835622
0.000835677
0.000835734
0.000835794
0.000835857
0.000835923
0.000835991
0.000836063
0.000836139
0.000836217
0.000836298
0.000836383
0.00083647
0.000836561
0.000836655
0.000836752
0.000836851
0.000836953
0.000837057
0.000837164
0.000837272
0.000837381
0.000837492
0.000837604
0.000837715
0.000837826
0.000837937
0.000838045
0.000838152
0.000838256
0.000838357
0.000838453
0.000838544
0.00083863
0.00083871
0.000838783
0.000838848
0.000838905
0.000838954
0.000838991
0.000839092
0.000845812
0.00123106
0.000844076
0.000838194
0.000835229
0.000834817
0.000835708
0.000836622
0.00083689
0.000836582
0.000836058
0.000835566
0.000835199
0.000834969
0.000834847
0.000834791
0.000834768
0.00083476
0.000834759
0.000834762
0.000834766
0.000834771
0.000834777
0.000834783
0.000834789
0.000834796
0.000834804
0.000834812
0.00083482
0.00083483
0.000834839
0.00083485
0.000834861
0.000834873
0.000834886
0.0008349
0.000834914
0.000834929
0.000834946
0.000834963
0.000834981
0.000835001
0.000835021
0.000835043
0.000835066
0.00083509
0.000835116
0.000835143
0.000835172
0.000835203
0.000835235
0.000835269
0.000835305
0.000835343
0.000835383
0.000835425
0.000835469
0.000835516
0.000835565
0.000835617
0.000835671
0.000835728
0.000835788
0.000835851
0.000835917
0.000835986
0.000836058
0.000836133
0.000836211
0.000836293
0.000836377
0.000836465
0.000836556
0.00083665
0.000836747
0.000836846
0.000836948
0.000837053
0.00083716
0.000837268
0.000837379
0.00083749
0.000837602
0.000837714
0.000837826
0.000837937
0.000838046
0.000838154
0.000838259
0.00083836
0.000838457
0.000838549
0.000838636
0.000838716
0.00083879
0.000838856
0.000838914
0.000838963
0.000839001
0.000839102
0.00084591
0.00123501
0.000844077
0.000838202
0.000835251
0.000834858
0.00083576
0.000836666
0.000836916
0.000836595
0.000836063
0.000835567
0.000835197
0.000834967
0.000834845
0.000834789
0.000834765
0.000834758
0.000834757
0.00083476
0.000834764
0.000834769
0.000834774
0.00083478
0.000834787
0.000834794
0.000834801
0.00083481
0.000834818
0.000834827
0.000834837
0.000834848
0.000834859
0.000834871
0.000834884
0.000834897
0.000834912
0.000834927
0.000834943
0.000834961
0.000834979
0.000834998
0.000835019
0.000835041
0.000835064
0.000835088
0.000835114
0.000835141
0.00083517
0.0008352
0.000835233
0.000835267
0.000835303
0.000835341
0.000835381
0.000835423
0.000835467
0.000835514
0.000835564
0.000835616
0.00083567
0.000835728
0.000835788
0.000835851
0.000835917
0.000835987
0.000836059
0.000836135
0.000836213
0.000836295
0.000836381
0.000836469
0.000836561
0.000836656
0.000836754
0.000836854
0.000836958
0.000837064
0.000837172
0.000837282
0.000837393
0.000837506
0.00083762
0.000837734
0.000837848
0.000837961
0.000838072
0.000838182
0.000838288
0.000838392
0.000838491
0.000838585
0.000838673
0.000838756
0.000838831
0.000838898
0.000838957
0.000839008
0.000839046
0.000839149
0.000846045
0.00123899
0.000844079
0.000838211
0.000835276
0.000834906
0.00083582
0.000836718
0.000836948
0.000836611
0.000836069
0.000835568
0.000835196
0.000834965
0.000834843
0.000834786
0.000834763
0.000834755
0.000834755
0.000834757
0.000834762
0.000834766
0.000834772
0.000834778
0.000834784
0.000834791
0.000834799
0.000834807
0.000834816
0.000834825
0.000834835
0.000834845
0.000834857
0.000834869
0.000834881
0.000834895
0.000834909
0.000834925
0.000834941
0.000834958
0.000834976
0.000834996
0.000835016
0.000835038
0.000835061
0.000835085
0.000835111
0.000835139
0.000835167
0.000835198
0.00083523
0.000835264
0.000835301
0.000835339
0.000835379
0.000835421
0.000835466
0.000835513
0.000835563
0.000835615
0.00083567
0.000835727
0.000835788
0.000835852
0.000835918
0.000835988
0.000836061
0.000836137
0.000836217
0.0008363
0.000836386
0.000836475
0.000836568
0.000836664
0.000836763
0.000836865
0.00083697
0.000837078
0.000837187
0.000837299
0.000837413
0.000837528
0.000837644
0.00083776
0.000837876
0.000837991
0.000838105
0.000838217
0.000838326
0.000838432
0.000838533
0.00083863
0.000838721
0.000838805
0.000838882
0.000838951
0.000839012
0.000839064
0.000839103
0.000839208
0.000846192
0.00124301
0.00084408
0.000838221
0.000835305
0.000834961
0.000835889
0.000836776
0.000836985
0.00083663
0.000836077
0.00083557
0.000835195
0.000834963
0.00083484
0.000834784
0.00083476
0.000834752
0.000834752
0.000834755
0.000834759
0.000834764
0.000834769
0.000834775
0.000834782
0.000834789
0.000834796
0.000834804
0.000834813
0.000834822
0.000834832
0.000834843
0.000834854
0.000834866
0.000834879
0.000834892
0.000834906
0.000834922
0.000834938
0.000834955
0.000834973
0.000834993
0.000835013
0.000835035
0.000835058
0.000835083
0.000835108
0.000835136
0.000835165
0.000835195
0.000835228
0.000835262
0.000835298
0.000835336
0.000835377
0.000835419
0.000835464
0.000835511
0.000835561
0.000835614
0.000835669
0.000835727
0.000835788
0.000835852
0.000835919
0.00083599
0.000836063
0.00083614
0.000836221
0.000836305
0.000836392
0.000836482
0.000836576
0.000836674
0.000836774
0.000836878
0.000836984
0.000837094
0.000837206
0.00083732
0.000837435
0.000837553
0.000837671
0.00083779
0.000837908
0.000838026
0.000838143
0.000838258
0.00083837
0.000838479
0.000838583
0.000838682
0.000838776
0.000838863
0.000838942
0.000839014
0.000839076
0.00083913
0.00083917
0.000839276
0.000846349
0.00124707
0.000844082
0.000838232
0.000835337
0.000835021
0.000835965
0.000836842
0.000837026
0.00083665
0.000836086
0.000835572
0.000835195
0.000834961
0.000834838
0.000834781
0.000834757
0.000834749
0.000834749
0.000834752
0.000834756
0.000834761
0.000834766
0.000834772
0.000834779
0.000834786
0.000834793
0.000834801
0.00083481
0.000834819
0.000834829
0.000834839
0.000834851
0.000834863
0.000834875
0.000834889
0.000834903
0.000834919
0.000834935
0.000834952
0.00083497
0.00083499
0.00083501
0.000835032
0.000835055
0.000835079
0.000835105
0.000835133
0.000835162
0.000835192
0.000835225
0.000835259
0.000835295
0.000835334
0.000835374
0.000835417
0.000835462
0.00083551
0.00083556
0.000835612
0.000835668
0.000835727
0.000835788
0.000835853
0.00083592
0.000835991
0.000836066
0.000836144
0.000836225
0.00083631
0.000836398
0.00083649
0.000836586
0.000836684
0.000836787
0.000836892
0.000837001
0.000837112
0.000837226
0.000837342
0.000837461
0.000837581
0.000837702
0.000837824
0.000837945
0.000838067
0.000838187
0.000838305
0.00083842
0.000838532
0.00083864
0.000838742
0.000838839
0.000838929
0.000839011
0.000839085
0.00083915
0.000839205
0.000839247
0.000839356
0.000846517
0.00125116
0.000844085
0.000838245
0.000835373
0.000835089
0.00083605
0.000836914
0.000837071
0.000836674
0.000836095
0.000835575
0.000835194
0.000834958
0.000834835
0.000834778
0.000834754
0.000834746
0.000834745
0.000834748
0.000834752
0.000834757
0.000834763
0.000834769
0.000834775
0.000834782
0.00083479
0.000834798
0.000834806
0.000834816
0.000834826
0.000834836
0.000834847
0.000834859
0.000834872
0.000834885
0.0008349
0.000834915
0.000834931
0.000834948
0.000834967
0.000834986
0.000835007
0.000835028
0.000835051
0.000835076
0.000835102
0.000835129
0.000835158
0.000835189
0.000835222
0.000835256
0.000835292
0.000835331
0.000835371
0.000835414
0.00083546
0.000835507
0.000835558
0.000835611
0.000835667
0.000835726
0.000835788
0.000835853
0.000835922
0.000835993
0.000836069
0.000836147
0.00083623
0.000836316
0.000836405
0.000836499
0.000836596
0.000836696
0.0008368
0.000836908
0.000837018
0.000837132
0.000837249
0.000837368
0.000837489
0.000837612
0.000837737
0.000837862
0.000837987
0.000838112
0.000838236
0.000838358
0.000838477
0.000838593
0.000838704
0.000838811
0.000838911
0.000839004
0.000839089
0.000839166
0.000839234
0.000839291
0.000839335
0.000839446
0.000846696
0.00125528
0.000844087
0.000838258
0.000835412
0.000835162
0.000836143
0.000836994
0.000837121
0.000836699
0.000836106
0.000835578
0.000835194
0.000834956
0.000834832
0.000834774
0.00083475
0.000834742
0.000834742
0.000834745
0.000834749
0.000834754
0.000834759
0.000834765
0.000834772
0.000834779
0.000834786
0.000834794
0.000834803
0.000834812
0.000834822
0.000834832
0.000834843
0.000834855
0.000834868
0.000834882
0.000834896
0.000834911
0.000834927
0.000834944
0.000834963
0.000834982
0.000835003
0.000835024
0.000835047
0.000835072
0.000835098
0.000835125
0.000835154
0.000835185
0.000835218
0.000835252
0.000835289
0.000835328
0.000835368
0.000835411
0.000835457
0.000835505
0.000835556
0.000835609
0.000835666
0.000835725
0.000835788
0.000835854
0.000835923
0.000835995
0.000836072
0.000836151
0.000836235
0.000836322
0.000836413
0.000836508
0.000836607
0.000836709
0.000836815
0.000836925
0.000837038
0.000837155
0.000837274
0.000837396
0.000837521
0.000837647
0.000837775
0.000837904
0.000838033
0.000838162
0.00083829
0.000838417
0.00083854
0.000838661
0.000838776
0.000838887
0.000838991
0.000839089
0.000839178
0.000839258
0.000839328
0.000839389
0.000839434
0.000839548
0.000846887
0.00125946
0.00084409
0.000838273
0.000835455
0.000835242
0.000836243
0.00083708
0.000837175
0.000836726
0.000836118
0.000835582
0.000835193
0.000834954
0.000834829
0.000834771
0.000834746
0.000834738
0.000834738
0.000834741
0.000834745
0.00083475
0.000834755
0.000834761
0.000834768
0.000834775
0.000834782
0.00083479
0.000834799
0.000834808
0.000834818
0.000834828
0.000834839
0.000834851
0.000834864
0.000834877
0.000834892
0.000834907
0.000834923
0.00083494
0.000834958
0.000834978
0.000834998
0.00083502
0.000835043
0.000835068
0.000835094
0.000835121
0.00083515
0.000835181
0.000835214
0.000835249
0.000835285
0.000835324
0.000835365
0.000835408
0.000835454
0.000835503
0.000835554
0.000835608
0.000835664
0.000835724
0.000835788
0.000835854
0.000835924
0.000835998
0.000836075
0.000836156
0.00083624
0.000836329
0.000836422
0.000836518
0.000836619
0.000836723
0.000836832
0.000836944
0.00083706
0.000837179
0.000837302
0.000837427
0.000837555
0.000837686
0.000837818
0.000837951
0.000838085
0.000838218
0.000838351
0.000838482
0.000838611
0.000838736
0.000838857
0.000838972
0.000839082
0.000839183
0.000839276
0.000839361
0.000839434
0.000839498
0.000839546
0.000839662
0.000847091
0.00126368
0.000844093
0.000838289
0.0008355
0.000835327
0.00083635
0.000837172
0.000837233
0.000836756
0.000836131
0.000835586
0.000835192
0.000834951
0.000834825
0.000834767
0.000834743
0.000834734
0.000834734
0.000834737
0.000834741
0.000834746
0.000834751
0.000834757
0.000834764
0.00083477
0.000834778
0.000834786
0.000834794
0.000834804
0.000834813
0.000834824
0.000834835
0.000834847
0.000834859
0.000834873
0.000834887
0.000834902
0.000834919
0.000834936
0.000834954
0.000834973
0.000834994
0.000835016
0.000835039
0.000835063
0.000835089
0.000835117
0.000835146
0.000835177
0.00083521
0.000835244
0.000835281
0.00083532
0.000835361
0.000835405
0.000835451
0.0008355
0.000835551
0.000835605
0.000835663
0.000835723
0.000835787
0.000835855
0.000835925
0.000836
0.000836078
0.00083616
0.000836246
0.000836336
0.000836431
0.000836529
0.000836632
0.000836738
0.000836849
0.000836964
0.000837083
0.000837205
0.000837332
0.000837461
0.000837593
0.000837728
0.000837864
0.000838002
0.000838141
0.00083828
0.000838418
0.000838555
0.000838689
0.00083882
0.000838947
0.000839067
0.000839182
0.000839289
0.000839387
0.000839475
0.000839553
0.00083962
0.00083967
0.00083979
0.000847308
0.00126795
0.000844096
0.000838306
0.000835549
0.000835418
0.000836465
0.00083727
0.000837295
0.000836788
0.000836145
0.00083559
0.000835192
0.000834949
0.000834822
0.000834763
0.000834738
0.00083473
0.00083473
0.000834732
0.000834736
0.000834741
0.000834747
0.000834753
0.000834759
0.000834766
0.000834773
0.000834781
0.00083479
0.000834799
0.000834809
0.000834819
0.00083483
0.000834842
0.000834855
0.000834868
0.000834882
0.000834898
0.000834914
0.000834931
0.000834949
0.000834968
0.000834989
0.000835011
0.000835034
0.000835058
0.000835084
0.000835112
0.000835141
0.000835172
0.000835205
0.00083524
0.000835277
0.000835316
0.000835357
0.000835401
0.000835447
0.000835496
0.000835548
0.000835603
0.000835661
0.000835722
0.000835787
0.000835855
0.000835926
0.000836002
0.000836081
0.000836165
0.000836252
0.000836344
0.00083644
0.00083654
0.000836645
0.000836755
0.000836868
0.000836986
0.000837108
0.000837234
0.000837364
0.000837498
0.000837634
0.000837774
0.000837915
0.000838059
0.000838203
0.000838348
0.000838492
0.000838635
0.000838776
0.000838913
0.000839046
0.000839173
0.000839293
0.000839406
0.000839509
0.000839603
0.000839685
0.000839756
0.000839809
0.000839932
0.000847541
0.00127227
0.000844099
0.000838324
0.0008356
0.000835515
0.000836586
0.000837374
0.00083736
0.000836821
0.000836159
0.000835594
0.000835192
0.000834946
0.000834818
0.000834759
0.000834734
0.000834726
0.000834725
0.000834728
0.000834732
0.000834737
0.000834742
0.000834748
0.000834754
0.000834761
0.000834769
0.000834777
0.000834785
0.000834794
0.000834804
0.000834814
0.000834825
0.000834837
0.00083485
0.000834863
0.000834877
0.000834892
0.000834908
0.000834926
0.000834944
0.000834963
0.000834984
0.000835005
0.000835028
0.000835053
0.000835079
0.000835107
0.000835136
0.000835167
0.0008352
0.000835235
0.000835272
0.000835311
0.000835353
0.000835397
0.000835444
0.000835493
0.000835545
0.000835601
0.000835659
0.000835721
0.000835786
0.000835855
0.000835928
0.000836004
0.000836085
0.00083617
0.000836259
0.000836352
0.00083645
0.000836553
0.00083666
0.000836772
0.000836888
0.000837009
0.000837135
0.000837265
0.000837399
0.000837537
0.000837679
0.000837823
0.000837971
0.00083812
0.00083827
0.000838422
0.000838573
0.000838723
0.00083887
0.000839015
0.000839155
0.000839289
0.000839416
0.000839535
0.000839645
0.000839744
0.000839832
0.000839907
0.000839964
0.000840091
0.00084779
0.00127666
0.000844103
0.000838343
0.000835654
0.000835617
0.000836714
0.000837484
0.00083743
0.000836857
0.000836175
0.000835599
0.000835191
0.000834943
0.000834814
0.000834754
0.000834729
0.000834721
0.00083472
0.000834723
0.000834727
0.000834732
0.000834737
0.000834743
0.000834749
0.000834756
0.000834764
0.000834772
0.00083478
0.000834789
0.000834799
0.000834809
0.00083482
0.000834832
0.000834844
0.000834858
0.000834872
0.000834887
0.000834903
0.00083492
0.000834938
0.000834958
0.000834978
0.000835
0.000835023
0.000835047
0.000835073
0.000835101
0.000835131
0.000835162
0.000835195
0.00083523
0.000835267
0.000835306
0.000835348
0.000835393
0.00083544
0.000835489
0.000835542
0.000835598
0.000835657
0.000835719
0.000835785
0.000835855
0.000835929
0.000836006
0.000836088
0.000836174
0.000836265
0.000836361
0.000836461
0.000836566
0.000836675
0.00083679
0.00083691
0.000837034
0.000837164
0.000837298
0.000837437
0.00083758
0.000837727
0.000837877
0.00083803
0.000838186
0.000838344
0.000838502
0.000838661
0.000838819
0.000838974
0.000839127
0.000839275
0.000839417
0.000839552
0.000839679
0.000839796
0.000839901
0.000839995
0.000840075
0.000840136
0.000840267
0.000848058
0.0012811
0.000844107
0.000838362
0.000835711
0.000835723
0.000836848
0.000837599
0.000837502
0.000836894
0.000836191
0.000835604
0.000835191
0.00083494
0.00083481
0.00083475
0.000834725
0.000834716
0.000834715
0.000834718
0.000834722
0.000834727
0.000834732
0.000834738
0.000834744
0.000834751
0.000834758
0.000834766
0.000834775
0.000834784
0.000834793
0.000834804
0.000834815
0.000834826
0.000834839
0.000834852
0.000834866
0.000834881
0.000834897
0.000834914
0.000834932
0.000834952
0.000834972
0.000834994
0.000835017
0.000835042
0.000835068
0.000835095
0.000835125
0.000835156
0.000835189
0.000835224
0.000835262
0.000835301
0.000835343
0.000835388
0.000835435
0.000835485
0.000835538
0.000835595
0.000835654
0.000835717
0.000835784
0.000835855
0.00083593
0.000836008
0.000836092
0.000836179
0.000836272
0.000836369
0.000836472
0.000836579
0.000836692
0.000836809
0.000836933
0.000837061
0.000837195
0.000837333
0.000837477
0.000837625
0.000837778
0.000837935
0.000838095
0.000838258
0.000838423
0.00083859
0.000838757
0.000838923
0.000839088
0.000839249
0.000839406
0.000839558
0.000839702
0.000839837
0.000839962
0.000840075
0.000840175
0.000840261
0.000840327
0.000840463
0.000848345
0.00128562
0.00084411
0.000838383
0.00083577
0.000835834
0.000836988
0.00083772
0.000837578
0.000836933
0.000836208
0.00083561
0.00083519
0.000834937
0.000834806
0.000834745
0.00083472
0.000834711
0.00083471
0.000834713
0.000834717
0.000834721
0.000834727
0.000834733
0.000834739
0.000834746
0.000834753
0.000834761
0.000834769
0.000834778
0.000834788
0.000834798
0.000834809
0.000834821
0.000834833
0.000834846
0.00083486
0.000834875
0.000834891
0.000834908
0.000834926
0.000834946
0.000834966
0.000834988
0.000835011
0.000835035
0.000835061
0.000835089
0.000835119
0.00083515
0.000835183
0.000835218
0.000835256
0.000835296
0.000835338
0.000835383
0.00083543
0.000835481
0.000835534
0.000835591
0.000835651
0.000835715
0.000835783
0.000835855
0.00083593
0.00083601
0.000836095
0.000836185
0.000836279
0.000836378
0.000836483
0.000836593
0.000836708
0.00083683
0.000836956
0.000837089
0.000837227
0.000837371
0.00083752
0.000837674
0.000837833
0.000837997
0.000838165
0.000838336
0.000838509
0.000838685
0.000838861
0.000839037
0.000839212
0.000839383
0.000839551
0.000839712
0.000839867
0.000840011
0.000840146
0.000840267
0.000840375
0.000840468
0.000840539
0.00084068
0.000848655
0.00129021
0.000844114
0.000838405
0.000835832
0.00083595
0.000837134
0.000837845
0.000837657
0.000836974
0.000836226
0.000835615
0.00083519
0.000834934
0.000834802
0.00083474
0.000834714
0.000834706
0.000834705
0.000834707
0.000834711
0.000834716
0.000834721
0.000834727
0.000834733
0.00083474
0.000834747
0.000834755
0.000834763
0.000834772
0.000834782
0.000834792
0.000834803
0.000834815
0.000834827
0.00083484
0.000834854
0.000834869
0.000834885
0.000834902
0.00083492
0.000834939
0.00083496
0.000834981
0.000835004
0.000835029
0.000835055
0.000835083
0.000835112
0.000835143
0.000835177
0.000835212
0.00083525
0.00083529
0.000835332
0.000835377
0.000835425
0.000835476
0.00083553
0.000835587
0.000835648
0.000835713
0.000835781
0.000835854
0.000835931
0.000836012
0.000836098
0.00083619
0.000836286
0.000836387
0.000836495
0.000836607
0.000836726
0.000836851
0.000836981
0.000837118
0.000837261
0.00083741
0.000837565
0.000837726
0.000837892
0.000838063
0.000838239
0.000838419
0.000838602
0.000838787
0.000838974
0.000839161
0.000839347
0.00083953
0.000839709
0.000839882
0.000840048
0.000840204
0.000840349
0.00084048
0.000840597
0.000840697
0.000840775
0.000840922
0.000848989
0.00129488
0.000844118
0.000838427
0.000835896
0.00083607
0.000837284
0.000837975
0.000837739
0.000837016
0.000836245
0.000835621
0.00083519
0.000834931
0.000834797
0.000834735
0.000834709
0.0008347
0.000834699
0.000834702
0.000834706
0.00083471
0.000834716
0.000834721
0.000834728
0.000834734
0.000834741
0.000834749
0.000834757
0.000834766
0.000834776
0.000834786
0.000834797
0.000834808
0.000834821
0.000834834
0.000834848
0.000834863
0.000834879
0.000834895
0.000834913
0.000834933
0.000834953
0.000834975
0.000834998
0.000835022
0.000835048
0.000835076
0.000835105
0.000835137
0.00083517
0.000835206
0.000835243
0.000835283
0.000835326
0.000835372
0.00083542
0.000835471
0.000835525
0.000835583
0.000835645
0.00083571
0.00083578
0.000835853
0.000835931
0.000836014
0.000836102
0.000836195
0.000836293
0.000836397
0.000836506
0.000836622
0.000836744
0.000836873
0.000837008
0.000837149
0.000837297
0.000837452
0.000837613
0.000837781
0.000837955
0.000838134
0.000838319
0.000838509
0.000838702
0.000838898
0.000839097
0.000839296
0.000839494
0.00083969
0.000839882
0.000840069
0.000840247
0.000840416
0.000840573
0.000840716
0.000840842
0.000840952
0.000841037
0.000841191
0.000849351
0.00129964
0.000844123
0.00083845
0.000835961
0.000836193
0.00083744
0.000838109
0.000837824
0.00083706
0.000836264
0.000835627
0.000835189
0.000834928
0.000834793
0.00083473
0.000834704
0.000834695
0.000834694
0.000834696
0.0008347
0.000834705
0.00083471
0.000834716
0.000834722
0.000834728
0.000834735
0.000834743
0.000834751
0.00083476
0.00083477
0.00083478
0.00083479
0.000834802
0.000834814
0.000834827
0.000834841
0.000834856
0.000834872
0.000834889
0.000834907
0.000834926
0.000834946
0.000834968
0.000834991
0.000835015
0.000835041
0.000835069
0.000835098
0.00083513
0.000835163
0.000835199
0.000835237
0.000835277
0.00083532
0.000835365
0.000835414
0.000835466
0.00083552
0.000835579
0.000835641
0.000835707
0.000835777
0.000835852
0.000835931
0.000836015
0.000836105
0.000836199
0.0008363
0.000836406
0.000836519
0.000836637
0.000836763
0.000836895
0.000837035
0.000837181
0.000837335
0.000837496
0.000837664
0.000837839
0.000838021
0.00083821
0.000838404
0.000838604
0.000838809
0.000839018
0.000839229
0.000839442
0.000839654
0.000839865
0.000840072
0.000840273
0.000840467
0.00084065
0.00084082
0.000840976
0.000841115
0.000841235
0.000841328
0.00084149
0.000849743
0.00130449
0.000844127
0.000838473
0.000836029
0.00083632
0.0008376
0.000838246
0.000837911
0.000837105
0.000836284
0.000835634
0.000835189
0.000834925
0.000834788
0.000834725
0.000834698
0.000834689
0.000834688
0.00083469
0.000834694
0.000834699
0.000834704
0.00083471
0.000834716
0.000834722
0.000834729
0.000834737
0.000834745
0.000834754
0.000834763
0.000834773
0.000834784
0.000834795
0.000834807
0.00083482
0.000834834
0.000834849
0.000834865
0.000834882
0.000834899
0.000834918
0.000834939
0.00083496
0.000834983
0.000835008
0.000835034
0.000835061
0.000835091
0.000835122
0.000835156
0.000835191
0.000835229
0.00083527
0.000835313
0.000835359
0.000835408
0.00083546
0.000835515
0.000835574
0.000835637
0.000835704
0.000835775
0.00083585
0.000835931
0.000836017
0.000836108
0.000836204
0.000836307
0.000836415
0.000836531
0.000836653
0.000836782
0.000836919
0.000837063
0.000837214
0.000837374
0.000837542
0.000837717
0.0008379
0.000838091
0.00083829
0.000838495
0.000838707
0.000838924
0.000839146
0.000839372
0.0008396
0.000839828
0.000840055
0.000840279
0.000840497
0.000840708
0.000840908
0.000841094
0.000841265
0.000841417
0.00084155
0.000841653
0.000841824
0.000850171
0.00130944
0.000844132
0.000838497
0.000836098
0.00083645
0.000837764
0.000838388
0.000838001
0.000837152
0.000836305
0.00083564
0.000835189
0.000834921
0.000834783
0.000834719
0.000834692
0.000834683
0.000834682
0.000834684
0.000834688
0.000834693
0.000834698
0.000834703
0.000834709
0.000834716
0.000834723
0.000834731
0.000834739
0.000834747
0.000834757
0.000834767
0.000834777
0.000834789
0.000834801
0.000834814
0.000834827
0.000834842
0.000834858
0.000834874
0.000834892
0.000834911
0.000834931
0.000834953
0.000834976
0.000835
0.000835026
0.000835054
0.000835083
0.000835115
0.000835148
0.000835184
0.000835222
0.000835263
0.000835306
0.000835352
0.000835401
0.000835453
0.000835509
0.000835569
0.000835632
0.0008357
0.000835772
0.000835849
0.00083593
0.000836017
0.00083611
0.000836209
0.000836313
0.000836425
0.000836543
0.000836669
0.000836802
0.000836942
0.000837091
0.000837249
0.000837415
0.000837589
0.000837773
0.000837965
0.000838166
0.000838375
0.000838592
0.000838816
0.000839048
0.000839285
0.000839526
0.000839771
0.000840017
0.000840263
0.000840506
0.000840744
0.000840973
0.000841192
0.000841398
0.000841586
0.000841754
0.0008419
0.000842015
0.000842197
0.000850639
0.00131449
0.000844136
0.000838522
0.000836169
0.000836583
0.000837932
0.000838533
0.000838093
0.000837199
0.000836326
0.000835647
0.000835189
0.000834918
0.000834778
0.000834714
0.000834687
0.000834677
0.000834676
0.000834678
0.000834682
0.000834686
0.000834692
0.000834697
0.000834703
0.00083471
0.000834717
0.000834724
0.000834732
0.000834741
0.00083475
0.00083476
0.00083477
0.000834782
0.000834794
0.000834806
0.00083482
0.000834835
0.00083485
0.000834867
0.000834885
0.000834903
0.000834924
0.000834945
0.000834968
0.000834992
0.000835018
0.000835046
0.000835075
0.000835107
0.00083514
0.000835176
0.000835214
0.000835255
0.000835298
0.000835345
0.000835394
0.000835447
0.000835503
0.000835563
0.000835627
0.000835695
0.000835768
0.000835846
0.000835929