/*--------------------------------*- C++ -*----------------------------------*\
| =========                 |                                                 |
| \\      /  F ield         | OpenFOAM: The Open Source CFD Toolbox           |
|  \\    /   O peration     | Version:  4.1                                   |
|   \\  /    A nd           | Web:      www.OpenFOAM.org                      |
|    \\/     M anipulation  |                                                 |
\*---------------------------------------------------------------------------*/
FoamFile
{
    version     2.0;
    format      ascii;
    class       surfaceScalarField;
    location    "0.01";
    object      phi;
}
// * * * * * * * * * * * * * * * * * * * * * * * * * * * * * * * * * * * * * //

dimensions      [0 3 -1 0 0 0 0];

internalField   nonuniform List<scalar> 
87025
(
0.0199655
3.44517e-05
0.0199071
5.84861e-05
0.0198325
7.45394e-05
0.0197377
9.47759e-05
0.0196249
0.000112893
0.0195067
0.00011813
0.0193944
0.000112359
0.0192897
0.000104664
0.0191893
0.000100434
0.01909
9.92991e-05
0.0189904
9.95644e-05
0.0188901
0.000100273
0.0187892
0.000100941
0.0186877
0.000101478
0.0185857
0.000102037
0.018483
0.000102711
0.0183795
0.00010348
0.0182752
0.000104321
0.0181699
0.000105237
0.0180637
0.000106229
0.0179564
0.000107295
0.017848
0.000108435
0.0177383
0.000109648
0.0176274
0.000110934
0.0175151
0.000112295
0.0174014
0.000113731
0.0172861
0.000115242
0.0171693
0.000116829
0.0170508
0.000118493
0.0169306
0.000120235
0.0168085
0.000122055
0.0166846
0.000123956
0.0165586
0.000125938
0.0164306
0.000128002
0.0163005
0.000130149
0.0161681
0.000132381
0.0160334
0.000134698
0.0158963
0.000137101
0.0157567
0.000139592
0.0156145
0.000142172
0.0154697
0.000144842
0.0153221
0.000147602
0.0151716
0.000150453
0.0150182
0.000153397
0.0148618
0.000156433
0.0147022
0.000159563
0.0145394
0.000162787
0.0143733
0.000166105
0.0142038
0.000169517
0.0140308
0.000173024
0.0138542
0.000176624
0.0136739
0.000180317
0.0134897
0.000184103
0.0133018
0.000187981
0.0131098
0.000191948
0.0129138
0.000196004
0.0127137
0.000200146
0.0125093
0.000204372
0.0123006
0.000208679
0.0120876
0.000213064
0.01187
0.000217523
0.011648
0.000222051
0.0114213
0.000226645
0.01119
0.000231299
0.010954
0.000236008
0.0107133
0.000240765
0.0104677
0.000245563
0.0102173
0.000250394
0.00996205
0.000255252
0.00970193
0.000260127
0.00943692
0.000265011
0.00916702
0.000269893
0.00889226
0.000274764
0.00861265
0.000279613
0.00832822
0.000284428
0.00803902
0.000289199
0.00774511
0.000293913
0.00744655
0.000298559
0.00714343
0.000303123
0.00683583
0.000307593
0.00652388
0.000311956
0.00620768
0.000316199
0.00588737
0.00032031
0.00556309
0.000324275
0.00523501
0.000328083
0.00490329
0.00033172
0.00456811
0.000335175
0.00422968
0.000338437
0.00388818
0.000341493
0.00354385
0.000344334
0.0031969
0.000346949
0.00284757
0.000349328
0.00249611
0.00035146
0.00214278
0.000353333
0.00178785
0.000354928
0.00143164
0.000356207
0.00107454
0.000357098
0.0007172
0.000357345
0.00035941
0.000357789
0.00035941
0.0200248
9.6172e-06
0.0200595
2.38119e-05
0.0201002
3.38752e-05
0.0201363
5.86211e-05
0.0201425
0.000106682
0.0200995
0.000161176
0.0200132
0.000198633
0.0199057
0.000212227
0.0197952
0.000210858
0.0196886
0.000205952
0.0195851
0.000203065
0.0194829
0.000202465
0.0193809
0.000202901
0.0192788
0.000203641
0.0191763
0.000204532
0.0190734
0.000205592
0.01897
0.000206831
0.0188661
0.000208245
0.0187615
0.000209827
0.0186562
0.000211569
0.01855
0.000213468
0.0184429
0.000215521
0.0183348
0.000217728
0.0182257
0.000220088
0.0181154
0.000222602
0.0180038
0.000225271
0.017891
0.000228096
0.0177767
0.000231079
0.017661
0.000234221
0.0175437
0.000237524
0.0174248
0.000240991
0.0173041
0.000244623
0.0171816
0.000248424
0.0170572
0.000252396
0.0169308
0.000256542
0.0168024
0.000260864
0.0166717
0.000265365
0.0165387
0.000270049
0.0164034
0.000274917
0.0162656
0.000279973
0.0161252
0.00028522
0.0159822
0.00029066
0.0158363
0.000296297
0.0156876
0.000302132
0.0155359
0.000308169
0.015381
0.000314409
0.015223
0.000320856
0.0150615
0.000327511
0.0148967
0.000334375
0.0147283
0.000341451
0.0145561
0.000348738
0.0143802
0.000356239
0.0142004
0.000363953
0.0140165
0.000371881
0.0138284
0.00038002
0.013636
0.000388371
0.0134393
0.000396931
0.0132379
0.000405697
0.0130319
0.000414667
0.0128212
0.000423835
0.0126055
0.000433196
0.0123848
0.000442745
0.012159
0.000452474
0.0119279
0.000462375
0.0116915
0.000472438
0.0114496
0.000482652
0.0112021
0.000493006
0.010949
0.000503485
0.0106902
0.000514075
0.0104256
0.000524759
0.0101551
0.000535519
0.00987864
0.000546336
0.00959621
0.000557189
0.00930777
0.000568055
0.00901329
0.000578909
0.00871276
0.000589727
0.0084062
0.000600481
0.00809361
0.000611142
0.00777505
0.00062168
0.00745058
0.000632065
0.00712027
0.000642264
0.00678423
0.000652243
0.00644257
0.00066197
0.00609544
0.000671409
0.00574299
0.000680526
0.00538543
0.000689285
0.00502295
0.000697653
0.00465579
0.000705595
0.00428421
0.000713077
0.00390848
0.000720066
0.0035289
0.00072653
0.00314579
0.000732439
0.00275949
0.000737761
0.00237035
0.000742468
0.00197875
0.000746527
0.00158506
0.0007499
0.0011896
0.000752553
0.000792561
0.000754388
0.000394506
0.000755844
0.000753917
0.0200003
9.3408e-06
0.0200017
2.23649e-05
0.0200007
3.49115e-05
0.0199885
7.08166e-05
0.0199534
0.000141788
0.0198891
0.000225501
0.0198002
0.000287485
0.0196986
0.000313843
0.0195942
0.000315206
0.0194913
0.000308924
0.0193896
0.000304693
0.0192884
0.00030375
0.0191869
0.000304409
0.0190849
0.000305549
0.0189826
0.00030691
0.0188797
0.000308507
0.0187761
0.000310363
0.0186719
0.000312476
0.0185669
0.000314838
0.018461
0.000317439
0.0183542
0.000320274
0.0182464
0.000323339
0.0181375
0.000326634
0.0180274
0.000330158
0.0179161
0.000333913
0.0178035
0.0003379
0.0176894
0.00034212
0.0175739
0.000346577
0.0174569
0.000351271
0.0173382
0.000356208
0.0172178
0.00036139
0.0170956
0.00036682
0.0169715
0.000372503
0.0168455
0.000378441
0.0167174
0.000384641
0.0165872
0.000391104
0.0164547
0.000397836
0.0163199
0.000404842
0.0161827
0.000412124
0.016043
0.000419689
0.0159006
0.000427539
0.0157556
0.00043568
0.0156078
0.000444116
0.0154571
0.00045285
0.0153034
0.000461887
0.0151466
0.000471231
0.0149865
0.000480884
0.0148232
0.00049085
0.0146564
0.000501133
0.0144861
0.000511733
0.0143122
0.000522654
0.0141346
0.000533896
0.0139531
0.000545461
0.0137676
0.000557348
0.0135781
0.000569557
0.0133843
0.000582086
0.0131863
0.000594934
0.0129839
0.000608095
0.012777
0.000621566
0.0125655
0.000635341
0.0123493
0.000649412
0.0121283
0.000663771
0.0119024
0.000678409
0.0116714
0.000693311
0.0114354
0.000708467
0.0111942
0.000723859
0.0109477
0.00073947
0.0106959
0.00075528
0.0104387
0.000771269
0.0101761
0.000787412
0.00990792
0.000803682
0.00963421
0.000820051
0.00935491
0.000836487
0.00907001
0.000852958
0.00877949
0.000869426
0.00848336
0.000885854
0.00818164
0.0009022
0.00787436
0.000918422
0.00756157
0.000934473
0.00724333
0.000950306
0.00691972
0.000965873
0.00659084
0.000981121
0.00625681
0.000995999
0.00591777
0.00101045
0.00557387
0.00102443
0.00522529
0.00103787
0.00487222
0.00105072
0.00451488
0.00106293
0.00415351
0.00107445
0.00378836
0.00108522
0.0034197
0.00109518
0.00304784
0.0011043
0.00267307
0.00111253
0.00229571
0.00111982
0.00191611
0.00112613
0.00153458
0.00113143
0.00115143
0.0011357
0.000766902
0.00113892
0.000381411
0.00114134
0.00113533
0.0199998
9.55066e-06
0.0199995
2.26296e-05
0.0199965
3.7915e-05
0.0199812
8.61791e-05
0.0199413
0.000181629
0.0198727
0.000294104
0.0197824
0.000377847
0.0196819
0.000414266
0.0195797
0.000417454
0.0194783
0.000410276
0.0193776
0.000405406
0.0192768
0.000404523
0.0191757
0.000405566
0.0190741
0.000407175
0.0189719
0.000409049
0.0188692
0.000411221
0.0187658
0.000413725
0.0186618
0.000416565
0.0185569
0.00041973
0.0184511
0.00042321
0.0183444
0.000426997
0.0182366
0.00043109
0.0181278
0.000435489
0.0180177
0.000440192
0.0179064
0.000445202
0.0177938
0.00045052
0.0176798
0.000456149
0.0175643
0.000462092
0.0174472
0.000468353
0.0173285
0.000474937
0.017208
0.000481847
0.0170857
0.000489089
0.0169616
0.000496667
0.0168354
0.000504587
0.0167072
0.000512854
0.0165768
0.000521474
0.0164442
0.000530452
0.0163093
0.000539795
0.0161719
0.000549508
0.016032
0.000559597
0.0158895
0.000570068
0.0157442
0.000580927
0.0155961
0.000592179
0.0154452
0.00060383
0.0152912
0.000615885
0.0151341
0.000628349
0.0149737
0.000641227
0.01481
0.000654524
0.0146429
0.000668243
0.0144723
0.000682387
0.014298
0.000696959
0.0141199
0.000711961
0.013938
0.000727394
0.0137521
0.000743259
0.0135621
0.000759554
0.0133679
0.000776278
0.0131694
0.000793427
0.0129665
0.000810997
0.0127591
0.000828982
0.012547
0.000847374
0.0123303
0.000866163
0.0121087
0.000885339
0.0118822
0.000904888
0.0116507
0.000924793
0.0114142
0.000945037
0.0111724
0.0009656
0.0109254
0.000986458
0.0106731
0.00100758
0.0104155
0.00102895
0.0101523
0.00105053
0.00988375
0.00107228
0.00960964
0.00109416
0.00932999
0.00111613
0.00904479
0.00113816
0.00875404
0.00116018
0.00845773
0.00118216
0.00815591
0.00120402
0.0078486
0.00122573
0.00753587
0.00124721
0.00721778
0.0012684
0.00689442
0.00128923
0.0065659
0.00130964
0.00623233
0.00132956
0.00589387
0.00134892
0.00555067
0.00136763
0.0052029
0.00138563
0.00485077
0.00140285
0.00449449
0.00141921
0.0041343
0.00143464
0.00377045
0.00144907
0.00340321
0.00146243
0.00303286
0.00147465
0.00265971
0.00148568
0.00228406
0.00149547
0.00190625
0.00150395
0.00152659
0.00151109
0.00114542
0.00151687
0.000763091
0.00152125
0.000380058
0.00152437
0.00151539
0.0199991
1.0466e-05
0.0199975
2.42338e-05
0.0199936
4.17615e-05
0.0199783
0.000101487
0.0199392
0.000220782
0.0198715
0.000361799
0.019782
0.000467357
0.0196822
0.000514051
0.0195804
0.000519197
0.0194796
0.000511105
0.0193795
0.000505548
0.0192792
0.000504743
0.0191786
0.000506238
0.0190774
0.000508379
0.0189756
0.000510806
0.0188733
0.000513577
0.0187702
0.000516746
0.0186665
0.000520322
0.0185619
0.000524297
0.0184565
0.000528658
0.0183501
0.000533401
0.0182426
0.000538522
0.0181341
0.000544022
0.0180244
0.000549901
0.0179134
0.000556162
0.0178011
0.000562807
0.0176875
0.00056984
0.0175723
0.000577266
0.0174555
0.000585088
0.0173372
0.000593313
0.0172171
0.000601946
0.0170952
0.000610993
0.0169714
0.00062046
0.0168456
0.000630354
0.0167178
0.000640682
0.0165878
0.000651452
0.0164556
0.00066267
0.016321
0.000674343
0.0161841
0.000686479
0.0160446
0.000699086
0.0159025
0.000712171
0.0157577
0.000725741
0.01561
0.000739803
0.0154595
0.000754365
0.0153059
0.000769433
0.0151493
0.000785013
0.0149894
0.000801112
0.0148262
0.000817736
0.0146595
0.000834888
0.0144894
0.000852574
0.0143155
0.000870796
0.0141379
0.000889558
0.0139565
0.000908861
0.013771
0.000928706
0.0135815
0.000949092
0.0133877
0.000970016
0.0131897
0.000991474
0.0129872
0.00101346
0.0127802
0.00103597
0.0125686
0.001059
0.0123522
0.00108252
0.0121311
0.00110653
0.0119049
0.00113101
0.0116738
0.00115594
0.0114375
0.0011813
0.011196
0.00120707
0.0109493
0.0012332
0.0106972
0.00125968
0.0104397
0.00128647
0.0101767
0.00131352
0.00990818
0.00134079
0.0096341
0.00136824
0.00935442
0.00139581
0.00906914
0.00142344
0.00877825
0.00145108
0.00848174
0.00147866
0.00817965
0.00150611
0.00787201
0.00153336
0.00755888
0.00156034
0.00724032
0.00158696
0.00691642
0.00161313
0.00658728
0.00163878
0.00625303
0.00166381
0.00591381
0.00168814
0.00556978
0.00171167
0.00522111
0.0017343
0.00486801
0.00175595
0.00451069
0.00177653
0.0041494
0.00179593
0.00378438
0.00181408
0.00341592
0.00183089
0.00304429
0.00184627
0.00266982
0.00186016
0.00229281
0.00187248
0.0019136
0.00188316
0.00153253
0.00189216
0.00114995
0.00189944
0.000766263
0.00190494
0.00038188
0.00190875
0.00189727
0.0199988
1.16564e-05
0.0199966
2.64235e-05
0.0199922
4.61516e-05
0.0199767
0.000117055
0.0199375
0.000259929
0.01987
0.000429316
0.0197808
0.000556522
0.0196816
0.000613323
0.0195804
0.000620313
0.0194803
0.000611278
0.0193807
0.000605069
0.0192811
0.0006044
0.0191809
0.0006064
0.0190802
0.000609112
0.0189789
0.00061212
0.0188769
0.000615511
0.0187743
0.00061936
0.018671
0.000623684
0.0185668
0.000628475
0.0184617
0.000633722
0.0183557
0.00063942
0.0182487
0.000645569
0.0181405
0.00065217
0.0180312
0.000659223
0.0179206
0.000666732
0.0178087
0.0006747
0.0176954
0.000683133
0.0175807
0.000692035
0.0174643
0.000701413
0.0173464
0.000711272
0.0172267
0.000721621
0.0171052
0.000732466
0.0169819
0.000743815
0.0168566
0.000755676
0.0167292
0.000768058
0.0165997
0.000780969
0.0164679
0.000794417
0.0163339
0.000808413
0.0161974
0.000822965
0.0160584
0.000838081
0.0159168
0.000853772
0.0157725
0.000870045
0.0156254
0.00088691
0.0154754
0.000904375
0.0153223
0.000922448
0.0151662
0.000941138
0.0150069
0.000960451
0.0148442
0.000980395
0.0146781
0.00100098
0.0145085
0.0010222
0.0143352
0.00104407
0.0141582
0.00106659
0.0139773
0.00108976
0.0137924
0.00111358
0.0136035
0.00113806
0.0134103
0.00116319
0.0132128
0.00118896
0.0130109
0.00121537
0.0128044
0.00124242
0.0125933
0.00127008
0.0123775
0.00129836
0.0121568
0.00132722
0.0119312
0.00135665
0.0117005
0.00138663
0.0114647
0.00141713
0.0112236
0.00144813
0.0109772
0.00147958
0.0107255
0.00151145
0.0104682
0.00154369
0.0102055
0.00157626
0.00993719
0.00160911
0.00966325
0.00164217
0.00938366
0.00167539
0.0090984
0.0017087
0.00880746
0.00174203
0.00851083
0.00177529
0.00820854
0.0018084
0.00790062
0.00184128
0.00758712
0.00187384
0.00726811
0.00190597
0.00694366
0.00193758
0.00661388
0.00196856
0.00627888
0.00199881
0.00593882
0.00202821
0.00559384
0.00205665
0.00524412
0.00208401
0.00488988
0.0021102
0.00453132
0.00213509
0.00416869
0.00215856
0.00380225
0.00218053
0.00343227
0.00220087
0.00305905
0.00221949
0.0026829
0.00223631
0.00230415
0.00225122
0.00192315
0.00226416
0.00154024
0.00227507
0.00115581
0.00228387
0.000770228
0.00229052
0.000383911
0.00229507
0.00228118
0.0199987
1.29662e-05
0.0199962
2.89613e-05
0.0199914
5.09402e-05
0.0199755
0.000132885
0.0199363
0.000299129
0.019869
0.000496678
0.0197802
0.000645332
0.0196814
0.000712085
0.0195809
0.000720848
0.0194813
0.000710858
0.0193823
0.000704006
0.0192833
0.000703491
0.0191836
0.000706018
0.0190834
0.000709326
0.0189826
0.000712937
0.0188812
0.000716963
0.018779
0.000721503
0.0186761
0.000726584
0.0185724
0.000732196
0.0184678
0.000738332
0.0183622
0.000744989
0.0182556
0.000752165
0.0181479
0.000759864
0.0180391
0.000768088
0.0179289
0.000776841
0.0178175
0.000786128
0.0177047
0.000795954
0.0175904
0.000806327
0.0174746
0.000817253
0.0173571
0.000828741
0.0172379
0.000840797
0.017117
0.000853433
0.0169941
0.000866655
0.0168693
0.000880475
0.0167425
0.000894901
0.0166135
0.000909945
0.0164823
0.000925616
0.0163488
0.000941925
0.0162129
0.000958883
0.0160744
0.0009765
0.0159334
0.000994787
0.0157897
0.00101376
0.0156432
0.00103341
0.0154938
0.00105377
0.0153414
0.00107484
0.0151859
0.00109664
0.0150272
0.00111916
0.0148652
0.00114242
0.0146998
0.00116642
0.0145308
0.00119118
0.0143582
0.00121669
0.0141818
0.00124296
0.0140015
0.00127
0.0138173
0.00129781
0.013629
0.00132638
0.0134365
0.00135571
0.0132396
0.00138581
0.0130383
0.00141665
0.0128325
0.00144824
0.012622
0.00148056
0.0124068
0.0015136
0.0121867
0.00154733
0.0119616
0.00158174
0.0117314
0.0016168
0.0114961
0.00165247
0.0112555
0.00168873
0.0110095
0.00172554
0.0107581
0.00176284
0.0105012
0.00180059
0.0102387
0.00183874
0.00997064
0.00187721
0.00969686
0.00191596
0.00941735
0.0019549
0.0091321
0.00199396
0.00884108
0.00203304
0.0085443
0.00207207
0.00824177
0.00211093
0.00793352
0.00214954
0.00761958
0.00218777
0.00730003
0.00222553
0.00697494
0.00226267
0.0066444
0.0022991
0.00630855
0.00233466
0.00596751
0.00236925
0.00562144
0.00240271
0.00527052
0.00243493
0.00491496
0.00246576
0.00455498
0.00249507
0.00419081
0.00252273
0.00382273
0.00254861
0.00345101
0.00257259
0.00307596
0.00259455
0.00269789
0.00261437
0.00231716
0.00263196
0.0019341
0.00264722
0.00154908
0.00266008
0.00116249
0.00267047
0.000774718
0.00267829
0.000386169
0.00268362
0.00266735
0.0199986
1.43449e-05
0.0199959
3.17055e-05
0.0199908
5.59875e-05
0.0199748
0.000148894
0.0199356
0.000338331
0.0198685
0.000563841
0.01978
0.000733769
0.0196817
0.000810354
0.0195818
0.000820823
0.0194828
0.00080985
0.0193844
0.000802349
0.0192859
0.000801992
0.0191869
0.000805059
0.0190872
0.000808976
0.018987
0.000813202
0.0188861
0.000817874
0.0187845
0.000823115
0.0186821
0.000828957
0.0185789
0.000835395
0.0184748
0.000842422
0.0183698
0.000850035
0.0182637
0.000858237
0.0181565
0.000867032
0.0180482
0.000876422
0.0179386
0.000886414
0.0178277
0.000897014
0.0177154
0.000908228
0.0176017
0.000920064
0.0174864
0.000932531
0.0173695
0.000945637
0.0172509
0.000959394
0.0171306
0.00097381
0.0170083
0.000988896
0.0168841
0.00100466
0.0167579
0.00102113
0.0166296
0.00103829
0.016499
0.00105617
0.0163661
0.00107479
0.0162309
0.00109414
0.0160931
0.00111425
0.0159528
0.00113512
0.0158098
0.00115677
0.015664
0.00117921
0.0155153
0.00120246
0.0153636
0.00122652
0.0152089
0.0012514
0.0150509
0.00127712
0.0148896
0.00130369
0.0147249
0.00133111
0.0145567
0.00135939
0.0143849
0.00138855
0.0142092
0.00141857
0.0140298
0.00144948
0.0138463
0.00148127
0.0136587
0.00151393
0.013467
0.00154748
0.0132709
0.0015819
0.0130703
0.00161719
0.0128653
0.00165334
0.0126555
0.00169033
0.0124409
0.00172815
0.0122215
0.00176678
0.011997
0.00180619
0.0117675
0.00184635
0.0115327
0.00188724
0.0112926
0.0019288
0.0110472
0.001971
0.0107962
0.00201379
0.0105397
0.0020571
0.0102776
0.00210089
0.0100097
0.00214506
0.00973611
0.00218957
0.0094567
0.00223431
0.00917147
0.00227919
0.00888037
0.00232413
0.00858342
0.00236902
0.00828061
0.00241374
0.00797197
0.00245818
0.00765753
0.00250221
0.00733736
0.0025457
0.00701152
0.00258851
0.00668011
0.0026305
0.00634325
0.00267152
0.00600108
0.00271142
0.00565374
0.00275005
0.00530142
0.00278725
0.00494432
0.00282286
0.00458267
0.00285672
0.00421671
0.00288869
0.00384671
0.00291861
0.00347296
0.00294634
0.00309577
0.00297174
0.00271546
0.00299468
0.00233239
0.00301503
0.00194692
0.0030327
0.00155943
0.00304757
0.0011703
0.00305959
0.000779957
0.00306864
0.000388793
0.00307478
0.00305614
0.0199986
1.57634e-05
0.0199957
3.45726e-05
0.0199905
6.11983e-05
0.0199744
0.000165009
0.0199352
0.000377483
0.0198683
0.000630758
0.0197803
0.000821795
0.0196825
0.000908103
0.0195831
0.000920222
0.0194848
0.00090824
0.019387
0.000900079
0.0192891
0.000899877
0.0191907
0.000903485
0.0190917
0.000908018
0.018992
0.000912865
0.0188917
0.000918189
0.0187907
0.000924134
0.0186889
0.000930741
0.0185863
0.000938005
0.0184828
0.000945922
0.0183783
0.000954491
0.0182728
0.000963716
0.0181663
0.000973602
0.0180585
0.000984154
0.0179496
0.000995378
0.0178393
0.00100728
0.0177277
0.00101988
0.0176146
0.00103317
0.0174999
0.00104717
0.0173837
0.00106188
0.0172657
0.00107733
0.017146
0.00109351
0.0170245
0.00111045
0.016901
0.00112816
0.0167755
0.00114664
0.0166478
0.00116592
0.016518
0.001186
0.0163859
0.0012069
0.0162514
0.00122864
0.0161144
0.00125122
0.0159749
0.00127467
0.0158327
0.001299
0.0156877
0.00132421
0.0155398
0.00135033
0.0153889
0.00137737
0.015235
0.00140533
0.0150779
0.00143424
0.0149175
0.00146411
0.0147537
0.00149494
0.0145863
0.00152674
0.0144153
0.00155953
0.0142406
0.0015933
0.014062
0.00162807
0.0138794
0.00166384
0.0136927
0.00170061
0.0135019
0.00173837
0.0133066
0.00177713
0.0131069
0.00181687
0.0129027
0.00185759
0.0126938
0.00189928
0.01248
0.0019419
0.0122613
0.00198545
0.0120376
0.00202989
0.0118088
0.0020752
0.0115747
0.00212133
0.0113353
0.00216824
0.0110904
0.00221589
0.01084
0.00226422
0.0105839
0.00231316
0.0103221
0.00236265
0.0100546
0.0024126
0.00978121
0.00246295
0.00950194
0.00251358
0.00921674
0.0025644
0.00892558
0.0026153
0.00862845
0.00266616
0.00832533
0.00271685
0.00801627
0.00276725
0.00770127
0.00281721
0.0073804
0.00286657
0.00705372
0.00291519
0.00672132
0.0029629
0.00638332
0.00300952
0.00603985
0.0030549
0.00569106
0.00309884
0.00533714
0.00314117
0.00497828
0.00318172
0.00461471
0.00322029
0.00424669
0.00325672
0.00387448
0.00329082
0.00349838
0.00332244
0.00311871
0.00335141
0.00273582
0.00337757
0.00235005
0.0034008
0.00196178
0.00342096
0.00157142
0.00343794
0.00117936
0.00345165
0.000786018
0.00346197
0.000391824
0.00346897
0.00344796
0.0199986
1.7204e-05
0.0199956
3.75132e-05
0.0199903
6.65093e-05
0.0199741
0.00018117
0.0199351
0.000416528
0.0198685
0.000697373
0.0197809
0.000909356
0.0196837
0.00100529
0.0195849
0.00101901
0.0194872
0.001006
0.0193901
0.000997166
0.0192929
0.000997111
0.0191951
0.00100126
0.0190967
0.0010064
0.0189977
0.00101187
0.018898
0.00101785
0.0187977
0.0010245
0.0186965
0.00103187
0.0185946
0.00103996
0.0184917
0.00104877
0.0183879
0.00105829
0.0182831
0.00106853
0.0181772
0.0010795
0.0180702
0.00109121
0.0179619
0.00110366
0.0178523
0.00111686
0.0177413
0.00113083
0.017629
0.00114556
0.017515
0.00116108
0.0173995
0.00117739
0.0172823
0.00119452
0.0171634
0.00121246
0.0170426
0.00123124
0.0169199
0.00125087
0.0167952
0.00127136
0.0166683
0.00129274
0.0165393
0.001315
0.0164081
0.00133818
0.0162744
0.00136229
0.0161383
0.00138734
0.0159996
0.00141334
0.0158583
0.00144032
0.0157142
0.0014683
0.0155673
0.00149728
0.0154174
0.00152728
0.0152644
0.00155832
0.0151082
0.0015904
0.0149488
0.00162356
0.0147859
0.00165779
0.0146196
0.0016931
0.0144496
0.00172952
0.0142758
0.00176704
0.0140982
0.00180567
0.0139167
0.00184542
0.013731
0.00188629
0.0135411
0.00192827
0.0133468
0.00197137
0.0131481
0.00201558
0.0129449
0.00206089
0.0127369
0.00210727
0.012524
0.00215473
0.0123063
0.00220322
0.0120834
0.00225273
0.0118554
0.00230321
0.0116221
0.00235464
0.0113834
0.00240695
0.0111392
0.00246011
0.0108893
0.00251404
0.0106338
0.00256868
0.0103725
0.00262395
0.0101053
0.00267977
0.00983224
0.00273605
0.00955315
0.00279267
0.00926801
0.00284953
0.0089768
0.00290651
0.00867948
0.00296347
0.00837606
0.00302028
0.00806653
0.00307678
0.00775092
0.00313281
0.00742928
0.00318821
0.00710167
0.0032428
0.00676818
0.00329639
0.0064289
0.0033488
0.00608398
0.00339982
0.00573356
0.00344926
0.00537782
0.00349691
0.00501697
0.00354257
0.00465124
0.00358602
0.00428087
0.00362708
0.00390616
0.00366554
0.00352739
0.0037012
0.00314491
0.00373389
0.00275906
0.00376342
0.00237022
0.00378965
0.00197876
0.00381241
0.00158512
0.00383159
0.0011897
0.00384707
0.000792939
0.00385873
0.000395283
0.00386663
0.00384325
0.0199985
1.86557e-05
0.0199956
4.04956e-05
0.0199902
7.18759e-05
0.019974
0.000197328
0.0199352
0.000455412
0.0198689
0.000763628
0.0197819
0.000996395
0.0196853
0.00110186
0.0195872
0.00111715
0.0194901
0.00110309
0.0193936
0.00109357
0.0192971
0.00109366
0.0192
0.00109833
0.0191023
0.00110409
0.019004
0.00111018
0.0189051
0.00111681
0.0188054
0.00112416
0.018705
0.00113229
0.0186038
0.00114121
0.0185016
0.0011509
0.0183986
0.00116136
0.0182945
0.00117262
0.0181893
0.00118467
0.018083
0.00119752
0.0179755
0.00121119
0.0178667
0.00122568
0.0177565
0.001241
0.0176449
0.00125717
0.0175318
0.0012742
0.0174171
0.0012921
0.0173007
0.00131088
0.0171826
0.00133057
0.0170626
0.00135118
0.0169408
0.00137271
0.016817
0.0013952
0.016691
0.00141865
0.016563
0.00144309
0.0164326
0.00146853
0.0162999
0.00149499
0.0161648
0.00152248
0.0160271
0.00155103
0.0158867
0.00158066
0.0157437
0.00161137
0.0155977
0.0016432
0.0154489
0.00167615
0.0152969
0.00171024
0.0151418
0.0017455
0.0149835
0.00178193
0.0148217
0.00181954
0.0146565
0.00185836
0.0144876
0.0018984
0.014315
0.00193966
0.0141385
0.00198215
0.013958
0.00202587
0.0137735
0.00207084
0.0135847
0.00211705
0.0133916
0.0021645
0.0131939
0.00221319
0.0129917
0.00226309
0.0127848
0.00231421
0.012573
0.00236652
0.0123563
0.00241999
0.0121344
0.00247459
0.0119073
0.0025303
0.0116749
0.00258706
0.011437
0.00264483
0.0111936
0.00270355
0.0109444
0.00276316
0.0106895
0.00282357
0.0104288
0.00288472
0.0101621
0.0029465
0.0098893
0.00300881
0.00961043
0.00307154
0.00932539
0.00313456
0.00903415
0.00319775
0.00873666
0.00326096
0.00843291
0.00332403
0.0081229
0.00338679
0.00780664
0.00344907
0.00748416
0.00351068
0.00715554
0.00357143
0.00682083
0.0036311
0.00648015
0.00368948
0.00613362
0.00374635
0.0057814
0.00380149
0.00542364
0.00385466
0.00506057
0.00390564
0.00469242
0.00395418
0.00431943
0.00400007
0.0039419
0.00404307
0.00356015
0.00408296
0.0031745
0.00411954
0.00278532
0.0041526
0.002393
0.00418196
0.00199795
0.00420746
0.0016006
0.00422894
0.00120138
0.00424629
0.000800761
0.00425935
0.000399193
0.0042682
0.00424244
0.0199985
2.0111e-05
0.0199955
4.34979e-05
0.0199902
7.7266e-05
0.019974
0.00021344
0.0199354
0.000494086
0.0198695
0.000829465
0.0197831
0.00108285
0.0196872
0.00119777
0.0195897
0.00121459
0.0194933
0.00119947
0.0193977
0.00118926
0.0193019
0.00118946
0.0192055
0.00119466
0.0191086
0.00120102
0.019011
0.00120773
0.0189128
0.001215
0.018814
0.00122306
0.0187143
0.00123195
0.0186138
0.00124167
0.0185125
0.00125224
0.0184102
0.00126365
0.0183069
0.00127591
0.0182026
0.00128903
0.0180971
0.00130302
0.0179904
0.00131789
0.0178824
0.00133365
0.0177731
0.00135032
0.0176623
0.00136791
0.0175501
0.00138644
0.0174363
0.00140591
0.0173208
0.00142634
0.0172036
0.00144776
0.0170846
0.00147017
0.0169637
0.0014936
0.0168409
0.00151807
0.0167159
0.00154359
0.0165888
0.00157017
0.0164595
0.00159786
0.0163279
0.00162665
0.0161938
0.00165657
0.0160572
0.00168765
0.0159179
0.0017199
0.015776
0.00175334
0.0156312
0.00178799
0.0154834
0.00182387
0.0153327
0.00186101
0.0151788
0.00189941
0.0150216
0.0019391
0.014861
0.00198009
0.014697
0.00202241
0.0145293
0.00206605
0.014358
0.00211104
0.0141827
0.00215738
0.0140035
0.00220508
0.0138202
0.00225416
0.0136327
0.00230459
0.0134408
0.0023564
0.0132444
0.00240957
0.0130434
0.00246409
0.0128376
0.00251996
0.012627
0.00257714
0.0124114
0.00263562
0.0121906
0.00269536
0.0119646
0.00275633
0.0117332
0.00281848
0.0114962
0.00288176
0.0112537
0.00294612
0.0110054
0.00301147
0.0107512
0.00307775
0.010491
0.00314486
0.0102248
0.0032127
0.00995249
0.00328116
0.0096739
0.00335012
0.00938902
0.00341945
0.00909778
0.003489
0.00880013
0.00355861
0.00849606
0.0036281
0.00818554
0.00369731
0.00786859
0.00376602
0.00754523
0.00383404
0.00721551
0.00390115
0.0068795
0.00396711
0.00653729
0.00403169
0.006189
0.00409464
0.00583478
0.00415571
0.00547481
0.00421463
0.00510929
0.00427116
0.00473845
0.00432502
0.00436255
0.00437596
0.0039819
0.00442372
0.00359681
0.00446805
0.00320763
0.00450872
0.00281474
0.00454549
0.00241854
0.00457816
0.00201946
0.00460654
0.00161796
0.00463045
0.00121449
0.00464976
0.000809532
0.00466431
0.000403577
0.00467415
0.00464602
0.0199985
2.15642e-05
0.0199955
4.65043e-05
0.0199902
8.26554e-05
0.0199741
0.000229475
0.0199357
0.000532504
0.0198703
0.000894828
0.0197845
0.00116866
0.0196893
0.00129295
0.0195927
0.00131128
0.019497
0.00129509
0.0194021
0.00128417
0.0193071
0.00128449
0.0192116
0.0012902
0.0191154
0.00129715
0.0190187
0.00130447
0.0189213
0.00131238
0.0188232
0.00132113
0.0187244
0.00133077
0.0186248
0.00134131
0.0185243
0.00135274
0.0184229
0.00136508
0.0183204
0.00137833
0.018217
0.00139251
0.0181123
0.00140763
0.0180065
0.00142369
0.0178995
0.00144072
0.0177911
0.00145873
0.0176813
0.00147772
0.01757
0.00149772
0.0174571
0.00151875
0.0173427
0.00154082
0.0172265
0.00156395
0.0171085
0.00158815
0.0169886
0.00161346
0.0168668
0.00163988
0.016743
0.00166744
0.016617
0.00169616
0.0164888
0.00172606
0.0163583
0.00175717
0.0162253
0.0017895
0.0160899
0.00182308
0.0159518
0.00185794
0.0158111
0.00189408
0.0156675
0.00193154
0.0155211
0.00197034
0.0153716
0.0020105
0.015219
0.00205203
0.0150631
0.00209497
0.0149039
0.00213932
0.0147412
0.00218511
0.0145749
0.00223235
0.0144048
0.00228106
0.014231
0.00233125
0.0140531
0.00238293
0.0138712
0.0024361
0.013685
0.00249077
0.0134945
0.00254693
0.0132995
0.0026046
0.0130998
0.00266375
0.0128954
0.00272438
0.012686
0.00278646
0.0124717
0.00284998
0.0122521
0.0029149
0.0120273
0.00298118
0.011797
0.00304877
0.0115611
0.00311763
0.0113196
0.00318769
0.0110722
0.00325887
0.0108188
0.0033311
0.0105594
0.00340427
0.0102938
0.00347829
0.0100219
0.00355302
0.00974371
0.00362835
0.00945903
0.00370413
0.00916784
0.00378019
0.00887007
0.00385638
0.00856568
0.00393249
0.00825466
0.00400833
0.00793699
0.00408369
0.0076127
0.00415834
0.00728181
0.00423204
0.00694439
0.00430453
0.00660053
0.00437555
0.00625033
0.00444483
0.00589395
0.00451209
0.00553155
0.00457703
0.00516334
0.00463937
0.00478956
0.00469881
0.00441046
0.00475506
0.00402636
0.00480782
0.00363758
0.00485683
0.00324449
0.00490181
0.00284748
0.0049425
0.00244697
0.00497866
0.00204342
0.00501009
0.00163729
0.00503658
0.00122909
0.00505797
0.000819306
0.00507409
0.000408463
0.005085
0.00505448
0.0199986
2.30111e-05
0.0199956
4.95028e-05
0.0199902
8.80253e-05
0.0199743
0.000245404
0.0199361
0.000570626
0.0198713
0.000959664
0.0197862
0.00125377
0.0196918
0.00138734
0.0195959
0.00140715
0.0195011
0.0013899
0.019407
0.00137826
0.0193128
0.00137868
0.0192181
0.00138489
0.0191229
0.00139243
0.019027
0.00140034
0.0189305
0.00140889
0.0188333
0.00141832
0.0187354
0.0014287
0.0186366
0.00144004
0.018537
0.00145233
0.0184365
0.0014656
0.018335
0.00147983
0.0182325
0.00149506
0.0181288
0.00151129
0.018024
0.00152853
0.0179179
0.00154681
0.0178105
0.00156613
0.0177017
0.00158652
0.0175914
0.00160798
0.0174796
0.00163055
0.0173662
0.00165423
0.0172511
0.00167905
0.0171342
0.00170503
0.0170155
0.00173218
0.0168948
0.00176054
0.0167722
0.00179013
0.0166474
0.00182096
0.0165204
0.00185306
0.0163911
0.00188646
0.0162594
0.00192118
0.0161252
0.00195724
0.0159885
0.00199468
0.0158491
0.00203351
0.0157069
0.00207375
0.0155618
0.00211544
0.0154136
0.0021586
0.0152624
0.00220325
0.015108
0.00224941
0.0149502
0.00229711
0.0147889
0.00234636
0.0146241
0.00239719
0.0144556
0.0024496
0.0142832
0.00250363
0.0141069
0.00255927
0.0139264
0.00261653
0.0137418
0.00267543
0.0135527
0.00273597
0.0133592
0.00279814
0.013161
0.00286193
0.012958
0.00292735
0.0127501
0.00299436
0.0125372