/*--------------------------------*- C++ -*----------------------------------*\
| =========                 |                                                 |
| \\      /  F ield         | OpenFOAM: The Open Source CFD Toolbox           |
|  \\    /   O peration     | Version:  4.1                                   |
|   \\  /    A nd           | Web:      www.OpenFOAM.org                      |
|    \\/     M anipulation  |                                                 |
\*---------------------------------------------------------------------------*/
FoamFile
{
    version     2.0;
    format      ascii;
    class       volVectorField;
    location    "0.01";
    object      U;
}
// * * * * * * * * * * * * * * * * * * * * * * * * * * * * * * * * * * * * * //

dimensions      [0 1 -1 0 0 0 0];

internalField   nonuniform List<vector> 
43750
(
(9.99121 0.0217176 0)
(9.96494 0.0370312 0)
(9.92525 0.0458061 0)
(9.89617 0.0534373 0)
(9.85971 0.0557744 0)
(9.78656 0.0490478 0)
(9.71127 0.0372711 0)
(9.66597 0.0279743 0)
(9.6262 0.0242076 0)
(9.57241 0.023996 0)
(9.51747 0.0247143 0)
(9.46912 0.0252708 0)
(9.42081 0.0255696 0)
(9.36965 0.0257434 0)
(9.31815 0.0259055 0)
(9.26715 0.026101 0)
(9.21578 0.0263247 0)
(9.16379 0.0265658 0)
(9.11137 0.0268234 0)
(9.05853 0.0270991 0)
(9.00516 0.0273929 0)
(8.95124 0.0277045 0)
(8.89672 0.028034 0)
(8.84159 0.0283818 0)
(8.78579 0.0287479 0)
(8.72929 0.0291324 0)
(8.67206 0.0295356 0)
(8.61405 0.0299577 0)
(8.55523 0.0303988 0)
(8.49556 0.0308593 0)
(8.43499 0.0313394 0)
(8.3735 0.0318393 0)
(8.31104 0.0323592 0)
(8.24756 0.0328994 0)
(8.18304 0.0334602 0)
(8.11741 0.0340419 0)
(8.05065 0.0346446 0)
(7.98272 0.0352686 0)
(7.91355 0.0359141 0)
(7.84312 0.0365814 0)
(7.77138 0.0372706 0)
(7.69828 0.0379819 0)
(7.62378 0.0387155 0)
(7.54783 0.0394715 0)
(7.47038 0.04025 0)
(7.39139 0.0410511 0)
(7.31082 0.0418748 0)
(7.22861 0.0427212 0)
(7.14471 0.0435901 0)
(7.05909 0.0444814 0)
(6.97169 0.0453951 0)
(6.88247 0.046331 0)
(6.79137 0.0472886 0)
(6.69836 0.0482678 0)
(6.60339 0.0492681 0)
(6.50642 0.050289 0)
(6.40739 0.0513299 0)
(6.30627 0.0523903 0)
(6.20302 0.0534693 0)
(6.09759 0.054566 0)
(5.98996 0.0556797 0)
(5.88007 0.0568089 0)
(5.76791 0.0579525 0)
(5.65343 0.059109 0)
(5.53661 0.060277 0)
(5.41742 0.0614547 0)
(5.29584 0.0626406 0)
(5.17186 0.0638327 0)
(5.04545 0.0650291 0)
(4.91661 0.0662278 0)
(4.78532 0.0674265 0)
(4.6516 0.068623 0)
(4.51543 0.0698149 0)
(4.37683 0.0709997 0)
(4.23582 0.0721749 0)
(4.0924 0.073338 0)
(3.94662 0.0744862 0)
(3.79849 0.075617 0)
(3.64806 0.0767275 0)
(3.49536 0.0778152 0)
(3.34046 0.0788774 0)
(3.1834 0.0799113 0)
(3.02425 0.0809144 0)
(2.86309 0.0818841 0)
(2.69997 0.082818 0)
(2.535 0.0837137 0)
(2.36825 0.0845688 0)
(2.19981 0.085381 0)
(2.0298 0.0861483 0)
(1.85831 0.0868686 0)
(1.68546 0.0875397 0)
(1.51136 0.0881597 0)
(1.33613 0.088726 0)
(1.1599 0.0892357 0)
(0.982797 0.0896836 0)
(0.804982 0.0900587 0)
(0.626616 0.0903377 0)
(0.448004 0.0904304 0)
(0.268091 0.0906219 0)
(0.09313 0.0921844 0)
(10.0055 0.00716419 0)
(10.0156 0.0164786 0)
(10.0257 0.0234145 0)
(10.0613 0.0352884 0)
(10.0932 0.05268 0)
(10.0717 0.06838 0)
(10.0196 0.0767304 0)
(9.97616 0.0784624 0)
(9.9313 0.0772835 0)
(9.87311 0.0759007 0)
(9.81552 0.0752618 0)
(9.76581 0.0752759 0)
(9.71687 0.0755586 0)
(9.66532 0.0758897 0)
(9.61353 0.0762575 0)
(9.56237 0.0766943 0)
(9.51099 0.0772009 0)
(9.45913 0.0777692 0)
(9.40698 0.078397 0)
(9.35452 0.0790837 0)
(9.30166 0.0798276 0)
(9.24835 0.0806281 0)
(9.19457 0.081485 0)
(9.14027 0.0823983 0)
(9.08541 0.0833681 0)
(9.02996 0.084395 0)
(8.97387 0.0854792 0)
(8.9171 0.0866215 0)
(8.85962 0.0878223 0)
(8.80138 0.0890826 0)
(8.74233 0.090403 0)
(8.68244 0.0917844 0)
(8.62166 0.0932276 0)
(8.55995 0.0947335 0)
(8.49727 0.0963032 0)
(8.43356 0.0979375 0)
(8.36878 0.0996373 0)
(8.30289 0.101404 0)
(8.23584 0.103238 0)
(8.16757 0.10514 0)
(8.09804 0.107112 0)
(8.02719 0.109153 0)
(7.95498 0.111267 0)
(7.88135 0.113452 0)
(7.80624 0.115709 0)
(7.72961 0.11804 0)
(7.6514 0.120446 0)
(7.57154 0.122925 0)
(7.48999 0.12548 0)
(7.40669 0.12811 0)
(7.32157 0.130815 0)
(7.23457 0.133596 0)
(7.14564 0.136451 0)
(7.05472 0.139382 0)
(6.96175 0.142387 0)
(6.86665 0.145466 0)
(6.76938 0.148617 0)
(6.66987 0.15184 0)
(6.56805 0.155132 0)
(6.46388 0.158491 0)
(6.35728 0.161917 0)
(6.24821 0.165405 0)
(6.13659 0.168953 0)
(6.02238 0.172557 0)
(5.90552 0.176213 0)
(5.78595 0.179918 0)
(5.66363 0.183666 0)
(5.53851 0.187452 0)
(5.41054 0.19127 0)
(5.27969 0.195114 0)
(5.14591 0.198978 0)
(5.00918 0.202854 0)
(4.86947 0.206734 0)
(4.72676 0.21061 0)
(4.58103 0.214474 0)
(4.43228 0.218316 0)
(4.2805 0.222127 0)
(4.12571 0.225897 0)
(3.96791 0.229614 0)
(3.80715 0.23327 0)
(3.64344 0.236852 0)
(3.47684 0.240349 0)
(3.30739 0.243751 0)
(3.13517 0.247046 0)
(2.96025 0.250222 0)
(2.78272 0.253269 0)
(2.60268 0.256174 0)
(2.42024 0.258928 0)
(2.23552 0.261518 0)
(2.04865 0.263936 0)
(1.85978 0.266171 0)
(1.66906 0.268214 0)
(1.47666 0.270053 0)
(1.28275 0.27168 0)
(1.08752 0.273081 0)
(0.891156 0.274237 0)
(0.693807 0.275115 0)
(0.496103 0.27561 0)
(0.295269 0.276087 0)
(0.100972 0.276455 0)
(10.0013 0.00439724 0)
(9.99681 0.00989264 0)
(9.98764 0.0141402 0)
(9.99938 0.0281596 0)
(10.0068 0.057821 0)
(9.96871 0.0936748 0)
(9.91187 0.120658 0)
(9.87102 0.132192 0)
(9.82972 0.132563 0)
(9.77377 0.129479 0)
(9.71746 0.127395 0)
(9.66841 0.12687 0)
(9.61976 0.12709 0)
(9.56836 0.127532 0)
(9.51667 0.128078 0)
(9.46553 0.128728 0)
(9.4141 0.129488 0)
(9.36211 0.130356 0)
(9.30978 0.131331 0)
(9.25708 0.132407 0)
(9.20393 0.13358 0)
(9.15028 0.134851 0)
(9.0961 0.136218 0)
(9.04137 0.137682 0)
(8.98603 0.139242 0)
(8.93006 0.1409 0)
(8.8734 0.142655 0)
(8.81603 0.144509 0)
(8.75791 0.146463 0)
(8.69898 0.148518 0)
(8.63922 0.150675 0)
(8.57858 0.152937 0)
(8.51702 0.155304 0)
(8.4545 0.157779 0)
(8.39098 0.160363 0)
(8.32641 0.163057 0)
(8.26074 0.165864 0)
(8.19393 0.168785 0)
(8.12595 0.171822 0)
(8.05673 0.174978 0)
(7.98623 0.178253 0)
(7.91441 0.181649 0)
(7.84121 0.18517 0)
(7.76659 0.188815 0)
(7.69049 0.192587 0)
(7.61287 0.196487 0)
(7.53367 0.200517 0)
(7.45284 0.204678 0)
(7.37033 0.208971 0)
(7.28608 0.213398 0)
(7.20005 0.217958 0)
(7.11217 0.222653 0)
(7.02239 0.227483 0)
(6.93066 0.232448 0)
(6.83693 0.237547 0)
(6.74113 0.24278 0)
(6.64321 0.248146 0)
(6.54313 0.253643 0)
(6.44081 0.259269 0)
(6.33623 0.265022 0)
(6.22931 0.270898 0)
(6.12001 0.276893 0)
(6.00829 0.283004 0)
(5.89408 0.289226 0)
(5.77735 0.295551 0)
(5.65805 0.301975 0)
(5.53615 0.308488 0)
(5.41159 0.315084 0)
(5.28435 0.321752 0)
(5.1544 0.328483 0)
(5.0217 0.335264 0)
(4.88624 0.342084 0)
(4.74799 0.34893 0)
(4.60694 0.355788 0)
(4.46308 0.362641 0)
(4.31642 0.369474 0)
(4.16696 0.376269 0)
(4.0147 0.383009 0)
(3.85968 0.389674 0)
(3.70191 0.396243 0)
(3.54143 0.402697 0)
(3.3783 0.409014 0)
(3.21255 0.415173 0)
(3.04426 0.42115 0)
(2.8735 0.426923 0)
(2.70036 0.43247 0)
(2.52491 0.437768 0)
(2.34728 0.442795 0)
(2.16757 0.447529 0)
(1.9859 0.451947 0)
(1.80241 0.456031 0)
(1.61724 0.45976 0)
(1.43054 0.463114 0)
(1.24247 0.466076 0)
(1.05318 0.468627 0)
(0.862862 0.470749 0)
(0.671625 0.47243 0)
(0.480191 0.473641 0)
(0.285569 0.474552 0)
(0.0974194 0.472141 0)
(10.0013 0.004673 0)
(9.99632 0.0112914 0)
(9.98623 0.0186905 0)
(9.99662 0.0402007 0)
(10.002 0.0819961 0)
(9.96141 0.130854 0)
(9.90303 0.166859 0)
(9.86217 0.182137 0)
(9.82184 0.183074 0)
(9.76695 0.17971 0)
(9.71131 0.17749 0)
(9.66258 0.177059 0)
(9.61409 0.177483 0)
(9.56285 0.178166 0)
(9.51129 0.178974 0)
(9.46026 0.179916 0)
(9.40892 0.181006 0)
(9.35701 0.182245 0)
(9.30474 0.183628 0)
(9.2521 0.18515 0)
(9.19899 0.186806 0)
(9.14538 0.188597 0)
(9.09123 0.190522 0)
(9.03652 0.19258 0)
(8.9812 0.194772 0)
(8.92523 0.1971 0)
(8.86858 0.199563 0)
(8.8112 0.202164 0)
(8.75306 0.204904 0)
(8.69412 0.207785 0)
(8.63433 0.210809 0)
(8.57366 0.213978 0)
(8.51207 0.217294 0)
(8.4495 0.220759 0)
(8.38592 0.224376 0)
(8.32128 0.228147 0)
(8.25555 0.232075 0)
(8.18867 0.236162 0)
(8.1206 0.240411 0)
(8.05128 0.244824 0)
(7.98069 0.249405 0)
(7.90876 0.254154 0)
(7.83544 0.259076 0)
(7.76069 0.264171 0)
(7.68446 0.269444 0)
(7.6067 0.274895 0)
(7.52734 0.280527 0)
(7.44635 0.286342 0)
(7.36367 0.292341 0)
(7.27924 0.298526 0)
(7.19302 0.304898 0)
(7.10494 0.311458 0)
(7.01495 0.318206 0)
(6.92301 0.325142 0)
(6.82904 0.332267 0)
(6.73301 0.339578 0)
(6.63485 0.347076 0)
(6.53452 0.354757 0)
(6.43195 0.36262 0)
(6.3271 0.37066 0)
(6.21992 0.378874 0)
(6.11035 0.387256 0)
(5.99835 0.395802 0)
(5.88388 0.404503 0)
(5.76687 0.413352 0)
(5.64731 0.422341 0)
(5.52513 0.431458 0)
(5.40032 0.440693 0)
(5.27283 0.450033 0)
(5.14264 0.459464 0)
(5.00972 0.46897 0)
(4.87405 0.478536 0)
(4.73561 0.488142 0)
(4.5944 0.49777 0)
(4.45041 0.507398 0)
(4.30364 0.517004 0)
(4.15411 0.526564 0)
(4.00182 0.536052 0)
(3.8468 0.545442 0)
(3.68909 0.554707 0)
(3.52871 0.563817 0)
(3.36573 0.572743 0)
(3.20019 0.581454 0)
(3.03216 0.589918 0)
(2.86172 0.598103 0)
(2.68895 0.605978 0)
(2.51395 0.613509 0)
(2.33681 0.620666 0)
(2.15766 0.627417 0)
(1.97661 0.63373 0)
(1.7938 0.639577 0)
(1.60937 0.644929 0)
(1.42345 0.649758 0)
(1.23621 0.654041 0)
(1.0478 0.657753 0)
(0.858396 0.660877 0)
(0.668114 0.663402 0)
(0.47773 0.66532 0)
(0.28429 0.666718 0)
(0.0970802 0.66291 0)
(10.0012 0.00503332 0)
(9.99574 0.01166 0)
(9.98501 0.0197646 0)
(9.99505 0.0467128 0)
(10.0005 0.100384 0)
(9.9605 0.16377 0)
(9.90273 0.211167 0)
(9.86222 0.232064 0)
(9.82206 0.234241 0)
(9.76742 0.230454 0)
(9.7121 0.227836 0)
(9.66366 0.227397 0)
(9.61542 0.228021 0)
(9.5644 0.228952 0)
(9.51305 0.230023 0)
(9.4622 0.231255 0)
(9.41103 0.232671 0)
(9.35929 0.234274 0)
(9.30719 0.236058 0)
(9.2547 0.238017 0)
(9.20176 0.240149 0)
(9.1483 0.242453 0)
(9.09432 0.244927 0)
(9.03977 0.247573 0)
(8.98461 0.250391 0)
(8.92881 0.253382 0)
(8.87232 0.256548 0)
(8.81512 0.25989 0)
(8.75715 0.263412 0)
(8.69838 0.267114 0)
(8.63877 0.271001 0)
(8.57828 0.275074 0)
(8.51687 0.279336 0)
(8.45449 0.28379 0)
(8.3911 0.28844 0)
(8.32666 0.293288 0)
(8.26112 0.298338 0)
(8.19445 0.303593 0)
(8.12658 0.309056 0)
(8.05747 0.314731 0)
(7.98709 0.32062 0)
(7.91537 0.326728 0)
(7.84227 0.333058 0)
(7.76775 0.339612 0)
(7.69174 0.346393 0)
(7.6142 0.353405 0)
(7.53507 0.36065 0)
(7.45431 0.36813 0)
(7.37186 0.375849 0)
(7.28767 0.383806 0)
(7.20168 0.392005 0)
(7.11383 0.400446 0)
(7.02408 0.40913 0)
(6.93237 0.418057 0)
(6.83863 0.427226 0)
(6.74283 0.436637 0)
(6.6449 0.446288 0)
(6.54478 0.456176 0)
(6.44243 0.466298 0)
(6.33779 0.47665 0)
(6.23081 0.487226 0)
(6.12144 0.49802 0)
(6.00962 0.509024 0)
(5.89532 0.520229 0)
(5.77847 0.531626 0)
(5.65905 0.543203 0)
(5.53701 0.554947 0)
(5.41231 0.566843 0)
(5.28491 0.578875 0)
(5.15479 0.591025 0)
(5.02192 0.603273 0)
(4.88628 0.615598 0)
(4.74784 0.627976 0)
(4.60661 0.640382 0)
(4.46256 0.65279 0)
(4.31571 0.665169 0)
(4.16606 0.677489 0)
(4.01362 0.689719 0)
(3.85842 0.701822 0)
(3.70049 0.713764 0)
(3.53986 0.725508 0)
(3.37658 0.737014 0)
(3.21072 0.748243 0)
(3.04233 0.759155 0)
(2.87149 0.769708 0)
(2.69829 0.779861 0)
(2.52282 0.789572 0)
(2.34518 0.798801 0)
(2.1655 0.807506 0)
(1.98388 0.815649 0)
(1.80048 0.823191 0)
(1.61541 0.830095 0)
(1.42885 0.836328 0)
(1.24093 0.841858 0)
(1.05183 0.846657 0)
(0.861725 0.850703 0)
(0.67073 0.85398 0)
(0.479662 0.856468 0)
(0.285548 0.858219 0)
(0.0975511 0.85313 0)
(10.0012 0.00554337 0)
(9.99551 0.0126217 0)
(9.98449 0.021909 0)
(9.99424 0.0545909 0)
(9.99956 0.120181 0)
(9.95964 0.197825 0)
(9.90215 0.256047 0)
(9.86183 0.281931 0)
(9.82185 0.284957 0)
(9.76754 0.280663 0)
(9.71261 0.277716 0)
(9.66447 0.277347 0)
(9.61647 0.278219 0)
(9.56569 0.279429 0)
(9.51458 0.280785 0)
(9.46395 0.282323 0)
(9.41298 0.284076 0)
(9.36144 0.28605 0)
(9.30953 0.288241 0)
(9.25724 0.290643 0)
(9.20449 0.293253 0)
(9.15122 0.296071 0)
(9.09743 0.299096 0)
(9.04308 0.302329 0)
(8.98811 0.305772 0)
(8.93251 0.309426 0)
(8.87622 0.313293 0)
(8.81921 0.317376 0)
(8.76145 0.321677 0)
(8.70289 0.326199 0)
(8.64349 0.330945 0)
(8.58321 0.335919 0)
(8.52202 0.341124 0)
(8.45986 0.346564 0)
(8.39669 0.352242 0)
(8.33248 0.358163 0)
(8.26718 0.364331 0)
(8.20073 0.370749 0)
(8.13311 0.377422 0)
(8.06425 0.384354 0)
(7.99411 0.391549 0)
(7.92265 0.399011 0)
(7.84981 0.406744 0)
(7.77554 0.414752 0)
(7.6998 0.423038 0)
(7.62253 0.431606 0)
(7.54367 0.440461 0)
(7.46319 0.449603 0)
(7.38101 0.459037 0)
(7.2971 0.468765 0)
(7.21139 0.478789 0)
(7.12383 0.48911 0)
(7.03436 0.499729 0)
(6.94293 0.510646 0)
(6.84948 0.521862 0)
(6.75396 0.533375 0)
(6.65631 0.545183 0)
(6.55648 0.557282 0)
(6.4544 0.56967 0)
(6.35003 0.582341 0)
(6.24332 0.595289 0)
(6.1342 0.608505 0)
(6.02263 0.621982 0)
(5.90856 0.635708 0)
(5.79194 0.649671 0)
(5.67273 0.663857 0)
(5.55089 0.678251 0)
(5.42636 0.692834 0)
(5.29913 0.707587 0)
(5.16914 0.722487 0)
(5.03638 0.737512 0)
(4.90083 0.752634 0)
(4.76245 0.767824 0)
(4.62124 0.783053 0)
(4.47719 0.798286 0)
(4.3303 0.813488 0)
(4.18057 0.828622 0)
(4.02801 0.843646 0)
(3.87265 0.85852 0)
(3.71451 0.873197 0)
(3.55363 0.887634 0)
(3.39006 0.901782 0)
(3.22385 0.915591 0)
(3.05506 0.929012 0)
(2.88378 0.941995 0)
(2.71008 0.954486 0)
(2.53406 0.966437 0)
(2.35583 0.977794 0)
(2.1755 0.988508 0)
(1.99319 0.99853 0)
(1.80905 1.00781 0)
(1.6232 1.01631 0)
(1.43582 1.02399 0)
(1.24705 1.03079 0)
(1.05707 1.0367 0)
(0.866052 1.04168 0)
(0.674124 1.04571 0)
(0.482131 1.04876 0)
(0.287046 1.05086 0)
(0.0980556 1.04453 0)
(10.0012 0.00616316 0)
(9.9954 0.0138281 0)
(9.9842 0.0242385 0)
(9.99371 0.0624559 0)
(9.99885 0.139758 0)
(9.95902 0.231515 0)
(9.9018 0.300498 0)
(9.86168 0.3314 0)
(9.82187 0.335349 0)
(9.76786 0.330599 0)
(9.71328 0.327337 0)
(9.66543 0.32704 0)
(9.61769 0.32817 0)
(9.56717 0.329672 0)
(9.51632 0.331325 0)
(9.46593 0.333178 0)
(9.4152 0.335274 0)
(9.3639 0.337625 0)
(9.31221 0.340225 0)
(9.26015 0.343071 0)
(9.20762 0.346159 0)
(9.15459 0.349491 0)
(9.10102 0.353066 0)
(9.04689 0.356886 0)
(8.99216 0.360952 0)
(8.93678 0.365266 0)
(8.88073 0.369832 0)
(8.82396 0.374651 0)
(8.76644 0.379728 0)
(8.70812 0.385066 0)
(8.64897 0.390668 0)
(8.58894 0.396539 0)
(8.528 0.402683 0)
(8.4661 0.409104 0)
(8.4032 0.415807 0)
(8.33926 0.422797 0)
(8.27423 0.430078 0)
(8.20806 0.437656 0)
(8.14071 0.445534 0)
(8.07214 0.453719 0)
(8.0023 0.462214 0)
(7.93113 0.471026 0)
(7.85858 0.480158 0)
(7.78462 0.489615 0)
(7.70919 0.499402 0)
(7.63223 0.509524 0)
(7.55369 0.519983 0)
(7.47352 0.530785 0)
(7.39167 0.541932 0)
(7.30808 0.553427 0)
(7.22269 0.565273 0)
(7.13546 0.577472 0)
(7.04632 0.590025 0)
(6.95521 0.602933 0)
(6.86209 0.616195 0)
(6.7669 0.62981 0)
(6.66957 0.643776 0)
(6.57005 0.65809 0)
(6.46829 0.672747 0)
(6.36423 0.687742 0)
(6.25781 0.703067 0)
(6.14898 0.718714 0)
(6.0377 0.734672 0)
(5.92389 0.750929 0)
(5.80753 0.76747 0)
(5.68856 0.784279 0)
(5.56693 0.801338 0)
(5.4426 0.818626 0)
(5.31554 0.83612 0)
(5.1857 0.853793 0)
(5.05307 0.871619 0)
(4.9176 0.889564 0)
(4.77928 0.907597 0)
(4.6381 0.92568 0)
(4.49403 0.943774 0)
(4.34708 0.961836 0)
(4.19725 0.979822 0)
(4.04455 0.997685 0)
(3.889 1.01537 0)
(3.73062 1.03283 0)
(3.56944 1.05001 0)
(3.40552 1.06685 0)
(3.23891 1.08329 0)
(3.06967 1.09928 0)
(2.89787 1.11475 0)
(2.7236 1.12963 0)
(2.54695 1.14388 0)
(2.36803 1.15742 0)
(2.18696 1.1702 0)
(2.00386 1.18215 0)
(1.81887 1.19323 0)
(1.63213 1.20337 0)
(1.44381 1.21253 0)
(1.25406 1.22066 0)
(1.06307 1.22771 0)
(0.871008 1.23366 0)
(0.678006 1.23846 0)
(0.484941 1.24209 0)
(0.288728 1.24457 0)
(0.0986128 1.23704 0)
(10.0012 0.00683278 0)
(9.99533 0.0151565 0)
(9.98404 0.0267098 0)
(9.99338 0.0704245 0)
(9.99837 0.159363 0)
(9.95863 0.265151 0)
(9.9017 0.344818 0)
(9.86178 0.380667 0)
(9.82213 0.385484 0)
(9.76841 0.380246 0)
(9.71419 0.376658 0)
(9.66665 0.37644 0)
(9.61917 0.377838 0)
(9.56893 0.379644 0)
(9.51837 0.381602 0)
(9.46826 0.383776 0)
(9.41779 0.38622 0)
(9.36675 0.38895 0)
(9.31533 0.391963 0)
(9.26353 0.395254 0)
(9.21126 0.398821 0)
(9.15849 0.402666 0)
(9.10518 0.40679 0)
(9.05132 0.411194 0)
(8.99685 0.415881 0)
(8.94174 0.420853 0)
(8.88596 0.426114 0)
(8.82947 0.431668 0)
(8.77223 0.437517 0)
(8.71419 0.443667 0)
(8.65533 0.450121 0)
(8.5956 0.456885 0)
(8.53495 0.463964 0)
(8.47336 0.471362 0)
(8.41076 0.479085 0)
(8.34713 0.487139 0)
(8.28242 0.495529 0)
(8.21657 0.504261 0)
(8.14956 0.51334 0)
(8.08132 0.522772 0)
(8.01181 0.532564 0)
(7.94098 0.54272 0)
(7.86879 0.553247 0)
(7.79518 0.564149 0)
(7.72011 0.575433 0)
(7.64351 0.587103 0)
(7.56534 0.599165 0)
(7.48554 0.611622 0)
(7.40407 0.624479 0)
(7.32085 0.63774 0)
(7.23585 0.651407 0)
(7.149 0.665483 0)
(7.06024 0.679969 0)
(6.96952 0.694868 0)
(6.87678 0.710177 0)
(6.78196 0.725898 0)
(6.68501 0.742026 0)
(6.58587 0.758559 0)
(6.48448 0.775492 0)
(6.38078 0.792819 0)
(6.27471 0.810531 0)
(6.16623 0.828619 0)
(6.05527 0.847071 0)
(5.94178 0.865872 0)
(5.82571 0.885008 0)
(5.70702 0.904459 0)
(5.58565 0.924205 0)
(5.46155 0.944221 0)
(5.3347 0.964482 0)
(5.20504 0.984957 0)
(5.07255 1.00561 0)
(4.93719 1.02642 0)
(4.79895 1.04733 0)
(4.65779 1.06831 0)
(4.51371 1.0893 0)
(4.3667 1.11027 0)
(4.21676 1.13116 0)
(4.06389 1.1519 0)
(3.90812 1.17246 0)
(3.74945 1.19276 0)
(3.58794 1.21273 0)
(3.42362 1.23232 0)
(3.25653 1.25146 0)
(3.08676 1.27007 0)
(2.91435 1.28808 0)
(2.73942 1.30542 0)
(2.56203 1.32202 0)
(2.38231 1.3378 0)
(2.20038 1.3527 0)
(2.01635 1.36664 0)
(1.83037 1.37956 0)
(1.64259 1.3914 0)
(1.45317 1.40209 0)
(1.26228 1.41157 0)
(1.0701 1.41981 0)
(0.876813 1.42675 0)
(0.68255 1.43235 0)
(0.488222 1.43658 0)
(0.290687 1.43946 0)
(0.0992631 1.43075 0)
(10.0012 0.00753 0)
(9.99529 0.016563 0)
(9.98395 0.0292826 0)
(9.99318 0.0784651 0)
(9.99804 0.17896 0)
(9.95843 0.29868 0)
(9.90181 0.388942 0)
(9.86211 0.429677 0)
(9.82263 0.43533 0)
(9.76921 0.429594 0)
(9.71535 0.425679 0)
(9.66811 0.425541 0)
(9.62092 0.42721 0)
(9.57099 0.429322 0)
(9.52073 0.43159 0)
(9.47092 0.434089 0)
(9.42075 0.436885 0)
(9.37001 0.439997 0)
(9.31888 0.443423 0)
(9.26737 0.447159 0)
(9.2154 0.451205 0)
(9.16292 0.455562 0)
(9.10992 0.460233 0)
(9.05635 0.465219 0)
(9.00219 0.470524 0)
(8.94739 0.476151 0)
(8.89192 0.482104 0)
(8.83574 0.488387 0)
(8.77881 0.495004 0)
(8.7211 0.501961 0)
(8.66257 0.509263 0)
(8.60317 0.516915 0)
(8.54286 0.524923 0)
(8.48161 0.533293 0)
(8.41937 0.542031 0)
(8.35609 0.551143 0)
(8.29174 0.560636 0)
(8.22627 0.570516 0)
(8.15963 0.58079 0)
(8.09177 0.591465 0)
(8.02265 0.602546 0)
(7.95222 0.614042 0)
(7.88043 0.625958 0)
(7.80722 0.6383 0)
(7.73256 0.651076 0)
(7.65638 0.66429 0)
(7.57863 0.677949 0)
(7.49926 0.692058 0)
(7.41821 0.706622 0)
(7.33543 0.721645 0)
(7.25087 0.73713 0)
(7.16445 0.753082 0)
(7.07614 0.769502 0)
(6.98586 0.786391 0)
(6.89356 0.803749 0)
(6.79918 0.821577 0)
(6.70267 0.839871 0)
(6.60396 0.858629 0)
(6.50299 0.877844 0)
(6.39971 0.897511 0)
(6.29405 0.91762 0)
(6.18596 0.938161 0)
(6.07538 0.959121 0)
(5.96226 0.980485 0)
(5.84655 1.00223 0)
(5.72818 1.02435 0)
(5.60711 1.04681 0)
(5.48329 1.06958 0)
(5.35668 1.09264 0)
(5.22724 1.11595 0)
(5.09492 1.13947 0)
(4.9597 1.16317 0)
(4.82154 1.187 0)
(4.68043 1.21092 0)
(4.53635 1.23487 0)
(4.38927 1.25879 0)
(4.23921 1.28264 0)
(4.08616 1.30633 0)
(3.93014 1.32981 0)
(3.77117 1.35301 0)
(3.60927 1.37585 0)
(3.44449 1.39826 0)
(3.27688 1.42016 0)
(3.10649 1.44146 0)
(2.9334 1.46209 0)
(2.7577 1.48196 0)
(2.57947 1.50098 0)
(2.39883 1.51908 0)
(2.2159 1.53617 0)
(2.0308 1.55217 0)
(1.84369 1.56699 0)
(1.6547 1.58058 0)
(1.46401 1.59285 0)
(1.2718 1.60375 0)
(1.07824 1.6132 0)
(0.883539 1.62117 0)
(0.687815 1.62761 0)
(0.492019 1.63247 0)
(0.292952 1.63576 0)
(0.100017 1.62587 0)
(10.0012 0.00824329 0)
(9.99527 0.0180172 0)
(9.98391 0.0319185 0)
(9.99305 0.0865413 0)
(9.99783 0.198517 0)
(9.95837 0.33207 0)
(9.90208 0.432845 0)
(9.86262 0.478417 0)
(9.82333 0.484882 0)
(9.77022 0.478636 0)
(9.71674 0.474388 0)
(9.66983 0.474325 0)
(9.62294 0.476265 0)
(9.57334 0.478685 0)
(9.52341 0.481265 0)
(9.47393 0.48409 0)
(9.42408 0.487239 0)
(9.37366 0.490734 0)
(9.32286 0.494572 0)
(9.27168 0.498753 0)
(9.22004 0.503276 0)
(9.16789 0.508144 0)
(9.11522 0.513359 0)
(9.06199 0.518925 0)
(9.00816 0.524844 0)
(8.9537 0.531122 0)
(8.89858 0.537762 0)
(8.84276 0.54477 0)
(8.78619 0.552151 0)
(8.72884 0.55991 0)
(8.67067 0.568054 0)
(8.61165 0.576588 0)
(8.55173 0.585519 0)
(8.49086 0.594855 0)
(8.42902 0.604601 0)
(8.36614 0.614765 0)
(8.3022 0.625354 0)
(8.23714 0.636376 0)
(8.17092 0.647838 0)
(8.10349 0.659748 0)
(8.03481 0.672114 0)
(7.96482 0.684942 0)
(7.89348 0.698241 0)
(7.82073 0.712017 0)
(7.74653 0.726278 0)
(7.67082 0.741031 0)
(7.59355 0.756282 0)
(7.51466 0.772038 0)
(7.4341 0.788304 0)
(7.35181 0.805086 0)
(7.26774 0.822387 0)
(7.18182 0.840212 0)
(7.09401 0.858564 0)
(7.00423 0.877443 0)
(6.91243 0.896852 0)
(6.81855 0.916789 0)
(6.72253 0.937253 0)
(6.62431 0.95824 0)
(6.52383 0.979745 0)
(6.42102 1.00176 0)
(6.31583 1.02428 0)
(6.2082 1.04729 0)
(6.09806 1.07077 0)
(5.98536 1.09471 0)
(5.87004 1.1191 0)
(5.75205 1.1439 0)
(5.63133 1.16909 0)
(5.50784 1.19465 0)
(5.38152 1.22054 0)
(5.25232 1.24672 0)
(5.12021 1.27316 0)
(4.98516 1.2998 0)
(4.84712 1.3266 0)
(4.70607 1.35351 0)
(4.56198 1.38047 0)
(4.41485 1.40741 0)
(4.26467 1.43427 0)
(4.11143 1.46098 0)
(3.95514 1.48746 0)
(3.79582 1.51364 0)
(3.6335 1.53942 0)
(3.46821 1.56473 0)
(3.30001 1.58947 0)
(3.12894 1.61355 0)
(2.95508 1.63688 0)
(2.77852 1.65935 0)
(2.59934 1.68089 0)
(2.41766 1.70138 0)
(2.2336 1.72074 0)
(2.04729 1.73887 0)
(1.85888 1.75568 0)
(1.66853 1.77108 0)
(1.47639 1.785 0)
(1.28267 1.79736 0)
(1.08754 1.80809 0)
(0.891223 1.81714 0)
(0.69383 1.82444 0)
(0.496354 1.82995 0)
(0.295538 1.83369 0)
(0.100879 1.82261 0)
(10.0012 0.00896536 0)
(9.99526 0.0194993 0)
(9.9839 0.0345913 0)
(9.99298 0.0946261 0)
(9.9977 0.218005 0)
(9.95842 0.365295 0)
(9.90249 0.476502 0)
(9.86329 0.526864 0)
(9.82422 0.53412 0)
(9.77145 0.527355 0)
(9.71835 0.522768 0)
(9.67179 0.522775 0)
(9.62523 0.524982 0)
(9.57597 0.527709 0)
(9.52641 0.5306 0)
(9.47728 0.533751 0)
(9.42779 0.537253 0)
(9.37772 0.541129 0)
(9.32728 0.54538 0)
(9.27646 0.550004 0)
(9.22517 0.555002 0)
(9.17339 0.560378 0)
(9.12108 0.566134 0)
(9.06822 0.572275 0)
(9.01477 0.578805 0)
(8.96069 0.585729 0)
(8.90595 0.593052 0)
(8.85052 0.60078 0)
(8.79435 0.608918 0)
(8.7374 0.617473 0)
(8.67965 0.626452 0)
(8.62104 0.635862 0)
(8.56154 0.64571 0)
(8.5011 0.656004 0)
(8.43969 0.666751 0)
(8.37726 0.677959 0)
(8.31377 0.689638 0)
(8.24918 0.701794 0)
(8.18343 0.714437 0)
(8.11648 0.727575 0)
(8.04828 0.741216 0)
(7.97878 0.75537 0)
(7.90794 0.770044 0)
(7.83571 0.785247 0)
(7.76202 0.800987 0)
(7.68684 0.817272 0)
(7.61009 0.834109 0)
(7.53174 0.851506 0)
(7.45173 0.86947 0)
(7.36999 0.888005 0)
(7.28647 0.907119 0)
(7.20111 0.926815 0)
(7.11385 0.947096 0)
(7.02463 0.967966 0)
(6.93339 0.989425 0)
(6.84008 1.01147 0)
(6.74461 1.03411 0)
(6.64694 1.05733 0)
(6.54701 1.08114 0)
(6.44474 1.10551 0)
(6.34007 1.13045 0)
(6.23295 1.15594 0)
(6.12331 1.18196 0)
(6.01109 1.2085 0)
(5.89623 1.23555 0)
(5.77867 1.26306 0)
(5.65835 1.29102 0)
(5.53523 1.3194 0)
(5.40924 1.34816 0)
(5.28033 1.37725 0)
(5.14847 1.40664 0)
(5.01361 1.43627 0)
(4.87572 1.4661 0)
(4.73475 1.49606 0)
(4.59068 1.52609 0)
(4.44351 1.55611 0)
(4.2932 1.58607 0)
(4.13976 1.61587 0)
(3.98319 1.64543 0)
(3.8235 1.67466 0)
(3.66072 1.70347 0)
(3.49487 1.73177 0)
(3.32601 1.75944 0)
(3.15419 1.7864 0)
(2.97948 1.81252 0)
(2.80196 1.83771 0)
(2.62173 1.86185 0)
(2.43889 1.88483 0)
(2.25357 1.90655 0)
(2.0659 1.9269 0)
(1.87603 1.94577 0)
(1.68413 1.96308 0)
(1.49038 1.97872 0)
(1.29495 1.99261 0)
(1.09805 2.00468 0)
(0.899907 2.01484 0)
(0.700629 2.02306 0)
(0.501252 2.02925 0)
(0.298462 2.03345 0)
(0.101856 2.02118 0)
(10.0012 0.00969136 0)
(9.99526 0.0209964 0)
(9.98391 0.0372829 0)
(9.99294 0.102698 0)
(9.99763 0.237401 0)
(9.95856 0.398325 0)
(9.90302 0.519884 0)
(9.86412 0.574991 0)
(9.82529 0.583022 0)
(9.77288 0.575729 0)
(9.72019 0.570796 0)
(9.674 0.570869 0)
(9.62779 0.573339 0)
(9.5789 0.57637 0)
(9.52972 0.579569 0)
(9.48098 0.583046 0)
(9.43186 0.586898 0)
(9.38218 0.591155 0)
(9.33212 0.595816 0)
(9.28169 0.60088 0)
(9.2308 0.60635 0)
(9.17941 0.61223 0)
(9.1275 0.618523 0)
(9.07505 0.625235 0)
(9.02201 0.632371 0)
(8.96835 0.639936 0)
(8.91403 0.647935 0)
(8.85902 0.656376 0)
(8.80328 0.665266 0)
(8.74678 0.674611 0)
(8.68947 0.684418 0)
(8.63132 0.694696 0)
(8.57228 0.705453 0)
(8.51232 0.716697 0)
(8.45139 0.728437 0)
(8.38946 0.740682 0)
(8.32646 0.753441 0)
(8.26237 0.766723 0)
(8.19714 0.780538 0)
(8.13071 0.794895 0)
(8.06305 0.809804 0)
(7.9941 0.825275 0)
(7.92381 0.841316 0)
(7.85214 0.857938 0)
(7.77902 0.875149 0)
(7.70441 0.892958 0)
(7.62826 0.911374 0)
(7.5505 0.930406 0)
(7.47108 0.950061 0)
(7.38995 0.970346 0)
(7.30704 0.991267 0)
(7.2223 1.01283 0)
(7.13566 1.03504 0)
(7.04706 1.0579 0)
(6.95645 1.08141 0)
(6.86375 1.10557 0)
(6.76891 1.13038 0)
(6.67186 1.15585 0)
(6.57253 1.18195 0)
(6.47086 1.2087 0)
(6.36678 1.23607 0)
(6.26024 1.26405 0)
(6.15116 1.29263 0)
(6.03947 1.3218 0)
(5.92513 1.35152 0)
(5.80806 1.38178 0)
(5.6882 1.41254 0)
(5.56549 1.44377 0)
(5.43989 1.47544 0)
(5.31132 1.50749 0)
(5.17975 1.53988 0)
(5.04512 1.57256 0)
(4.9074 1.60547 0)
(4.76654 1.63855 0)
(4.62252 1.67172 0)
(4.4753 1.7049 0)
(4.32488 1.73803 0)
(4.17123 1.771 0)
(4.01436 1.80373 0)
(3.85428 1.83611 0)
(3.69101 1.86805 0)
(3.52456 1.89944 0)
(3.35499 1.93015 0)
(3.18235 1.96009 0)
(3.0067 1.98911 0)
(2.82813 2.01712 0)
(2.64673 2.04397 0)
(2.4626 2.06955 0)
(2.27588 2.09374 0)
(2.08671 2.11641 0)
(1.89522 2.13745 0)
(1.70161 2.15674 0)
(1.50604 2.17419 0)
(1.30871 2.18969 0)
(1.10983 2.20316 0)
(0.909641 2.21451 0)
(0.708251 2.22368 0)
(0.506743 2.23059 0)
(0.30174 2.23528 0)
(0.102954 2.22183 0)
(10.0012 0.0104179 0)
(9.99527 0.0224991 0)
(9.98393 0.0399796 0)
(9.99294 0.110738 0)
(9.99761 0.256679 0)
(9.95878 0.431132 0)
(9.90365 0.562959 0)
(9.86508 0.622769 0)
(9.82653 0.63156 0)
(9.77449 0.623735 0)
(9.72225 0.618452 0)
(9.67644 0.618584 0)
(9.6306 0.621311 0)
(9.58212 0.624642 0)
(9.53335 0.628147 0)
(9.48501 0.631945 0)
(9.4363 0.636146 0)
(9.38703 0.64078 0)
(9.33739 0.645847 0)
(9.28738 0.651349 0)
(9.23691 0.657287 0)
(9.18595 0.663667 0)
(9.13448 0.670493 0)
(9.08246 0.67777 0)
(9.02987 0.685506 0)
(8.97666 0.693705 0)
(8.9228 0.702376 0)
(8.86826 0.711524 0)
(8.81299 0.721157 0)
(8.75697 0.731283 0)
(8.70015 0.741911 0)
(8.64249 0.753049 0)
(8.58396 0.764707 0)
(8.52452 0.776893 0)
(8.46411 0.789617 0)
(8.40271 0.802889 0)
(8.34026 0.816719 0)
(8.27672 0.831118 0)
(8.21205 0.846095 0)
(8.1462 0.861662 0)
(8.07912 0.877829 0)
(8.01076 0.894607 0)
(7.94108 0.912006 0)
(7.87001 0.930036 0)
(7.79752 0.948709 0)
(7.72355 0.968035 0)
(7.64803 0.988022 0)
(7.57093 1.00868 0)
(7.49217 1.03002 0)
(7.4117 1.05205 0)
(7.32946 1.07477 0)
(7.24539 1.0982 0)
(7.15944 1.12233 0)
(7.07153 1.14718 0)
(6.9816 1.17274 0)
(6.88959 1.19901 0)
(6.79543 1.22601 0)
(6.69906 1.25372 0)
(6.6004 1.28213 0)
(6.4994 1.31125 0)
(6.39598 1.34107 0)
(6.29007 1.37156 0)
(6.18162 1.40273 0)
(6.07054 1.43453 0)
(5.95677 1.46697 0)
(5.84025 1.49999 0)
(5.7209 1.53359 0)
(5.59868 1.56772 0)
(5.47351 1.60233 0)
(5.34533 1.63739 0)
(5.2141 1.67284 0)
(5.07975 1.70863 0)
(4.94223 1.74469 0)
(4.80152 1.78095 0)
(4.65756 1.81733 0)
(4.51032 1.85376 0)
(4.35979 1.89014 0)
(4.20594 1.92638 0)
(4.04877 1.96238 0)
(3.88828 1.99802 0)
(3.72448 2.0332 0)
(3.55739 2.06779 0)
(3.38706 2.10166 0)
(3.21353 2.13469 0)
(3.03686 2.16675 0)
(2.85714 2.19769 0)
(2.67446 2.22738 0)
(2.48893 2.25568 0)
(2.30067 2.28245 0)
(2.10983 2.30756 0)
(1.91656 2.33088 0)
(1.72105 2.35227 0)
(1.52347 2.37162 0)
(1.32403 2.38882 0)
(1.12295 2.40377 0)
(0.920484 2.41637 0)
(0.716744 2.42655 0)
(0.512861 2.43422 0)
(0.305393 2.43942 0)
(0.104179 2.42478 0)
(10.0012 0.0111425 0)
(9.99527 0.0240008 0)
(9.98397 0.0426708 0)
(9.99295 0.118731 0)
(9.99764 0.275818 0)
(9.95906 0.463688 0)
(9.90438 0.605697 0)
(9.86616 0.670169 0)
(9.82791 0.679707 0)
(9.77629 0.671347 0)
(9.7245 0.665709 0)
(9.67911 0.665895 0)
(9.63367 0.668874 0)
(9.58561 0.6725 0)
(9.53728 0.676306 0)
(9.48937 0.680423 0)
(9.4411 0.684968 0)
(9.39227 0.689975 0)
(9.34308 0.695446 0)
(9.29352 0.70138 0)
(9.24351 0.707781 0)
(9.19301 0.714656 0)
(9.14201 0.722009 0)
(9.09046 0.729846 0)
(9.03835 0.738176 0)
(8.98562 0.747003 0)
(8.93226 0.756336 0)
(8.87822 0.766183 0)
(8.82346 0.776553 0)
(8.76796 0.787452 0)
(8.71166 0.798892 0)
(8.65455 0.810881 0)
(8.59656 0.82343 0)
(8.53767 0.836548 0)
(8.47783 0.850246 0)
(8.41701 0.864535 0)
(8.35514 0.879426 0)
(8.29221 0.894931 0)
(8.22815 0.91106 0)
(8.16291 0.927826 0)
(8.09647 0.94524 0)
(8.02875 0.963314 0)
(7.95973 0.982061 0)
(7.88933 1.00149 0)
(7.81752 1.02162 0)
(7.74423 1.04245 0)
(7.66941 1.064 0)
(7.59301 1.08627 0)
(7.51497 1.10929 0)
(7.43522 1.13305 0)
(7.35372 1.15757 0)
(7.27039 1.18285 0)
(7.18518 1.20891 0)
(7.09802 1.23574 0)
(7.00884 1.26335 0)
(6.91758 1.29174 0)
(6.82417 1.32092 0)
(6.72855 1.35087 0)
(6.63064 1.38161 0)
(6.53037 1.41312 0)
(6.42767 1.44539 0)
(6.32248 1.47841 0)
(6.21471 1.51217 0)
(6.1043 1.54665 0)
(5.99118 1.58181 0)
(5.87527 1.61765 0)
(5.75651 1.65411 0)
(5.63483 1.69117 0)
(5.51015 1.72879 0)
(5.38242 1.76691 0)
(5.25157 1.80547 0)
(5.11755 1.84443 0)
(4.98029 1.88371 0)
(4.83975 1.92323 0)
(4.69589 1.96291 0)
(4.54866 2.00268 0)
(4.39804 2.04241 0)
(4.24399 2.08203 0)
(4.08652 2.1214 0)
(3.9256 2.16041 0)
(3.76125 2.19895 0)
(3.59348 2.23686 0)
(3.42234 2.27402 0)
(3.24785 2.31029 0)
(3.07009 2.34551 0)
(2.88913 2.37952 0)
(2.70506 2.41219 0)
(2.51799 2.44335 0)
(2.32806 2.47284 0)
(2.13539 2.50052 0)
(1.94016 2.52624 0)
(1.74255 2.54985 0)
(1.54276 2.57122 0)
(1.341 2.59022 0)
(1.13749 2.60673 0)
(0.932501 2.62065 0)
(0.726159 2.63191 0)
(0.519643 2.64039 0)
(0.309445 2.64614 0)
(0.10554 2.63031 0)
(10.0012 0.0118631 0)
(9.99529 0.025496 0)
(9.98401 0.0453481 0)
(9.99299 0.126666 0)
(9.9977 0.2948 0)