/*--------------------------------*- C++ -*----------------------------------*\
| =========                 |                                                 |
| \\      /  F ield         | OpenFOAM: The Open Source CFD Toolbox           |
|  \\    /   O peration     | Version:  4.1                                   |
|   \\  /    A nd           | Web:      www.OpenFOAM.org                      |
|    \\/     M anipulation  |                                                 |
\*---------------------------------------------------------------------------*/
FoamFile
{
    version     2.0;
    format      ascii;
    class       volScalarField;
    location    "0.06";
    object      k;
}
// * * * * * * * * * * * * * * * * * * * * * * * * * * * * * * * * * * * * * //

dimensions      [0 2 -2 0 0 0 0];

internalField   nonuniform List<scalar> 
43750
(
0.384097
0.392936
0.401497
0.409765
0.417731
0.425387
0.432726
0.43974
0.446418
0.452751
0.458729
0.464342
0.469579
0.474428
0.478874
0.482901
0.48649
0.489618
0.492261
0.494394
0.495992
0.49704
0.49753
0.497467
0.496869
0.495761
0.494172
0.492131
0.489667
0.486811
0.483599
0.480071
0.476272
0.472248
0.468044
0.463696
0.459236
0.454688
0.45007
0.445395
0.440672
0.435906
0.4311
0.426256
0.421375
0.416455
0.411496
0.406497
0.401456
0.396374
0.391248
0.386078
0.380864
0.375604
0.370299
0.364948
0.359551
0.354109
0.348621
0.343089
0.337514
0.331897
0.326238
0.320541
0.314807
0.309039
0.303239
0.297411
0.291557
0.285683
0.279791
0.273886
0.267973
0.262057
0.256144
0.250239
0.244348
0.238477
0.232633
0.226821
0.221049
0.215323
0.20965
0.204035
0.198486
0.193008
0.187607
0.182288
0.177057
0.171919
0.166877
0.161935
0.157097
0.152366
0.147744
0.143235
0.138842
0.13459
0.130531
0.127556
0.349404
0.327114
0.307701
0.290735
0.275868
0.262813
0.251334
0.241232
0.232344
0.224532
0.217683
0.211699
0.206498
0.20201
0.198175
0.194939
0.192252
0.190064
0.188323
0.186968
0.185935
0.185156
0.184564
0.184105
0.183746
0.183479
0.183305
0.183221
0.183199
0.183189
0.183135
0.182995
0.182757
0.18244
0.182082
0.181719
0.181378
0.181071
0.180802
0.180569
0.180368
0.180195
0.180048
0.179924
0.179822
0.179739
0.179673
0.179622
0.179585
0.179559
0.179542
0.179534
0.179531
0.179533
0.179536
0.179538
0.179537
0.179529
0.179513
0.179484
0.179439
0.179374
0.179284
0.179167
0.179015
0.178825
0.17859
0.178305
0.177964
0.177559
0.177084
0.176531
0.175895
0.175166
0.17434
0.173408
0.172364
0.171204
0.169922
0.168514
0.16698
0.16532
0.163534
0.161629
0.15961
0.157488
0.155276
0.15299
0.150648
0.148272
0.145886
0.143514
0.141184
0.138921
0.136752
0.134704
0.132787
0.131144
0.129984
0.127417
0.349122
0.326223
0.305921
0.287816
0.271587
0.256973
0.243757
0.231762
0.220839
0.210864
0.201732
0.193354
0.185656
0.178572
0.172051
0.166048
0.160525
0.155454
0.150811
0.146577
0.142737
0.139276
0.136183
0.133451
0.131075
0.129057
0.127397
0.126084
0.125091
0.124368
0.123846
0.123456
0.123142
0.12287
0.122631
0.122429
0.122275
0.122173
0.122121
0.122114
0.122143
0.122201
0.122282
0.122382
0.122498
0.122629
0.122772
0.122927
0.123092
0.123267
0.123452
0.123646
0.123848
0.124059
0.124278
0.124504
0.124736
0.124975
0.125219
0.125469
0.125722
0.125979
0.126238
0.126498
0.126759
0.127018
0.127276
0.127529
0.127778
0.128019
0.128252
0.128475
0.128685
0.128881
0.129061
0.129223
0.129365
0.129484
0.129578
0.129647
0.129687
0.129698
0.129678
0.129626
0.12954
0.129422
0.129269
0.129084
0.128867
0.128619
0.128342
0.128037
0.127708
0.127356
0.126985
0.126599
0.12619
0.125904
0.126275
0.128548
0.349121
0.326216
0.305901
0.287773
0.271511
0.256848
0.243567
0.231488
0.220459
0.210353
0.201063
0.192497
0.184578
0.177238
0.170422
0.164083
0.158182
0.152689
0.147581
0.142843
0.138466
0.134446
0.130783
0.12748
0.124544
0.121978
0.119786
0.117959
0.116481
0.115316
0.114418
0.11373
0.1132
0.112788
0.112466
0.112219
0.112037
0.111915
0.111842
0.111811
0.111812
0.111838
0.111883
0.111944
0.112016
0.112098
0.112189
0.112288
0.112395
0.11251
0.112632
0.112762
0.112899
0.113044
0.113197
0.113358
0.113528
0.113705
0.113891
0.114085
0.114288
0.114499
0.114718
0.114946
0.115182
0.115425
0.115676
0.115934
0.116199
0.11647
0.116746
0.117027
0.117312
0.1176
0.117889
0.118179
0.118469
0.118757
0.119042
0.119323
0.119597
0.119864
0.120123
0.120371
0.120607
0.120829
0.121037
0.121228
0.121401
0.121554
0.121686
0.121795
0.12188
0.121938
0.121969
0.121973
0.121937
0.122013
0.123036
0.130444
0.349121
0.326216
0.305899
0.287769
0.271504
0.256838
0.243554
0.231471
0.220438
0.210327
0.201029
0.192455
0.184524
0.177171
0.170337
0.163976
0.158049
0.152523
0.147377
0.142592
0.138162
0.134081
0.130351
0.126975
0.123957
0.121301
0.119004
0.117055
0.115434
0.11411
0.113045
0.112198
0.111534
0.111018
0.110624
0.110331
0.110121
0.109979
0.10989
0.109842
0.109824
0.109828
0.109849
0.109883
0.109925
0.109976
0.110032
0.110094
0.110162
0.110235
0.110312
0.110395
0.110483
0.110577
0.110677
0.110783
0.110895
0.111013
0.111139
0.111271
0.111411
0.111559
0.111714
0.111877
0.112049
0.112229
0.112417
0.112615
0.112821
0.113036
0.11326
0.113492
0.113734
0.113983
0.11424
0.114505
0.114777
0.115055
0.115338
0.115626
0.115917
0.11621
0.116503
0.116795
0.117085
0.11737
0.117648
0.117918
0.118176
0.118421
0.11865
0.11886
0.11905
0.119215
0.119355
0.119468
0.119541
0.119728
0.121101
0.132811
0.349121
0.326216
0.305898
0.287768
0.271501
0.256835
0.24355
0.231466
0.220432
0.21032
0.201023
0.192448
0.184516
0.177162
0.170328
0.163966
0.158038
0.152511
0.147362
0.142575
0.138141
0.134056
0.130321
0.126938
0.123911
0.121242
0.118929
0.116958
0.11531
0.113955
0.112855
0.111973
0.111277
0.110734
0.110321
0.110015
0.109796
0.109647
0.109552
0.109498
0.109475
0.109473
0.109488
0.109513
0.109548
0.109589
0.109636
0.109687
0.109743
0.109804
0.109868
0.109937
0.110011
0.110089
0.110171
0.110259
0.110353
0.110452
0.110556
0.110667
0.110784
0.110907
0.111038
0.111175
0.11132
0.111473
0.111633
0.111801
0.111977
0.112162
0.112355
0.112556
0.112766
0.112984
0.113211
0.113445
0.113688
0.113937
0.114193
0.114456
0.114723
0.114995
0.11527
0.115547
0.115824
0.116099
0.116372
0.116639
0.116898
0.117148
0.117385
0.117608
0.117812
0.117996
0.118157
0.118296
0.118394
0.118613
0.120204
0.135444
0.349121
0.326216
0.305898
0.287767
0.2715
0.256833
0.243547
0.231463
0.220428
0.210316
0.201017
0.192442
0.18451
0.177156
0.170321
0.163959
0.15803
0.152503
0.147354
0.142567
0.138134
0.134049
0.130314
0.126932
0.123907
0.12124
0.118927
0.116956
0.115304
0.113941
0.112831
0.11194
0.111235
0.110686
0.110267
0.109956
0.109734
0.109582
0.109485
0.109429
0.109404
0.1094
0.109413
0.109436
0.109469
0.109507
0.109551
0.1096
0.109653
0.10971
0.10977
0.109835
0.109905
0.109978
0.110056
0.110139
0.110227
0.11032
0.110418
0.110523
0.110633
0.11075
0.110873
0.111003
0.111139
0.111283
0.111435
0.111594
0.111761
0.111937
0.11212
0.112312
0.112511
0.112719
0.112936
0.113159
0.113391
0.11363
0.113875
0.114127
0.114383
0.114644
0.114908
0.115174
0.11544
0.115705
0.115968
0.116225
0.116476
0.116717
0.116947
0.117163
0.117363
0.117544
0.117703
0.117843
0.117944
0.118172
0.119922
0.138234
0.349121
0.326216
0.305898
0.287767
0.271499
0.256832
0.243546
0.231461
0.220426
0.210313
0.201015
0.192439
0.184507
0.177153
0.170319
0.163957
0.158028
0.152501
0.147352
0.142567
0.138134
0.134051
0.130318
0.126939
0.123917
0.121254
0.118944
0.116975
0.115322
0.113955
0.112839
0.111941
0.11123
0.110676
0.110253
0.10994
0.109716
0.109563
0.109464
0.109408
0.109382
0.109377
0.109389
0.109412
0.109443
0.109481
0.109525
0.109572
0.109624
0.10968
0.10974
0.109804
0.109871
0.109943
0.11002
0.110101
0.110187
0.110278
0.110375
0.110477
0.110585
0.110699
0.110819
0.110946
0.111081
0.111222
0.11137
0.111527
0.111691
0.111863
0.112043
0.112231
0.112428
0.112633
0.112847
0.113068
0.113297
0.113533
0.113777
0.114026
0.114281
0.11454
0.114803
0.115068
0.115333
0.115597
0.115858
0.116114
0.116363
0.116603
0.116832
0.117047
0.117245
0.117426
0.117585
0.117726
0.117827
0.11806
0.119951
0.141137
0.349121
0.326216
0.305898
0.287767
0.271499
0.256831
0.243545
0.23146
0.220425
0.210312
0.201014
0.192438
0.184506
0.177152
0.170317
0.163955
0.158027
0.1525
0.147352
0.142567
0.138135
0.134054
0.130323
0.126947
0.123929
0.121271
0.118967
0.117002
0.11535
0.113981
0.112859
0.111954
0.111236
0.110676
0.110249
0.109933
0.109707
0.109552
0.109453
0.109395
0.109369
0.109364
0.109375
0.109398
0.10943
0.109468
0.109511
0.109558
0.10961
0.109665
0.109725
0.109788
0.109856
0.109927
0.110003
0.110084
0.11017
0.11026
0.110356
0.110458
0.110565
0.110678
0.110798
0.110924
0.111058
0.111198
0.111346
0.111501
0.111664
0.111835
0.112014
0.112202
0.112398
0.112602
0.112815
0.113036
0.113265
0.113501
0.113745
0.113995
0.114251
0.114512
0.114777
0.115044
0.115312
0.115579
0.115844
0.116104
0.116357
0.116601
0.116834
0.117054
0.117257
0.117441
0.117604
0.117749
0.117854
0.118094
0.120119
0.144133
0.349121
0.326216
0.305898
0.287767
0.271499
0.256831
0.243545
0.23146
0.220425
0.210312
0.201013
0.192438
0.184506
0.177152
0.170317
0.163956
0.158028
0.152501
0.147354
0.14257
0.138139
0.13406
0.130332
0.126959
0.123946
0.121294
0.118996
0.117036
0.115386
0.114014
0.112886
0.111973
0.111246
0.11068
0.110248
0.109928
0.109699
0.109542
0.109442
0.109384
0.109357
0.109352
0.109363
0.109386
0.109418
0.109456
0.109499
0.109546
0.109598
0.109654
0.109713
0.109777
0.109844
0.109916
0.109992
0.110073
0.110158
0.110249
0.110345
0.110447
0.110554
0.110668
0.110788
0.110914
0.111047
0.111188
0.111336
0.111491
0.111655
0.111826
0.112006
0.112194
0.11239
0.112595
0.112809
0.113031
0.113261
0.113499
0.113744
0.113996
0.114254
0.114518
0.114785
0.115056
0.115328
0.115599
0.115869
0.116135
0.116394
0.116644
0.116884
0.11711
0.117319
0.117511
0.11768
0.11783
0.117939
0.118188
0.120348
0.147215
0.349121
0.326217
0.305898
0.287767
0.2715
0.256832
0.243546
0.23146
0.220425
0.210312
0.201014
0.192438
0.184507
0.177153
0.170319
0.163958
0.15803
0.152504
0.147358
0.142574
0.138145
0.134068
0.130342
0.126974
0.123966
0.12132
0.119029
0.117074
0.115427
0.114052
0.112918
0.111995
0.111259
0.110685
0.110248
0.109923
0.109691
0.109533
0.109431
0.109373
0.109345
0.10934
0.109351
0.109374
0.109405
0.109443
0.109486
0.109534
0.109586
0.109642
0.109701
0.109765
0.109833
0.109904
0.109981
0.110062
0.110148
0.110239
0.110335
0.110437
0.110545
0.110659
0.11078
0.110907
0.111041
0.111183
0.111331
0.111488
0.111652
0.111825
0.112006
0.112196
0.112394
0.1126
0.112816
0.113039
0.113272
0.113512
0.11376
0.114015
0.114276
0.114543
0.114814
0.115089
0.115366
0.115643
0.115918
0.116189
0.116455
0.116712
0.116959
0.117192
0.117408
0.117607
0.117782
0.117939
0.118053
0.11831
0.120606
0.150379
0.349122
0.326217
0.305899
0.287768
0.2715
0.256832
0.243546
0.231461
0.220426
0.210314
0.201015
0.19244
0.184509
0.177155
0.170321
0.163961
0.158033
0.152508
0.147363
0.14258
0.138153
0.134078
0.130355
0.126991
0.123989
0.12135
0.119066
0.117118
0.115473
0.114095
0.112953
0.112021
0.111275
0.110692
0.110248
0.109919
0.109684
0.109523
0.10942
0.10936
0.109332
0.109327
0.109337
0.10936
0.109391
0.109429
0.109473
0.109521
0.109572
0.109628
0.109688
0.109752
0.10982
0.109892
0.109969
0.11005
0.110137
0.110228
0.110325
0.110428
0.110536
0.110651
0.110772
0.1109
0.111035
0.111178
0.111328
0.111486
0.111652
0.111826
0.112009
0.112201
0.112401
0.11261
0.112828
0.113055
0.11329
0.113533
0.113785
0.114044
0.114309
0.114581
0.114857
0.115137
0.115419
0.115702
0.115983
0.116262
0.116534
0.116798
0.117052
0.117292
0.117516
0.117721
0.117903
0.118066
0.118185
0.11845
0.120883
0.153621
0.349122
0.326217
0.305899
0.287768
0.271501
0.256833
0.243547
0.231462
0.220428
0.210315
0.201017
0.192442
0.184511
0.177158
0.170325
0.163964
0.158038
0.152513
0.147369
0.142588
0.138162
0.134089
0.130371
0.127011
0.124015
0.121384
0.119108
0.117166
0.115523
0.114143
0.112993
0.11205
0.111293
0.110701
0.11025
0.109915
0.109676
0.109513
0.109408
0.109347
0.109318
0.109312
0.109323
0.109345
0.109377
0.109415
0.109458
0.109506
0.109558
0.109614
0.109674
0.109738
0.109806
0.109879
0.109956
0.110037
0.110124
0.110216
0.110314
0.110417
0.110526
0.110642
0.110764
0.110893
0.111029
0.111173
0.111324
0.111484
0.111651
0.111828
0.112013
0.112207
0.112409
0.112621
0.112843
0.113073
0.113312
0.113559
0.113815
0.114079
0.11435
0.114626
0.114909
0.115195
0.115483
0.115773
0.116061
0.116347
0.116627
0.116899
0.11716
0.117408
0.11764
0.117852
0.118041
0.11821
0.118334
0.118607
0.121179
0.156941
0.349122
0.326218
0.3059
0.287769
0.271502
0.256834
0.243549
0.231464
0.220429
0.210317
0.20102
0.192445
0.184515
0.177162
0.170329
0.163969
0.158043
0.15252
0.147376
0.142597
0.138173
0.134103
0.130387
0.127033
0.124044
0.12142
0.119153
0.117218
0.115578
0.114195
0.113037
0.112082
0.111313
0.110711
0.110252
0.109912
0.109669
0.109503
0.109396
0.109334
0.109304
0.109297
0.109308
0.10933
0.109361
0.109399
0.109442
0.10949
0.109543
0.109599
0.109659
0.109723
0.109792
0.109864
0.109942
0.110024
0.110111
0.110203
0.110301
0.110405
0.110515
0.110631
0.110754
0.110884
0.111022
0.111167
0.11132
0.111481
0.111651
0.111829
0.112016
0.112213
0.112419
0.112634
0.112858
0.113092
0.113336
0.113588
0.113849
0.114118
0.114394
0.114677
0.114966
0.115259
0.115555
0.115853
0.116149
0.116443
0.116732
0.117012
0.117282
0.117539
0.117779
0.117999
0.118195
0.11837
0.1185
0.118781
0.121493
0.16034
0.349122
0.326218
0.3059
0.28777
0.271503
0.256835
0.24355
0.231466
0.220431
0.21032
0.201023
0.192448
0.184518
0.177166
0.170334
0.163975
0.158049
0.152527
0.147385
0.142607
0.138185
0.134117
0.130406
0.127057
0.124075
0.12146
0.119201
0.117274
0.115638
0.114252
0.113084
0.112117
0.111336
0.110723
0.110255
0.109909
0.109661
0.109492
0.109383
0.10932
0.109289
0.109282
0.109291
0.109313
0.109344
0.109382
0.109426
0.109474
0.109526
0.109582
0.109643
0.109707
0.109776
0.109849
0.109926
0.110009
0.110096
0.110189
0.110288
0.110392
0.110503
0.11062
0.110744
0.110875
0.111014
0.11116
0.111315
0.111478
0.111649
0.11183
0.11202
0.112219
0.112428
0.112647
0.112875
0.113113
0.113361
0.113618
0.113885
0.11416
0.114443
0.114733
0.115029
0.11533
0.115634
0.11594
0.116246
0.116549
0.116847
0.117138
0.117417
0.117683
0.117932
0.118161
0.118365
0.118548
0.118683
0.118974
0.121827
0.163819
0.349122
0.326218
0.305901
0.287771
0.271504
0.256837
0.243552
0.231468
0.220434
0.210322
0.201026
0.192452
0.184523
0.177171
0.170339
0.163981
0.158057
0.152535
0.147394
0.142618
0.138198
0.134134
0.130427
0.127083
0.124108
0.121502
0.119253
0.117334
0.115702
0.114312
0.113136
0.112155
0.11136
0.110736
0.110259
0.109906
0.109653
0.109481
0.10937
0.109305
0.109273
0.109265
0.109274
0.109296
0.109327
0.109365
0.109408
0.109456
0.109508
0.109565
0.109625
0.10969
0.109759
0.109832
0.10991
0.109993
0.110081
0.110174
0.110273
0.110378
0.11049
0.110608
0.110733
0.110865
0.111005
0.111153
0.111309
0.111474
0.111648
0.111831
0.112023
0.112226
0.112438
0.11266
0.112893
0.113135
0.113388
0.113651
0.113923
0.114205
0.114495
0.114792
0.115096
0.115406
0.11572
0.116035
0.116351
0.116665
0.116973
0.117275
0.117565
0.117842
0.118101
0.11834
0.118552
0.118743
0.118885
0.119185
0.122182
0.16738
0.349122
0.326219
0.305902
0.287771
0.271505
0.256838
0.243553
0.23147
0.220436
0.210326
0.201029
0.192456
0.184527
0.177176
0.170346
0.163988
0.158065
0.152544
0.147405
0.14263
0.138213
0.134151
0.130448
0.127111
0.124143
0.121547
0.119309
0.117398
0.115769
0.114377
0.11319
0.112196
0.111387
0.11075
0.110263
0.109903
0.109646
0.10947
0.109356
0.109289
0.109256
0.109247
0.109256
0.109278
0.109308
0.109346
0.109389
0.109437
0.10949
0.109546
0.109607
0.109672
0.109741
0.109814
0.109892
0.109976
0.110064
0.110158
0.110258
0.110363
0.110476
0.110595
0.110721
0.110854
0.110996
0.111145
0.111303
0.11147
0.111646
0.111831
0.112027
0.112232
0.112448
0.112674
0.112911
0.113159
0.113417
0.113686
0.113964
0.114253
0.11455
0.114856
0.115169
0.115488
0.115812
0.116138
0.116465
0.11679
0.117111
0.117424
0.117726
0.118015
0.118285
0.118535
0.118757
0.118958
0.119107
0.119416
0.122558
0.171025
0.349123
0.326219
0.305902
0.287772
0.271506
0.25684
0.243555
0.231472
0.220439
0.210329
0.201033
0.192461
0.184533
0.177182
0.170352
0.163996
0.158073
0.152554
0.147416
0.142643
0.138229
0.13417
0.130472
0.12714
0.124181
0.121594
0.119367
0.117465
0.115841
0.114445
0.113248
0.11224
0.111416
0.110765
0.110268
0.109901
0.109638
0.109458
0.109342
0.109273
0.109239
0.109229
0.109237
0.109258
0.109289
0.109326
0.10937
0.109418
0.10947
0.109527
0.109587
0.109652
0.109722
0.109795
0.109874
0.109957
0.110046
0.110141
0.110241
0.110347
0.11046
0.11058
0.110708
0.110842
0.110985
0.111136
0.111296
0.111465
0.111643
0.111832
0.11203
0.112239
0.112458
0.112689
0.112931
0.113183
0.113447
0.113722
0.114008
0.114304
0.11461
0.114925
0.115247
0.115577
0.115911
0.116249
0.116588
0.116926
0.117259
0.117586
0.117901
0.118203
0.118486
0.118748
0.118981
0.119192
0.119349
0.11967
0.122957
0.174757
0.349123
0.32622
0.305903
0.287773
0.271507
0.256841
0.243557
0.231475
0.220442
0.210333
0.201038
0.192466
0.184538
0.177188
0.17036
0.164004
0.158082
0.152565
0.147428
0.142657
0.138245
0.13419
0.130496
0.127171
0.12422
0.121644
0.119428
0.117536
0.115916
0.114517
0.113309
0.112286
0.111446
0.110782
0.110274
0.109898
0.10963
0.109446
0.109327
0.109256
0.109221
0.10921
0.109218
0.109238
0.109268
0.109306
0.109349
0.109397
0.10945
0.109506
0.109567
0.109632
0.109701
0.109775
0.109854
0.109938
0.110027
0.110122
0.110223
0.11033
0.110444
0.110565
0.110693
0.11083
0.110974
0.111127
0.111288
0.111459
0.11164
0.111831
0.112033
0.112245
0.112469
0.112704
0.112951
0.113209
0.113479
0.113761
0.114054
0.114358
0.114673
0.114997
0.115331
0.115671
0.116018
0.116368
0.116721
0.117072
0.11742
0.117761
0.118091
0.118407
0.118705
0.11898
0.119226
0.119447
0.119614
0.119946
0.123382
0.178578
0.349123
0.32622
0.305904
0.287774
0.271509
0.256843
0.243559
0.231477
0.220445
0.210336
0.201042
0.192471
0.184544
0.177195
0.170367
0.164013
0.158092
0.152576
0.147441
0.142672
0.138263
0.134211
0.130522
0.127204
0.124262
0.121696
0.119492
0.11761
0.115994
0.114592
0.113374
0.112335
0.111479
0.1108
0.110281
0.109897
0.109622
0.109434
0.109312
0.109239
0.109202
0.10919
0.109197
0.109217
0.109247
0.109284
0.109327
0.109375
0.109428
0.109485
0.109545
0.109611
0.10968
0.109754
0.109833
0.109918
0.110007
0.110103
0.110204
0.110312
0.110427
0.110549
0.110678
0.110816
0.110961
0.111116
0.11128
0.111453
0.111637
0.111831
0.112036
0.112252
0.11248
0.112719
0.112971
0.113236
0.113512
0.113801
0.114103
0.114416
0.11474
0.115075
0.11542
0.115772
0.116132
0.116496
0.116863
0.11723
0.117594
0.117951
0.118297
0.118629
0.118942
0.119232
0.119492
0.119726
0.119903
0.120248
0.123832
0.182492
0.349123
0.32622
0.305904
0.287775
0.27151
0.256845
0.243562
0.23148
0.220449
0.21034
0.201047
0.192476
0.184551
0.177203
0.170375
0.164022
0.158103
0.152588
0.147455
0.142688
0.138281
0.134234
0.13055
0.127238
0.124305
0.121751
0.119558
0.117686
0.116076
0.114671
0.113442
0.112386
0.111513
0.110819
0.110288
0.109895
0.109614
0.109422
0.109296
0.109221
0.109183
0.10917
0.109176
0.109196
0.109225
0.109262
0.109305
0.109353
0.109405
0.109462
0.109523
0.109588
0.109658
0.109732
0.109812
0.109896
0.109986
0.110082
0.110184
0.110293
0.110409
0.110531
0.110662
0.110801
0.110948
0.111105
0.11127
0.111446
0.111632
0.111829
0.112038
0.112258
0.11249
0.112735
0.112993
0.113263
0.113547
0.113844
0.114153
0.114476
0.114811
0.115157
0.115514
0.11588
0.116254
0.116633
0.117016
0.1174
0.117781
0.118155
0.11852
0.11887
0.1192
0.119507
0.119782
0.12003
0.120219
0.120577
0.124312
0.1865
0.349124
0.326221
0.305905
0.287776
0.271511
0.256847
0.243564
0.231483
0.220452
0.210345
0.201052
0.192482
0.184557
0.17721
0.170384
0.164032
0.158114
0.1526
0.147469
0.142705
0.138301
0.134257
0.130578
0.127273
0.12435
0.121807
0.119627
0.117766
0.116161
0.114753
0.113512
0.11244
0.111549
0.11084
0.110296
0.109894
0.109606
0.109409
0.10928
0.109203
0.109163
0.109149
0.109154
0.109173
0.109202
0.109239
0.109282
0.10933
0.109382
0.109439
0.1095
0.109565
0.109635
0.109709
0.109789
0.109874
0.109964
0.110061
0.110163
0.110273
0.110389
0.110513
0.110645
0.110785
0.110934
0.111092
0.11126
0.111438
0.111627
0.111827
0.11204
0.112264
0.112501
0.112751
0.113014
0.113291
0.113583
0.113888
0.114207
0.114539
0.114885
0.115244
0.115614
0.115994
0.116384
0.11678
0.11718
0.117582
0.117982
0.118376
0.11876
0.11913
0.11948
0.119805
0.120097
0.120362
0.120563
0.120936
0.124823
0.190605
0.349124
0.326221
0.305906
0.287777
0.271513
0.256849
0.243567
0.231486
0.220456
0.210349
0.201057
0.192488
0.184564
0.177218
0.170393
0.164042
0.158125
0.152613
0.147484
0.142722
0.138321
0.134281
0.130607
0.12731
0.124396
0.121865
0.119698
0.117848
0.116249
0.114838
0.113586
0.112497
0.111588
0.110862
0.110305
0.109893
0.109598
0.109396
0.109264
0.109184
0.109142
0.109127
0.109132
0.10915
0.109179
0.109215
0.109258
0.109305
0.109358
0.109414
0.109475
0.109541
0.109611
0.109685
0.109765
0.10985
0.109941
0.110038
0.110141
0.110251
0.110369
0.110493
0.110626
0.110768
0.110918
0.111078
0.111249
0.111429
0.111621
0.111825
0.112041
0.112269
0.112511
0.112766
0.113036
0.11332
0.113619
0.113933
0.114262
0.114605
0.114963
0.115335
0.115719
0.116115
0.116521
0.116935
0.117355
0.117777
0.118198
0.118614
0.11902
0.119412
0.119783
0.120129
0.120441
0.120723
0.120939
0.121328
0.125368
0.194811
0.349124
0.326222
0.305907
0.287778
0.271514
0.256851
0.243569
0.231489
0.22046
0.210354
0.201062
0.192494
0.184571
0.177226
0.170402
0.164052
0.158137
0.152627
0.147499
0.14274
0.138342
0.134306
0.130638
0.127348
0.124443
0.121925
0.119771
0.117933
0.11634
0.114927
0.113663
0.112556
0.111628
0.110885
0.110315
0.109893
0.109591
0.109383
0.109248
0.109165
0.109121
0.109105
0.109108
0.109126
0.109154
0.10919
0.109233
0.10928
0.109332
0.109389
0.10945
0.109515
0.109585
0.10966
0.10974
0.109826
0.109917
0.110014
0.110118
0.110229
0.110347
0.110473
0.110607
0.11075
0.110902
0.111064
0.111236
0.111419
0.111614
0.111821
0.112041
0.112274
0.112521
0.112782
0.113058
0.11335
0.113657
0.11398
0.114319
0.114674
0.115045
0.115431
0.115831
0.116243
0.116668
0.117101
0.117542
0.117986
0.11843
0.11887
0.119301
0.119717
0.120112
0.120482
0.120815
0.121117
0.12135
0.121757
0.12595
0.19912
0.349124
0.326222
0.305907
0.28778
0.271516
0.256853
0.243572
0.231492
0.220464
0.210358
0.201068
0.192501
0.184579
0.177235
0.170412
0.164063
0.15815
0.152641
0.147515
0.142758
0.138363
0.134332
0.130669
0.127387
0.124492
0.121986
0.119846
0.11802
0.116434
0.115018
0.113742
0.112617
0.11167
0.11091
0.110326
0.109893
0.109583
0.10937
0.109231
0.109146
0.1091
0.109082
0.109085
0.109102
0.109129
0.109165
0.109207
0.109254
0.109306
0.109363
0.109424
0.109489
0.109559
0.109634
0.109714
0.1098
0.109892
0.109989
0.110094
0.110205
0.110324
0.110451
0.110586
0.11073
0.110884
0.111048
0.111222
0.111408
0.111606
0.111816
0.11204
0.112278
0.11253
0.112797
0.11308
0.11338
0.113695
0.114028
0.114379
0.114746
0.11513
0.115531
0.115947
0.116378
0.116822
0.117277
0.117741
0.118209
0.118679
0.119145
0.119603
0.120047
0.120469
0.120865
0.121222
0.121547
0.121799
0.122225
0.126573
0.203535
0.349125
0.326223
0.305908
0.287781
0.271518
0.256855
0.243574
0.231496
0.220468
0.210363
0.201074
0.192508
0.184587
0.177244
0.170422
0.164075
0.158163
0.152656
0.147532
0.142777
0.138386
0.134358
0.130701
0.127426
0.124542
0.122049
0.119923
0.11811
0.11653
0.115112
0.113824
0.112681
0.111713
0.110935
0.110337
0.109893
0.109576
0.109357
0.109214
0.109126
0.109078
0.109059
0.10906
0.109076
0.109103
0.109139
0.10918
0.109228
0.109279
0.109336
0.109397
0.109462
0.109532
0.109607
0.109687
0.109773
0.109865
0.109963
0.110068
0.11018
0.1103
0.110427
0.110564
0.110709
0.110865
0.11103
0.111207
0.111396
0.111597
0.111811
0.112038
0.112281
0.112538
0.112812
0.113102
0.113409
0.113734
0.114078
0.114439
0.11482
0.115219
0.115635
0.11607
0.116521
0.116986
0.117464
0.117953
0.118448
0.118945
0.119441
0.119929
0.120403
0.120856
0.121281
0.121667
0.122018
0.122291
0.122739
0.127242
0.208059
0.349125
0.326223
0.305909
0.287782
0.271519
0.256857
0.243577
0.231499
0.220472
0.210368
0.20108
0.192515
0.184595
0.177253
0.170433
0.164086
0.158176
0.152671
0.147549
0.142797
0.138409
0.134385
0.130734
0.127467
0.124593
0.122113
0.120001
0.118201
0.116628
0.115208
0.113908
0.112747
0.111759
0.110963
0.110349
0.109894
0.109568
0.109344
0.109196
0.109106
0.109056
0.109035
0.109035
0.109051
0.109077
0.109112
0.109153
0.1092
0.109252
0.109308
0.109369
0.109434
0.109504
0.109579
0.10966
0.109746
0.109838
0.109936
0.110041
0.110154
0.110274
0.110403
0.11054
0.110687
0.110844
0.111012
0.111191
0.111382
0.111586
0.111804
0.112036
0.112283
0.112546
0.112826
0.113123
0.113439
0.113774
0.114128
0.114502
0.114896
0.11531
0.115744
0.116198
0.11667
0.117158
0.117662
0.118178
0.118702
0.119231
0.119759
0.120281
0.120789
0.121276
0.121735
0.122152
0.122532
0.122831
0.123303
0.127962
0.212695
0.349125
0.326224
0.30591
0.287783
0.271521
0.256859
0.24358
0.231503
0.220476
0.210373
0.201086
0.192522
0.184603
0.177262
0.170443
0.164098
0.158189
0.152686
0.147566
0.142817
0.138432
0.134413
0.130768
0.127509
0.124645
0.122178
0.120081
0.118294
0.116729
0.115307
0.113995
0.112815
0.111806
0.110991
0.110362
0.109896
0.109561
0.109331
0.109179
0.109085
0.109033
0.109011
0.10901
0.109024
0.10905
0.109085
0.109126
0.109172
0.109224
0.10928
0.10934
0.109405
0.109475
0.10955
0.109631
0.109717
0.109809
0.109908
0.110014
0.110127
0.110248
0.110377
0.110516
0.110664
0.110822
0.110992
0.111173
0.111367
0.111574
0.111795
0.112031
0.112283
0.112552
0.112839
0.113144
0.113468
0.113813
0.114178
0.114565
0.114974
0.115405
0.115857
0.116331
0.116826
0.11734
0.117871
0.118417
0.118973
0.119537
0.120101
0.12066
0.121207
0.121733
0.12223
0.122683
0.123096
0.123423
0.123922
0.128738
0.217445
0.349125
0.326224
0.305911
0.287784
0.271522
0.256861
0.243583
0.231506
0.220481
0.210379
0.201092
0.192529
0.184611
0.177272
0.170454
0.164111
0.158203
0.152702
0.147584
0.142838
0.138456
0.134441
0.130802
0.127551
0.124698
0.122244
0.120162
0.118388
0.116831
0.115407
0.114084
0.112886
0.111856
0.111021
0.110376
0.109898
0.109555
0.109318
0.109161
0.109064
0.10901
0.108986
0.108984
0.108998
0.109023
0.109057
0.109097
0.109143
0.109195
0.10925
0.109311
0.109376
0.109446
0.109521
0.109601
0.109687
0.10978
0.109879
0.109985
0.110098
0.11022
0.11035
0.11049
0.110639
0.110799
0.11097
0.111154
0.11135
0.11156
0.111785
0.112026
0.112283
0.112557
0.112851
0.113164
0.113497
0.113852
0.114229
0.11463
0.115054
0.115502
0.115974
0.11647
0.11699
0.117531
0.118092
0.11867
0.119262
0.119864
0.120468
0.12107
0.12166
0.122229
0.122769
0.123263
0.123715
0.124075
0.124606
0.129578
0.222313
0.349126
0.326225
0.305911
0.287785
0.271524
0.256863
0.243585
0.23151
0.220485
0.210384
0.201098
0.192536
0.18462
0.177282
0.170465
0.164123
0.158217
0.152718
0.147603
0.142859
0.13848
0.13447
0.130837
0.127594
0.124752
0.122311
0.120243
0.118484
0.116935
0.11551
0.114176
0.112958
0.111907
0.111052
0.110391
0.109901
0.109548
0.109305
0.109144
0.109044
0.108987
0.108961
0.108958
0.10897
0.108995
0.109028
0.109068
0.109114
0.109165
0.10922
0.109281
0.109346
0.109415
0.10949
0.109571
0.109657
0.109749
0.109848
0.109955
0.110069
0.110191
0.110322
0.110462
0.110613
0.110774
0.110947
0.111133
0.111332
0.111545
0.111774
0.112018
0.11228
0.112561
0.112861
0.113182
0.113525
0.113891
0.11428
0.114695
0.115135
0.115602
0.116095
0.116614
0.11716
0.11773
0.118324
0.118938
0.119569
0.120213
0.120863
0.121511
0.12215
0.122769
0.123358
0.1239
0.124396
0.124795
0.12536
0.130489
0.2273
0.349126
0.326225
0.305912
0.287787
0.271526
0.256866
0.243588
0.231513
0.22049
0.210389
0.201105
0.192544
0.184628
0.177291
0.170476
0.164136
0.158232
0.152734
0.147621
0.14288
0.138505
0.134499
0.130872
0.127637
0.124806
0.122378
0.120326
0.118581
0.117041
0.115615
0.114269
0.113032
0.111959
0.111084
0.110407
0.109904
0.109542
0.109292
0.109126
0.109023
0.108963
0.108936
0.108931
0.108943
0.108966
0.108999
0.109039
0.109084
0.109135
0.10919
0.10925
0.109314
0.109384
0.109459
0.109539
0.109625
0.109718
0.109817
0.109924
0.110038
0.110161
0.110292
0.110434
0.110585
0.110748
0.110923
0.11111
0.111312
0.111528
0.11176
0.112009
0.112276
0.112563
0.11287
0.113199
0.113551
0.113928
0.114331
0.11476
0.115217
0.115703
0.116218
0.116763
0.117337
0.117939
0.118568
0.119222
0.119896
0.120586
0.121286
0.121988
0.122682
0.123358
0.124003
0.1246
0.125147
0.12559
0.126197
0.131483
0.232409
0.349126
0.326226
0.305913
0.287788
0.271527
0.256868
0.243591
0.231517
0.220494
0.210395
0.201111
0.192551
0.184637
0.177302
0.170488
0.164149
0.158247
0.152751
0.14764
0.142902
0.13853
0.134529
0.130908
0.127681
0.124861
0.122446
0.12041
0.118679
0.117148
0.115722
0.114365
0.113109
0.112014
0.111118
0.110424
0.109908
0.109537
0.10928
0.109109
0.109002
0.10894
0.10891
0.108904
0.108915
0.108938
0.10897
0.109009
0.109054
0.109104
0.109159
0.109218
0.109283
0.109352
0.109427
0.109507
0.109593
0.109685
0.109785
0.109891
0.110006
0.110129
0.110261
0.110403
0.110556
0.11072
0.110897
0.111086
0.11129
0.111509
0.111745
0.111998
0.11227
0.112563
0.112877
0.113214
0.113576
0.113964
0.11438
0.114825
0.1153
0.115806
0.116345
0.116916
0.11752
0.118157
0.118825
0.119521
0.120242
0.120984
0.12174
0.122502
0.123259
0.123999
0.12471
0.12537
0.125977
0.126473
0.127128
0.132571
0.237641
0.349126
0.326226
0.305914
0.287789
0.271529
0.25687
0.243594
0.231521
0.220499
0.2104
0.201118
0.192559
0.184646
0.177312
0.1705
0.164162
0.158261
0.152768
0.147659
0.142924
0.138556
0.134559
0.130944
0.127725
0.124916
0.122515
0.120494
0.118777
0.117256
0.11583
0.114462
0.113187
0.11207
0.111153
0.110442
0.109912
0.109531
0.109267
0.109091
0.10898
0.108916
0.108885
0.108877
0.108886
0.108908
0.10894
0.108978
0.109023
0.109073
0.109127
0.109186
0.109251
0.10932
0.109394
0.109474
0.10956
0.109652
0.109751
0.109858
0.109973
0.110096
0.110229
0.110372
0.110525
0.110691
0.110869
0.11106
0.111266
0.111488
0.111727
0.111985
0.112262
0.11256
0.112882
0.113227
0.113599
0.113999
0.114428