/*--------------------------------*- C++ -*----------------------------------*\
| =========                 |                                                 |
| \\      /  F ield         | OpenFOAM: The Open Source CFD Toolbox           |
|  \\    /   O peration     | Version:  4.1                                   |
|   \\  /    A nd           | Web:      www.OpenFOAM.org                      |
|    \\/     M anipulation  |                                                 |
\*---------------------------------------------------------------------------*/
FoamFile
{
    version     2.0;
    format      ascii;
    class       volScalarField;
    location    "0.06";
    object      p;
}
// * * * * * * * * * * * * * * * * * * * * * * * * * * * * * * * * * * * * * //

dimensions      [0 2 -2 0 0 0 0];

internalField   nonuniform List<scalar> 
43750
(
65.9197
65.8134
65.7563
65.7675
65.8081
65.8581
65.92
65.9988
66.095
66.2069
66.3333
66.4741
66.6291
66.7981
66.9807
67.1764
67.3849
67.6057
67.8386
68.0835
68.3406
68.6104
68.8942
69.1939
69.5113
69.8478
70.2032
70.5759
70.9633
71.3624
71.7712
72.1884
72.6135
73.0461
73.486
73.9329
74.3866
74.8469
75.314
75.7882
76.2696
76.7584
77.2548
77.7588
78.2704
78.7896
79.3163
79.8505
80.3921
80.941
81.4971
82.0602
82.6301
83.2066
83.7895
84.3784
84.9731
85.5731
86.1781
86.7877
87.4013
88.0185
88.6387
89.2613
89.8857
90.5111
91.137
91.7624
92.3866
93.0087
93.6278
94.243
94.8534
95.4578
96.0552
96.6446
97.2248
97.7946
98.3528
98.8983
99.4297
99.9459
100.445
100.927
101.39
101.831
102.252
102.648
103.021
103.368
103.688
103.979
104.242
104.474
104.675
104.844
104.98
105.082
105.151
105.191
65.7534
65.7243
65.7009
65.7115
65.7496
65.8031
65.8698
65.9517
66.0495
66.1624
66.2897
66.4311
66.5865
66.7559
66.9391
67.1359
67.3461
67.5699
67.807
68.0577
68.3222
68.6007
68.8932
69.1997
69.5205
69.8557
70.2058
70.5711
70.9514
71.3456
71.7523
72.1694
72.595
73.0278
73.467
73.9127
74.3649
74.8241
75.2904
75.764
76.245
76.7336
77.2297
77.7335
78.2448
78.7637
79.2903
79.8244
80.3659
80.9148
81.471
82.0341
82.6042
83.181
83.7641
84.3534
84.9485
85.549
86.1547
86.7649
87.3793
87.9973
88.6185
89.2421
89.8676
90.4943
91.1215
91.7483
92.3741
92.9978
93.6187
94.2357
94.8479
95.4543
96.0538
96.6452
97.2275
97.7995
98.36
98.9077
99.4413
99.9597
100.461
100.945
101.41
101.854
102.276
102.675
103.05
103.398
103.72
104.013
104.277
104.511
104.713
104.883
105.02
105.123
105.191
105.233
65.6737
65.6708
65.6705
65.6874
65.7253
65.7796
65.8474
65.929
66.0255
66.1369
66.2626
66.4025
66.5562
66.7239
66.9053
67.1003
67.3088
67.5306
67.7657
68.014
68.2756
68.5505
68.839
69.1414
69.4585
69.7906
70.1386
70.503
70.8837
71.2798
71.6896
72.1104
72.5395
72.9749
73.4156
73.8615
74.3132
74.7713
75.2363
75.7086
76.1883
76.6755
77.1703
77.6727
78.1827
78.7002
79.2254
79.758
80.2981
80.8456
81.4003
81.962
82.5307
83.106
83.6877
84.2756
84.8693
85.4685
86.0728
86.6818
87.295
87.9119
88.532
89.1547
89.7794
90.4053
91.0318
91.6582
92.2835
92.9071
93.5279
94.145
94.7575
95.3644
95.9645
96.5568
97.1401
97.7133
98.2752
98.8244
99.3598
99.88
100.384
100.87
101.336
101.783
102.207
102.608
102.985
103.336
103.66
103.955
104.221
104.457
104.66
104.832
104.97
105.074
105.142
105.183
65.5896
65.5919
65.6003
65.6219
65.6607
65.7154
65.7841
65.8667
65.9639
66.0757
66.2018
66.3419
66.4959
66.6638
66.8454
67.0407
67.2495
67.4719
67.7078
67.9572
68.2205
68.498
68.7898
69.0963
69.4175
69.7534
70.1039
70.4689
70.8481
71.241
71.6462
72.0622
72.4869
72.9187
73.3568
73.8007
74.2508
74.7076
75.1714
75.6424
76.1209
76.6068
77.1003
77.6014
78.1101
78.6264
79.1502
79.6816
80.2204
80.7665
81.3199
81.8803
82.4477
83.0217
83.6021
84.1887
84.7811
85.3791
85.9821
86.5899
87.2019
87.8176
88.4366
89.0581
89.6817
90.3066
90.9321
91.5575
92.182
92.8047
93.4247
94.0411
94.653
95.2592
95.8588
96.4506
97.0335
97.6064
98.168
98.717
99.2523
99.7724
100.276
100.762
101.229
101.676
102.1
102.502
102.879
103.23
103.554
103.849
104.116
104.351
104.555
104.726
104.864
104.968
105.036
105.077
65.5016
65.5076
65.5228
65.5504
65.5925
65.6492
65.7196
65.8037
65.9017
66.0138
66.1399
66.2799
66.4336
66.601
66.7821
66.9769
67.1852
67.4072
67.6428
67.8921
68.1552
68.4321
68.723
69.0281
69.3475
69.6816
70.0308
70.3951
70.7739
71.1662
71.5705
71.9848
72.4074
72.837
73.273
73.7151
74.1637
74.6189
75.0812
75.5508
76.0277
76.5121
77.0039
77.5034
78.0104
78.525
79.0472
79.5769
80.1141
80.6586
81.2103
81.7691
82.3348
82.9072
83.4861
84.0711
84.662
85.2585
85.8601
86.4664
87.077
87.6914
88.3091
88.9294
89.5518
90.1756
90.8
91.4244
92.0479
92.6697
93.2888
93.9044
94.5155
95.121
95.7199
96.311
96.8933
97.4655
98.0264
98.5748
99.1094
99.6288
100.132
100.617
101.083
101.529
101.952
102.353
102.729
103.079
103.402
103.697
103.962
104.197
104.4
104.571
104.708
104.812
104.879
104.92
65.4065
65.4142
65.4327
65.4635
65.5074
65.5648
65.6357
65.7202
65.8183
65.9303
66.0561
66.1957
66.349
66.5159
66.6966
66.8908
67.0987
67.3203
67.5555
67.8044
68.0672
68.344
68.6349
68.9404
69.2605
69.5955
69.9454
70.3099
70.6882
71.0792
71.4813
71.8928
72.3122
72.7386
73.1715
73.611
74.0571
74.5102
74.9704
75.4378
75.9126
76.3949
76.8847
77.382
77.8869
78.3994
78.9195
79.4471
79.9821
80.5245
81.0741
81.6308
82.1944
82.7648
83.3416
83.9246
84.5135
85.108
85.7077
86.3122
86.921
87.5337
88.1496
88.7684
89.3892
90.0115
90.6345
91.2575
91.8797
92.5003
93.1183
93.7328
94.3429
94.9474
95.5453
96.1356
96.7169
97.2882
97.8482
98.3957
98.9293
99.4477
99.9497
100.434
100.899
101.343
101.765
102.164
102.539
102.888
103.209
103.502
103.766
104
104.201
104.371
104.507
104.61
104.677
104.717
65.3018
65.3103
65.3306
65.3636
65.4093
65.4679
65.5397
65.6249
65.7236
65.8359
65.9617
66.1012
66.2543
66.4209
66.6011
66.7949
67.0022
67.2233
67.4579
67.7064
67.9687
68.245
68.5354
68.8401
69.1591
69.4927
69.8408
70.2033
70.5795
70.9682
71.3679
71.7769
72.1938
72.6176
73.0479
73.4848
73.9284
74.3789
74.8366
75.3015
75.7738
76.2536
76.7408
77.2356
77.7379
78.2479
78.7653
79.2903
79.8228
80.3625
80.9096
81.4637
82.0248
82.5925
83.1668
83.7473
84.3338
84.9259
85.5232
86.1253
86.7319
87.3423
87.9561
88.5728
89.1916
89.812
90.4332
91.0544
91.675
92.294
92.9105
93.5236
94.1323
94.7356
95.3324
95.9215
96.5018
97.0721
97.6311
98.1775
98.7101
99.2275
99.7284
100.211
100.675
101.118
101.539
101.937
102.31
102.657
102.977
103.269
103.531
103.763
103.963
104.132
104.267
104.37
104.435
104.476
65.1865
65.1955
65.2169
65.2513
65.2982
65.3577
65.4301
65.5156
65.6144
65.7266
65.8522
65.9913
66.1438
66.3097
66.4892
66.6822
66.8888
67.109
67.3428
67.5903
67.8517
68.127
68.4163
68.7198
69.0377
69.3701
69.7169
70.0779
70.4523
70.8388
71.2361
71.6423
72.0563
72.477
72.9043
73.3381
73.7786
74.2261
74.6808
75.1427
75.6121
76.0888
76.573
77.0648
77.5641
78.0709
78.5853
79.1072
79.6366
80.1733
80.7172
81.2682
81.8262
82.3909
82.9622
83.5397
84.1231
84.7122
85.3066
85.9059
86.5096
87.1173
87.7284
88.3424
88.9587
89.5766
90.1954
90.8144
91.4328
92.0498
92.6643
93.2756
93.8825
94.4842
95.0794
95.667
96.246
96.8149
97.3727
97.918
98.4495
98.9658
99.4656
99.9475
100.41
100.852
101.272
101.669
102.04
102.386
102.705
102.996
103.257
103.487
103.687
103.854
103.989
104.091
104.156
104.196
65.06
65.0693
65.0913
65.1266
65.1743
65.2344
65.3071
65.3929
65.4918
65.6039
65.7292
65.8678
66.0198
66.1851
66.3639
66.5561
66.7618
66.981
67.2138
67.4603
67.7205
67.9946
68.2827
68.5848
68.9012
69.2318
69.5767
69.9353
70.3071
70.6909
71.0851
71.4881
71.8987
72.3161
72.74
73.1704
73.6075
74.0516
74.5029
74.9615
75.4274
75.9007
76.3814
76.8697
77.3655
77.8689
78.3797
78.8981
79.4238
79.9569
80.4973
81.0447
81.5991
82.1602
82.7279
83.3018
83.8818
84.4674
85.0583
85.6542
86.2545
86.8589
87.4668
88.0777
88.6909
89.3058
89.9217
90.5379
91.1536
91.768
92.38
92.9889
93.5937
94.1932
94.7864
95.3721
95.9493
96.5166
97.0728
97.6166
98.1467
98.6617
99.1602
99.6409
100.102
100.543
100.962
101.358
101.729
102.074
102.392
102.681
102.941
103.171
103.37
103.537
103.67
103.772
103.837
103.877
64.9219
64.9313
64.9538
64.9896
65.0378
65.0982
65.1712
65.257
65.3557
65.4676
65.5925
65.7305
65.8818
66.0463
66.2241
66.4153
66.6199
66.8379
67.0694
67.3145
67.5733
67.8458
68.1322
68.4325
68.7469
69.0755
69.418
69.7742
70.1433
70.524
70.915
71.3146
71.7216
72.1353
72.5554
72.982
73.4154
73.8557
74.3032
74.7579
75.2199
75.6893
76.1662
76.6505
77.1423
77.6417
78.1485
78.6628
79.1845
79.7136
80.2498
80.7932
81.3435
81.9005
82.4641
83.034
83.6099
84.1915
84.7784
85.3703
85.9668
86.5674
87.1715
87.7786
88.3882
88.9996
89.6121
90.225
90.8375
91.4487
92.0578
92.6639
93.2659
93.8628
94.4535
95.0369
95.6119
96.1771
96.7314
97.2734
97.8018
98.3152
98.8123
99.2916
99.7519
100.192
100.609
101.004
101.374
101.718
102.035
102.324
102.583
102.813
103.011
103.177
103.311
103.412
103.476
103.516
64.772
64.7815
64.8041
64.8402
64.8887
64.9493
65.0223
65.1079
65.2065
65.3179
65.4422
65.5796
65.73
65.8936
66.0704
66.2603
66.4636
66.6802
66.9103
67.1538
67.4108
67.6815
67.966
68.2642
68.5764
68.9025
69.2424
69.5957
69.9617
70.3391
70.7264
71.1221
71.5251
71.9347
72.3507
72.7731
73.2023
73.6384
74.0816
74.5321
74.9898
75.4549
75.9274
76.4073
76.8947
77.3896
77.892
78.4017
78.9189
79.4434
79.975
80.5138
81.0595
81.6119
82.1708
82.7361
83.3074
83.8845
84.4669
85.0543
85.6463
86.2425
86.8423
87.4452
88.0507
88.658
89.2665
89.8755
90.4843
91.0919
91.6975
92.3002
92.8989
93.4928
94.0806
94.6612
95.2336
95.7963
96.3483
96.8881
97.4145
97.926
98.4214
98.8992
99.3579
99.7963
100.213
100.606
100.975
101.319
101.635
101.923
102.182
102.411
102.608
102.774
102.907
103.009
103.073
103.113
64.6101
64.6197
64.6424
64.6786
64.7271
64.7877
64.8605
64.946
65.0441
65.1549
65.2786
65.4151
65.5646
65.7271
65.9026
66.0912
66.293
66.508
66.7363
66.978
67.2331
67.5017
67.7838
68.0797
68.3893
68.7126
69.0496
69.3997
69.7622
70.1359
70.5192
70.9108
71.3095
71.7146
72.1261
72.5439
72.9685
73.4
73.8386
74.2843
74.7373
75.1976
75.6653
76.1403
76.6228
77.1128
77.6101
78.1149
78.627
79.1464
79.6729
80.2065
80.7471
81.2944
81.8482
82.4083
82.9745
83.5464
84.1237
84.7061
85.2931
85.8843
86.4792
87.0773
87.678
88.2807
88.8847
89.4893
90.0937
90.6971
91.2987
91.8975
92.4925
93.0828
93.6672
94.2446
94.8138
95.3737
95.9229
96.4602
96.9843
97.4936
97.987
98.4629
98.92
99.3568
99.7721
100.164
100.532
100.874
101.19
101.477
101.736
101.964
102.161
102.327
102.46
102.561
102.624
102.664
64.4363
64.4458
64.4686
64.5047
64.5532
64.6136
64.6862
64.7712
64.8687
64.9789
65.1018
65.2373
65.3857
65.5469
65.721
65.9081
66.1082
66.3214
66.5478
66.7873
67.0402
67.3064
67.586
67.8792
68.1859
68.5062
68.8399
69.1865
69.5453
69.9149
70.2939
70.6809
71.0749
71.4752
71.8817
72.2946
72.7142
73.1406
73.5741
74.0147
74.4625
74.9176
75.38
75.8497
76.3268
76.8113
77.3032
77.8024
78.309
78.8228
79.3437
79.8717
80.4065
80.9481
81.4962
82.0506
82.6111
83.1773
83.7489
84.3257
84.9071
85.4927
86.0822
86.6748
87.2702
87.8676
88.4665
89.066
89.6655
90.2642
90.8611
91.4555
92.0462
92.6323
93.2128
93.7864
94.3521
94.9086
95.4547
95.989
96.5103
97.0171
97.5081
97.9819
98.437
98.8721
99.2858
99.6766
100.043
100.384
100.699
100.986
101.243
101.471
101.668
101.833
101.966
102.067
102.13
102.17
64.2505
64.26
64.2827
64.3187
64.367
64.4271
64.4992
64.5837
64.6806
64.7899
64.9118
65.0462
65.1933
65.3531
65.5257
65.7111
65.9093
66.1205
66.3447
66.582
66.8324
67.0959
67.3728
67.6629
67.9665
68.2834
68.6135
68.9563
69.311
69.6762
70.0506
70.4327
70.8216
71.2166
71.6178
72.0254
72.4395
72.8605
73.2885
73.7235
74.1657
74.6151
75.0717
75.5356
76.0069
76.4855
76.9714
77.4646
77.9651
78.4727
78.9875
79.5093
80.0379
80.5732
81.115
81.6631
82.2173
82.7772
83.3426
83.9131
84.4883
85.0677
85.651
86.2377
86.827
87.4186
88.0116
88.6055
89.1995
89.7928
90.3845
90.9737
91.5595
92.1409
92.7169
93.2862
93.8478
94.4004
94.9428
95.4737
95.9918
96.4956
96.9839
97.4551
97.908
98.341
98.7528
99.142
99.5072
99.8472
100.161
100.446
100.703
100.93
101.126
101.291
101.423
101.525
101.587
101.627
64.0527
64.0622
64.0847
64.1205
64.1685
64.2282
64.2998
64.3836
64.4797
64.5881
64.7089
64.8421
64.9878
65.146
65.3168
65.5003
65.6965
65.9055
66.1273
66.362
66.6097
66.8704
67.1441
67.431
67.7312
68.0444
68.3707
68.7094
69.0596
69.4201
69.7895
70.1663
70.5497
70.9392
71.3347
71.7364
72.1448
72.5599
72.9819
73.4109
73.8471
74.2903
74.7407
75.1984
75.6633
76.1355
76.6149
77.1016
77.5954
78.0964
78.6045
79.1195
79.6413
80.1698
80.7048
81.246
81.7933
82.3463
82.9048
83.4683
84.0367
84.6093
85.1858
85.7657
86.3485
86.9335
87.5201
88.1076
88.6954
89.2825
89.8683
90.4518
91.0321
91.6081
92.1789
92.7432
93.3001
93.8483
94.3864
94.9133
95.4277
95.9281
96.4131
96.8815
97.3316
97.7622
98.1718
98.5591
98.9226
99.261
99.5731
99.8577
100.114
100.34
100.536
100.7
100.832
100.932
100.995
101.034
63.8431
63.8525
63.8749
63.9104
63.958
64.0172
64.0882
64.1712
64.2664
64.3737
64.4932
64.625
64.7691
64.9256
65.0945
65.276
65.4699
65.6765
65.8958
66.1277
66.3724
66.63
66.9004
67.1838
67.4802
67.7895
68.1116
68.4459
68.7914
69.1468
69.5108
69.8821
70.2596
70.6431
71.0325
71.4281
71.8302
72.239
72.6547
73.0773
73.5069
73.9435
74.3873
74.8382
75.2962
75.7615
76.234
76.7136
77.2003
77.6941
78.1949
78.7026
79.2171
79.7381
80.2656
80.7994
81.3391
81.8846
82.4355
82.9915
83.5523
84.1175
84.6865
85.259
85.8344
86.4121
86.9915
87.572
88.1528
88.7332
89.3123
89.8893
90.4633
91.0333
91.5982
92.1569
92.7084
93.2514
93.7847
94.307
94.817
95.3134
95.7947
96.2595
96.7065
97.1342
97.5413
97.9262
98.2876
98.6242
98.9347
99.2179
99.4727
99.698
99.8928
100.057
100.188
100.288
100.35
100.39
63.6217
63.631
63.6532
63.6883
63.7355
63.7941
63.8643
63.9465
64.0406
64.1467
64.2649
64.3952
64.5376
64.6922
64.8591
65.0383
65.2298
65.4338
65.6502
65.8792
66.1208
66.3749
66.6418
66.9214
67.2138
67.5189
67.8366
68.1661
68.5065
68.8566
69.215
69.5802
69.9516
70.3286
70.7115
71.1006
71.496
71.8981
72.307
72.7228
73.1454
73.575
74.0116
74.4553
74.906
75.3639
75.8288
76.3009
76.78
77.266
77.759
78.2588
78.7653
79.2783
79.7977
80.3234
80.8549
81.3922
81.9349
82.4827
83.0353
83.5922
84.1531
84.7174
85.2847
85.8544
86.4259
86.9985
87.5716
88.1444
88.7161
89.2859
89.8528
90.4158
90.9741
91.5264
92.0718
92.6089
93.1366
93.6536
94.1586
94.6502
95.1272
95.588
96.0312
96.4555
96.8594
97.2415
97.6004
97.9348
98.2434
98.5249
98.7783
99.0024
99.1961
99.3592
99.4895
99.5897
99.6512
99.6905
63.3886
63.3978
63.4197
63.4545
63.5011
63.5591
63.6285
63.7096
63.8026
63.9075
64.0241
64.1527
64.2933
64.4459
64.6105
64.7873
64.9763
65.1775
65.3909
65.6167
65.8549
66.1055
66.3685
66.6441
66.9322
67.2329
67.5458
67.8703
68.2054
68.5498
68.9021
69.261
69.6258
69.9961
70.3721
70.7542
71.1426
71.5376
71.9392
72.3477
72.7629
73.185
73.614
74.05
74.4929
74.9429
75.3998
75.8638
76.3346
76.8124
77.297
77.7883
78.2862
78.7906
79.3013
79.8182
80.3409
80.8693
81.4031
81.942
82.4856
83.0336
83.5855
84.1409
84.6993
85.2602
85.8229
86.3869
86.9514
87.5158
88.0793
88.6409
89.1999
89.7552
90.306
90.8511
91.3894
91.9198
92.4411
92.952
93.4512
93.9374
94.4092
94.8652
95.3041
95.7243
96.1244
96.5032
96.859
97.1907
97.4969
97.7763
98.0278
98.2504
98.4429
98.6049
98.7343
98.834
98.8949
98.934
63.144
63.1531
63.1747
63.2091
63.2551
63.3123
63.3808
63.4609
63.5526
63.656
63.7711
63.8979
64.0365
64.1869
64.3492
64.5234
64.7096
64.9078
65.1181
65.3405
65.575
65.8218
66.0808
66.3521
66.6357
66.9316
67.2395
67.5587
67.8882
68.2266
68.5725
68.9248
69.2826
69.6458
70.0145
70.3892
70.7702
71.1576
71.5517
71.9524
72.3598
72.7739
73.1948
73.6226
74.0573
74.4988
74.9472
75.4025
75.8646
76.3335
76.8091
77.2914
77.7801
78.2753
78.7766
79.284
79.7972
80.3161
80.8402
81.3694
81.9033
82.4416
82.9838
83.5295
84.0782
84.6294
85.1825
85.7369
86.2921
86.8471
87.4014
87.954
88.5041
89.0508
89.5931
90.13
90.6604
91.1832
91.6971
92.201
92.6935
93.1733
93.6392
94.0896
94.5232
94.9386
95.3343
95.7089
96.0611
96.3895
96.6927
96.9695
97.2187
97.4394
97.6302
97.7909
97.9192
98.0182
98.0784
98.1172
62.888
62.8969
62.9182
62.9521
62.9975
63.0539
63.1214
63.2003
63.2907
63.3926
63.506
63.6308
63.7673
63.9154
64.0752
64.2467
64.4299
64.625
64.8319
65.0507
65.2814
65.5241
65.7788
66.0456
66.3245
66.6154
66.918
67.2316
67.5551
67.8873
68.2265
68.5718
68.9223
69.278
69.6391
70.006
70.3791
70.7586
71.1446
71.5371
71.9363
72.342
72.7544
73.1735
73.5993
74.032
74.4713
74.9174
75.3702
75.8297
76.2958
76.7683
77.2473
77.7325
78.2238
78.7211
79.2241
79.7327
80.2465
80.7652
81.2886
81.8163
82.348
82.8831
83.4212
83.9618
84.5045
85.0484
85.5932
86.1379
86.682
87.2246
87.7648
88.3019
88.8347
89.3624
89.8838
90.3979
90.9034
91.3992
91.884
92.3565
92.8154
93.2592
93.6866
94.0963
94.4867
94.8564
95.2041
95.5284
95.828
96.1016
96.348
96.5662
96.7549
96.9139
97.0408
97.139
97.1982
97.2367
62.6207
62.6295
62.6505
62.6839
62.7285
62.784
62.8505
62.9282
63.0172
63.1174
63.2289
63.3518
63.486
63.6317
63.7888
63.9574
64.1375
64.3293
64.5326
64.7476
64.9743
65.2128
65.463
65.725
65.9989
66.2845
66.5816
66.8893
67.2066
67.5322
67.8644
68.2023
68.5452
68.893
69.2461
69.6048
69.9697
70.3409
70.7184
71.1024
71.4927
71.8896
72.293
72.703
73.1195
73.5427
73.9725
74.4089
74.8519
75.3013
75.7572
76.2195
76.688
77.1627
77.6433
78.1298
78.6219
79.1193
79.622
80.1295
80.6416
81.158
81.6781
82.2018
82.7284
83.2576
83.7887
84.3212
84.8545
85.3879
85.9208
86.4522
86.9815
87.5077
88.03
88.5472
89.0585
89.5627
90.0587
90.5453
91.0212
91.4852
91.9359
92.3721
92.7923
93.1951
93.5791
93.943
94.2853
94.6046
94.8997
95.1694
95.4122
95.6274
95.8135
95.9703
96.0955
96.1924
96.2506
96.2887
62.3423
62.351
62.3716
62.4045
62.4484
62.5029
62.5683
62.6447
62.7321
62.8306
62.9402
63.0609
63.1928
63.3358
63.4902
63.6557
63.8326
64.0209
64.2205
64.4315
64.654
64.888
65.1334
65.3905
65.6592
65.9393
66.2306
66.5322
66.843
67.1616
67.4865
67.8167
68.1516
68.4912
68.8359
69.1861
69.5424
69.9048
70.2734
70.6484
71.0296
71.4172
71.8111
72.2115
72.6182
73.0315
73.4512
73.8773
74.3098
74.7487
75.1938
75.6452
76.1026
76.5661
77.0353
77.5102
77.9907
78.4763
78.9671
79.4625
79.9625
80.4666
80.9744
81.4856
81.9998
82.5164
83.035
83.5551
84.0759
84.5968
85.1173
85.6364
86.1535
86.6677
87.1781
87.6837
88.1836
88.6766
89.1617
89.6377
90.1034
90.5576
90.9989
91.4261
91.8377
92.2324
92.6089
92.9657
93.3015
93.6148
93.9045
94.1692
94.4077
94.6191
94.8019
94.9561
95.079
95.1744
95.2313
95.2688
62.0531
62.0616
62.0819
62.1141
62.1572
62.2108
62.275
62.35
62.4358
62.5325
62.64
62.7585
62.8879
63.0282
63.1796
63.342
63.5154
63.7
63.8957
64.1026
64.3207
64.55
64.7905
65.0424
65.3056
65.58
65.8652
66.1604
66.4644
66.7758
67.0932
67.4154
67.742
68.073
68.4089
68.7502
69.0974
69.4507
69.8101
70.1756
70.5473
70.9251
71.3091
71.6993
72.0959
72.4986
72.9077
73.323
73.7445
74.1722
74.606
75.0458
75.4915
75.9431
76.4002
76.8629
77.3309
77.804
78.2819
78.7645
79.2514
79.7423
80.2369
80.7347
81.2354
81.7385
82.2435
82.7498
83.257
83.7643
84.2711
84.7767
85.2803
85.7811
86.2783
86.7708
87.2578
87.7382
88.2109
88.6749
89.1289
89.5717
90.0021
90.4188
90.8204
91.2057
91.5731
91.9215
92.2494
92.5555
92.8385
93.0972
93.3304
93.537
93.7157
93.8665
93.9866
94.0801
94.1353
94.1722
61.7531
61.7615
61.7814
61.813
61.8553
61.9078
61.9707
62.0442
62.1284
62.2232
62.3286
62.4447
62.5715
62.709
62.8573
63.0163
63.1863
63.367
63.5587
63.7612
63.9747
64.1991
64.4345
64.681
64.9385
65.2069
65.4858
65.7744
66.0713
66.3753
66.6847
66.9986
67.3165
67.6386
67.9654
68.2975
68.6353
68.9791
69.3288
69.6845
70.0461
70.4137
70.7874
71.167
71.5528
71.9446
72.3426
72.7465
73.1565
73.5724
73.9942
74.4218
74.8552
75.2941
75.7384
76.1881
76.6429
77.1026
77.5669
78.0357
78.5087
78.9855
79.4658
79.9492
80.4353
80.9238
81.414
81.9055
82.3977
82.8901
83.382
83.8726
84.3613
84.8473
85.3297
85.8076
86.2801
86.7463
87.205
87.6553
88.0959
88.5256
88.9434
89.3478
89.7377
90.1117
90.4685
90.8068
91.1253
91.4226
91.6976
91.9489
92.1754
92.3762
92.5499
92.6965
92.8131
92.9042
92.9574
92.9933
61.4427
61.4509
61.4704
61.5013
61.5427
61.5942
61.6558
61.7278
61.8102
61.903
62.0062
62.1198
62.2438
62.3784
62.5235
62.6791
62.8453
63.0221
63.2095
63.4076
63.6163
63.8356
64.0657
64.3066
64.5582
64.8204
65.0927
65.3744
65.6641
65.9603
66.2615
66.5668
66.8757
67.1886
67.5059
67.8284
68.1565
68.4903
68.83
69.1754
69.5266
69.8836
70.2464
70.615
70.9896
71.3699
71.7562
72.1482
72.5461
72.9496
73.3589
73.7737
74.1939
74.6195
75.0504
75.4863
75.9271
76.3725
76.8224
77.2766
77.7346
78.1963
78.6613
79.1292
79.5997
80.0723
80.5465
81.0219
81.498
81.974
82.4495
82.9237
83.3959
83.8655
84.3315
84.7931
85.2494
85.6996
86.1424
86.5771
87.0023
87.4171
87.8202
88.2104
88.5866
88.9474
89.2916
89.6179
89.9251
90.2118
90.477
90.7193
90.9378
91.1314
91.2988
91.4402
91.5525
91.6404
91.6912
91.726
61.122
61.13
61.1491
61.1793
61.2198
61.2702
61.3304
61.4008
61.4814
61.5721
61.6729
61.784
61.9053
62.0368
62.1785
62.3306
62.4929
62.6656
62.8486
63.042
63.2457
63.4599
63.6844
63.9195
64.165
64.4207
64.6864
64.9609
65.243
65.5312
65.8239
66.1203
66.42
66.7233
67.0308
67.3433
67.6613
67.9848
68.314
68.6488
68.9892
69.3351
69.6867
70.0438
70.4066
70.775
71.1491
71.5287
71.9138
72.3044
72.7005
73.1018
73.5083
73.92
74.3365
74.7579
75.1839
75.6142
76.0488
76.4873
76.9295
77.3751
77.8237
78.2751
78.7287
79.1842
79.6412
80.0992
80.5576
81.0159
81.4734
81.9296
82.3837
82.8351
83.2829
83.7264
84.1646
84.5967
85.0216
85.4385
85.8463
86.2438
86.6301
87.0038
87.3639
87.7093
88.0385
88.3506
88.6442
88.9183
89.1716
89.403
89.6115
89.7963
89.956
90.0909
90.1978
90.2818
90.3296
90.3631
60.7913
60.7991
60.8177
60.8472
60.8868
60.936
60.9948
61.0635
61.1422
61.2307
61.3292
61.4376
61.556
61.6843
61.8226
61.971
62.1293
62.2978
62.4762
62.6648
62.8634
63.0721
63.291
63.52
63.7592
64.0083
64.267
64.5341
64.8084
65.0883
65.3724
65.6596
65.9497
66.2431
66.5405
66.8427
67.1502
67.4631
67.7815
68.1053
68.4344
68.7688
69.1087
69.4539
69.8045
70.1605
70.5218
70.8884
71.2603
71.6374
72.0196
72.4068
72.7989
73.1958
73.5974
74.0034
74.4138
74.8282
75.2466
75.6685
76.0939
76.5223
76.9534
77.387
77.8226
78.2598
78.6982
79.1373
79.5766
80.0155
80.4535
80.89
81.3243
81.7556
82.1833
82.6065
83.0245
83.4363
83.8411
84.2379
84.6257
85.0035
85.3703
85.725
86.0664
86.3935
86.7052
87.0004
87.2779
87.5366
87.7756
87.9938
88.1902
88.3641
88.5143
88.6411
88.7414
88.8205
88.8646
88.8965
60.4507
60.4583
60.4765
60.5053
60.5439
60.5918
60.6492
60.7162
60.7929
60.8792
60.9752
61.0809
61.1962
61.3213
61.4561
61.6006
61.7548
61.9189
62.0927
62.2762
62.4696
62.6728
62.8857
63.1086
63.3412
63.5835
63.835
64.0945
64.3608
64.6322
64.9073
65.185
65.4652
65.7485
66.0355
66.327
66.6237
66.9256
67.2328
67.5452
67.8627
68.1853
68.513
68.8458
69.1837
69.5267
69.8748
70.228
70.586
70.949
71.3167
71.6892
72.0662
72.4477
72.8335
73.2235
73.6174
74.015
74.4162
74.8206
75.2281
75.6383
76.0508
76.4654
76.8817
77.2993
77.7177
78.1364
78.555
78.973
79.3898
79.8047
80.2171
80.6264
81.0318
81.4326
81.828
82.2171
82.5992
82.9733
83.3384
83.6937
84.0381
84.3707
84.6904
84.9962
85.2872
85.5623
85.8206
86.061
86.2827
86.4848
86.6664
86.827
86.9654
87.0823
87.1743
87.2473
87.2869
87.3167
60.1006
60.108
60.1257
60.1537
60.1913
60.238
60.2939
60.3591
60.4338
60.5178
60.6112
60.7141
60.8263
60.948
61.0791
61.2197
61.3698
61.5293
61.6982
61.8767
62.0646
62.2621
62.469
62.6854
62.9114
63.1467
63.3907
63.6425
63.9005
64.1632
64.429
64.697
64.9671
65.2399
65.5161
65.7968
66.0823
66.3729
66.6685
66.9691
67.2746
67.5849
67.9001
68.2201
68.5449
68.8745
69.2089
69.5479
69.8916
70.2399
70.5926
70.9497
71.3109
71.6763
72.0456
72.4186
72.7952
73.1752
73.5583
73.9442
74.3327
74.7236
75.1164
75.5108
75.9065
76.303
76.6999
77.0968
77.4931
77.8884
78.282
78.6734
79.062
79.4471
79.8279
80.2039
80.5742
80.938
81.2945
81.6429
81.9823
82.3118
82.6306
82.9376
83.2321
83.5131
83.7797
84.0311
84.2664
84.4849
84.6857
84.8683
85.0319
85.1761
85.3001
85.4046
85.4865
85.5519
85.5859
85.613
59.7411
59.7483
59.7655
59.7928
59.8294
59.8747
59.929
59.9925
60.065
60.1467
60.2376
60.3375
60.4465
60.5648
60.6921
60.8287
60.9744
61.1292
61.2933
61.4665
61.6489
61.8404
62.0411
62.251
62.4701
62.6982
62.9346
63.1784
63.4279
63.6816
63.938
64.196
64.4558
64.7178
64.983
65.2524
65.5265
65.8054
66.0892
66.3777
66.6708
66.9684
67.2706
67.5773
67.8886
68.2043
68.5245
68.849
69.1778
69.5108
69.8478
70.1888
70.5337
70.8822
71.2342
71.5896
71.9481
72.3094
72.6735
73.0399
73.4085
73.7788
74.1507
74.5236
74.8973
75.2714
75.6453
76.0187
76.391
76.7618
77.1303
77.4962
77.8587
78.2173
78.5711
78.9196
79.262
79.5976
79.9255
80.245
80.5552
80.8554
81.1448
81.4225
81.6877
81.9396
82.1776
82.401
82.609
82.8011
82.9768
83.1357
83.2773
83.4015
83.5077
83.5969
83.6661
83.7219
83.749
83.7728
59.3726
59.3796
59.3963
59.4228
59.4583
59.5023
59.555
59.6166
59.687
59.7663
59.8544
59.9514
60.0572
60.1718
60.2954
60.4278
60.569
60.7191
60.8781
61.0459
61.2226
61.4081
61.6024
61.8057
62.0177
62.2384
62.467
62.7026
62.9435
63.188
63.4347
63.6825
63.9316
64.1826
64.4366
64.6944
64.9568
65.2238
65.4953
65.7714
66.0517
66.3363
66.6251
66.9182
67.2155
67.5169
67.8223
68.1318
68.4451
68.7623
69.0831
69.4074
69.7352
70.0661
70.4002
70.737
71.0765
71.4184
71.7625
72.1084
72.4559
72.8047
73.1544
73.5046
73.855
74.2051
74.5545
74.9027
75.2492
75.5935
75.935
76.2731
76.6073
76.9368
77.261
77.5793
77.8908
78.1949
78.4908
78.7778
79.0551
79.322
79.5777
79.8216
80.0529
80.271
80.4754
80.6656
80.8412
81.0018
81.1472
81.2774
81.3921
81.4918
81.576
81.6462
81.6995
81.7435
81.7619
81.7816
58.9952
59.002
59.0182
59.0439
59.0783
59.121
59.1721
59.2317
59.3
59.3768
59.4621
59.556
59.6585
59.7695
59.8891
60.0173
60.154
60.2992
60.453
60.6154
60.7862
60.9655
61.1534
61.3497
61.5546
61.7677
61.9884
62.2156
62.4476
62.6828
62.9195
63.157
63.3952
63.635
63.8774
64.1235
64.3737
64.6285
64.8875
65.1508
65.418
65.6892
65.9644
66.2434
66.5262
66.8128
67.1031
67.397
67.6944
67.9951
68.2991
68.6062
68.9162
69.2289
69.5442
69.8618
70.1815
70.503
70.8261
71.1506
71.4759
71.8019
72.1282
72.4544
72.78
73.1047
73.4279
73.7492
74.0681
74.384
74.6963
75.0044
75.3078
75.6057
75.8974
76.1824
76.4598
76.729
76.9892
77.2398
77.4799
77.709
77.9263
78.1314
78.3235
78.5023
78.6674
78.8185
78.9555
79.0784
79.1873
79.2826
79.3645
79.4339
79.4908
79.5375
79.5711
79.6
79.6076
79.6222
58.6094
58.616
58.6316
58.6565
58.6897
58.731
58.7805
58.8382
58.9042
58.9785
59.061
59.1518
59.2509
59.3582
59.4737
59.5976
59.7296
59.8699
60.0184
60.1751
60.34
60.5131
60.6943
60.8836
61.0811
61.2865
61.4991
61.7177
61.9407
62.1663
62.393
62.6199
62.847
63.0753
63.306
63.5399
63.7779
64.0201
64.2664
64.5165
64.7704
65.0278
65.2889
65.5534
65.8215
66.0929
66.3676
66.6454
66.9263
67.2102
67.4967
67.7859
68.0775
68.3713
68.6671
68.9647
69.2637
69.564
69.8653
70.1672
70.4693
70.7714
71.0731
71.3739
71.6733
71.971
72.2665
72.5591
72.8484
73.1338
73.4147
73.6905
73.9605
74.2239
74.4803
74.7287
74.9686
75.1992
75.4197
75.6294
75.8278
76.0141
76.1878
76.3483
76.4952
76.6283
76.7474
76.8524
76.9436
77.0214
77.0863
77.1391
77.1809
77.213
77.2362
77.2533
77.2622
77.2721
77.2662
77.2743
58.2153
58.2216
58.2367
58.2607
58.2929
58.3328
58.3805
58.4362
58.4999
58.5717
58.6513
58.7389
58.8345
58.9381
59.0495
59.169
59.2963
59.4315
59.5746
59.7256
59.8844
60.0511
60.2255
60.4078
60.5978
60.7953
60.9996
61.2095
61.4233
61.6392
61.8556
62.0717
62.2876
62.5042
62.7228
62.9445
63.1699
63.3993
63.6325
63.8692
64.1094
64.3528
64.5994
64.8491
65.102
65.3578
65.6164
65.8778
66.1417
66.4081
66.6767
66.9474
67.22
67.4942
67.7698
68.0466
68.3242
68.6024
68.8809
69.1592
69.4371
69.7142
69.9899
70.264
70.5358
70.805
71.071
71.3332
71.591
71.8438
72.091
72.3319
72.5658
72.792
73.0098
73.2184
73.417
73.6049
73.7813
73.9456
74.0971
74.2351
74.3592
74.4688
74.5637
74.6438
74.7091
74.7599
74.7967
74.8205
74.8323
74.8336
74.8261
74.8121
74.7932
74.7733
74.751
74.7369
74.7138
74.7136
57.8132
57.8193
57.8339
57.857
57.888
57.9264
57.9724
58.0261
58.0875
58.1566
58.2334
58.3178
58.4098
58.5095
58.6168
58.7318
58.8543
58.9844
59.122
59.2672
59.4198
59.5799
59.7475
59.9225
60.1049
60.2944
60.4903
60.6914
60.8958
61.1018
61.3078
61.5129
61.7174
61.9221
62.1285
62.3377
62.5503
62.7667
62.9865
63.2096
63.4357
63.6648
63.8966
64.1312
64.3685
64.6083
64.8505
65.0949
65.3414
65.5899
65.84
66.0917
66.3446
66.5986
66.8533
67.1085
67.3639
67.6192
67.8739
68.1277
68.3803
68.6311
68.8798
69.1258
69.3686
69.6077
69.8425
70.0724
70.2968
70.5149
70.7261
70.9296
71.1247
71.3106
71.4864
71.6515
71.8049
71.9459
72.0737
72.1874
72.2864
72.3701
72.438
72.4896
72.5248
72.5435
72.5461
72.5331
72.5055
72.4646
72.4123
72.3508
72.2828
72.2117
72.1402
72.0737
72.0119
71.9671
71.9221
71.9111
57.4034
57.4093
57.4233
57.4456
57.4754
57.5124
57.5566
57.6083
57.6673
57.7337
57.8075
57.8886
57.9771
58.0729
58.176
58.2863
58.404
58.5288
58.6609
58.8002
58.9466
59.1
59.2606
59.4283
59.6029
59.7843
59.9717
60.1637
60.3587
60.5547
60.7501
60.9441
61.1369
61.3296
61.5236
61.7201
61.9197
62.1228
62.329
62.5382
62.7501
62.9645
63.1813
63.4004
63.6218
63.8452
64.0705
64.2976
64.5263
64.7563
64.9875
65.2196
65.4523
65.6854
65.9186
66.1516
66.3839
66.6154
66.8455
67.0739
67.3001
67.5236
67.7439
67.9606
68.1729
68.3804
68.5824
68.7781
68.967
69.1482
69.321
69.4845
69.6379
69.7804
69.911
70.0288
70.133
70.2225
70.2966
70.3543
70.3949
70.4177
70.4221
70.4077
70.3744
70.3223
70.2519
70.164
70.0601
69.9419
69.8122
69.6741
69.5315
69.3893
69.2517
69.1262
69.0139
68.9295
68.8563
68.8315
56.9862
56.9919
57.0054
57.0267
57.0553
57.0908
57.1333
57.1829
57.2395
57.3033
57.374
57.4518
57.5366
57.6285
57.7273
57.833
57.9457
58.0653
58.1917
58.325
58.465
58.6118
58.7653
58.9255
59.0923
59.2654
59.4441
59.6271
59.8124
59.9983
60.183
60.3657
60.5468
60.7273
60.9087
61.0923
61.2788
61.4683
61.6608
61.8558
62.0531
62.2526
62.4541
62.6575
62.8626
63.0693
63.2775
63.4868
63.6972
63.9084
64.1201
64.3321
64.5441
64.7557
64.9667
65.1767
65.3854
65.5922
65.7969
65.9988
66.1976
66.3927
66.5836
66.7696
66.9501
67.1244
67.2919
67.4517
67.6031
67.7452
67.8772
67.9981
68.107
68.2028
68.2846
68.3513
68.4019
68.4353
68.4504
68.4462
68.4219
68.3766
68.3097
68.2206
68.1091
67.9755
67.8203
67.6446
67.4503
67.2398
67.0165
66.7849
66.5502
66.3192