/*--------------------------------*- C++ -*----------------------------------*\
| =========                 |                                                 |
| \\      /  F ield         | OpenFOAM: The Open Source CFD Toolbox           |
|  \\    /   O peration     | Version:  4.1                                   |
|   \\  /    A nd           | Web:      www.OpenFOAM.org                      |
|    \\/     M anipulation  |                                                 |
\*---------------------------------------------------------------------------*/
FoamFile
{
    version     2.0;
    format      ascii;
    class       surfaceScalarField;
    location    "0.06";
    object      phi;
}
// * * * * * * * * * * * * * * * * * * * * * * * * * * * * * * * * * * * * * //

dimensions      [0 3 -1 0 0 0 0];

internalField   nonuniform List<scalar> 
87025
(
0.019967
3.30013e-05
0.0199119
5.5084e-05
0.0198462
6.56752e-05
0.0197719
7.43212e-05
0.0196895
8.24433e-05
0.0195996
8.98527e-05
0.019503
9.6615e-05
0.0194
0.000103025
0.0192907
0.000109296
0.0191752
0.000115518
0.0190534
0.000121729
0.0189255
0.000127966
0.0187912
0.00013426
0.0186506
0.000140613
0.0185036
0.000146992
0.0183503
0.000153315
0.0181909
0.000159435
0.0180257
0.000165124
0.0178557
0.00017007
0.0176818
0.000173908
0.0175054
0.000176322
0.0173285
0.00017698
0.0171528
0.000175646
0.0169804
0.000172368
0.0168128
0.000167652
0.0166503
0.000162468
0.0164923
0.000157994
0.0163372
0.000155176
0.0161828
0.000154361
0.0160276
0.000155241
0.0158704
0.000157114
0.0157111
0.000159289
0.0155498
0.000161367
0.0153865
0.000163298
0.0152212
0.000165237
0.0150539
0.000167354
0.0148842
0.000169711
0.0147119
0.000172266
0.014537
0.000174935
0.0143593
0.00017765
0.0141789
0.000180388
0.0139958
0.000183157
0.0138098
0.000185973
0.013621
0.000188849
0.0134292
0.000191785
0.0132344
0.00019478
0.0130366
0.000197829
0.0128356
0.000200927
0.0126316
0.000204069
0.0124243
0.00020725
0.0122139
0.000210467
0.0120001
0.000213711
0.0117832
0.000216978
0.0115629
0.000220258
0.0113394
0.000223545
0.0111125
0.000226828
0.0108824
0.000230099
0.0106491
0.000233346
0.0104125
0.000236558
0.0101728
0.000239724
0.00992998
0.000242829
0.00968412
0.00024586
0.00943532
0.000248802
0.00918368
0.000251641
0.00892932
0.000254359
0.00867238
0.000256941
0.00841301
0.000259369
0.00815138
0.000261626
0.00788769
0.000263696
0.00762213
0.000265559
0.00735493
0.000267201
0.00708633
0.000268603
0.00681657
0.000269751
0.00654594
0.00027063
0.00627472
0.000271228
0.00600318
0.000271533
0.00573165
0.000271537
0.00546041
0.000271235
0.00518979
0.000270622
0.00492009
0.000269701
0.00465161
0.000268476
0.00438466
0.000266956
0.0041195
0.000265155
0.00385641
0.000263091
0.00359562
0.000260788
0.00333735
0.000258276
0.00308176
0.000255588
0.00282899
0.000252764
0.00257915
0.000249847
0.00233226
0.000246886
0.00208833
0.00024393
0.0018473
0.000241034
0.00160905
0.00023825
0.00137342
0.000235629
0.00114019
0.000233223
0.000909145
0.00023105
0.000679911
0.000229234
0.00045252
0.000227391
0.000225088
0.000227432
0.000225088
0.0200237
9.30848e-06
0.0200531
2.57098e-05
0.020082
3.67656e-05
0.0201105
4.57662e-05
0.0201384
5.46232e-05
0.0201648
6.33585e-05
0.0201897
7.17904e-05
0.0202127
8.00325e-05
0.0202337
8.82615e-05
0.0202527
9.65649e-05
0.0202694
0.000104972
0.0202839
0.000113503
0.0202959
0.000122183
0.0203055
0.000131025
0.0203125
0.000140024
0.0203167
0.000149156
0.0203177
0.000158375
0.0203152
0.00016762
0.0203085
0.000176808
0.0202966
0.000185787
0.0202786
0.000194305
0.0202536
0.000202054
0.0202204
0.00020881
0.020178
0.000214769
0.0201248
0.00022084
0.0200587
0.000228598
0.019977
0.00023971
0.0198771
0.000255
0.0197578
0.000273707
0.0196195
0.000293502
0.0194653
0.000311377
0.0192996
0.000324942
0.0191276
0.000333375
0.0189534
0.000337518
0.0187794
0.0003392
0.0186065
0.000340286
0.0184342
0.000342003
0.0182617
0.000344775
0.0180881
0.000348469
0.017913
0.000352753
0.0177361
0.000357352
0.0175571
0.000362135
0.017376
0.000367082
0.0171926
0.000372212
0.0170069
0.000377547
0.0168186
0.000383095
0.0166275
0.000388853
0.0164336
0.000394815
0.0162367
0.000400975
0.0160367
0.00040733
0.0158332
0.000413874
0.0156264
0.000420603
0.0154158
0.000427511
0.0152015
0.000434589
0.0149832
0.000441831
0.0147608
0.000449227
0.0145341
0.000456767
0.014303
0.000464438
0.0140674
0.000472228
0.013827
0.000480122
0.0135817
0.000488104
0.0133314
0.000496155
0.013076
0.000504256
0.0128152
0.000512385
0.012549
0.00052052
0.0122774
0.000528634
0.012
0.000536702
0.0117169
0.000544695
0.0114281
0.000552583
0.0111333
0.000560334
0.0108326
0.000567917
0.0105259
0.000575298
0.0102132
0.000582444
0.00989449
0.00058932
0.00956983
0.000595893
0.00923923
0.00060213
0.00890277
0.000608
0.00856053
0.000613473
0.00821263
0.000618524
0.0078592
0.000623128
0.00750041
0.000627267
0.00713644
0.000630926
0.0067675
0.000634098
0.00639381
0.00063678
0.00601562
0.000638977
0.00563319
0.000640702
0.00524681
0.000641974
0.00485675
0.000642823
0.00446331
0.000643284
0.0040668
0.000643401
0.0036675
0.000643224
0.00326573
0.000642808
0.00286177
0.000642212
0.0024559
0.000641492
0.00204842
0.000640707
0.00163959
0.000639876
0.0012297
0.000639126
0.000819045
0.000638047
0.000407792
0.000638686
0.000632879
0.0200007
8.61156e-06
0.0200013
2.50849e-05
0.0199991
3.89856e-05
0.0199938
5.10445e-05
0.0199859
6.25024e-05
0.0199756
7.37285e-05
0.0199627
8.46589e-05
0.0199474
9.53284e-05
0.0199298
0.00010587
0.01991
0.00011638
0.0198881
0.000126898
0.0198641
0.000137443
0.0198383
0.000148032
0.0198106
0.000158675
0.0197813
0.000169365
0.0197504
0.000180076
0.019718
0.000190774
0.0196842
0.000201424
0.019649
0.000211985
0.0196124
0.000222349
0.0195744
0.000232278
0.0195351
0.000241416
0.0194944
0.000249473
0.0194525
0.000256722
0.0194087
0.000264567
0.0193617
0.000275686
0.0193081
0.000293308
0.0192434
0.000319681
0.0191626
0.000354461
0.019062
0.000394121
0.0189404
0.000432983
0.0187999
0.000465474
0.0186449
0.000488325
0.0184809
0.000501509
0.0183125
0.000507586
0.0181427
0.000510075
0.0179728
0.000511921
0.0178029
0.000514744
0.0176324
0.000518938
0.0174609
0.000524221
0.0172881
0.000530172
0.0171137
0.00053651
0.0169377
0.000543132
0.0167599
0.000550041
0.0165801
0.000557263
0.0163984
0.000564815
0.0162146
0.000572697
0.0160285
0.000580904
0.01584
0.00058943
0.0156491
0.00059827
0.0154555
0.000607421
0.0152593
0.000616879
0.0150601
0.000626639
0.014858
0.000636698
0.0146528
0.00064705
0.0144443
0.000657688
0.0142325
0.000668605
0.0140172
0.000679792
0.0137981
0.00069124
0.0135753
0.000702939
0.0133486
0.000714875
0.0131177
0.000727034
0.0128825
0.000739402
0.012643
0.000751962
0.0123988
0.000764693
0.0121498
0.000777576
0.011896
0.000790587
0.0116369
0.000803702
0.0113726
0.000816894
0.0111028
0.000830134
0.0108274
0.000843392
0.010546
0.000856635
0.0102586
0.000869828
0.00996502
0.000882936
0.009665
0.000895921
0.00935838
0.000908745
0.00904501
0.000921367
0.00872474
0.000933748
0.00839741
0.000945847
0.00806292
0.000957623
0.00772115
0.000969037
0.00737203
0.000980049
0.0070155
0.000990623
0.00665156
0.00100072
0.00628022
0.00101031
0.00590156
0.00101937
0.00551567
0.00102786
0.00512273
0.00103577
0.00472294
0.00104307
0.00431658
0.00104976
0.00390398
0.00105583
0.00348552
0.00106126
0.00306167
0.00106607
0.00263291
0.00107025
0.00219981
0.00107381
0.00176298
0.00107671
0.00132305
0.00107905
0.000880697
0.0010804
0.000437014
0.00108237
0.00106989
0.0199998
8.79536e-06
0.0199987
2.62251e-05
0.0199952
4.25003e-05
0.0199886
5.75741e-05
0.0199791
7.2003e-05
0.0199667
8.61479e-05
0.0199513
0.000100059
0.0199329
0.00011375
0.0199115
0.000127298
0.0198871
0.000140786
0.0198597
0.000154262
0.0198294
0.000167747
0.0197962
0.000181258
0.01976
0.000194802
0.019721
0.000208371
0.0196792
0.00022194
0.0196345
0.000235475
0.0195869
0.000248957
0.0195365
0.000262372
0.0194832
0.000275649
0.019427
0.000288551
0.0193677
0.000300667
0.0193055
0.000311686
0.0192402
0.000322054
0.019171
0.000333697
0.0190966
0.000350143
0.0190144
0.000375524
0.0189215
0.000412597
0.0188152
0.000460758
0.0186939
0.000515347
0.018558
0.000568955
0.0184092
0.00061423
0.0182508
0.0006467
0.0180863
0.000666078
0.0179183
0.000675541
0.0177487
0.000679684
0.0175781
0.000682485
0.0174066
0.000686245
0.0172339
0.000691645
0.0170597
0.000698426
0.0168838
0.00070609
0.016706
0.000714279
0.0165263
0.000722854
0.0163445
0.000731807
0.0161606
0.00074117
0.0159745
0.000750959
0.015786
0.000761177
0.0155951
0.000771817
0.0154017
0.000782871
0.0152056
0.000794333
0.0150068
0.000806199
0.0148052
0.000818465
0.0146007
0.000831125
0.0143933
0.000844174
0.0141827
0.000857605
0.013969
0.000871414
0.013752
0.00088559
0.0135317
0.000900127
0.0133079
0.000915014
0.0130806
0.00093024
0.0128497
0.000945795
0.012615
0.000961664
0.0123766
0.000977834
0.0121343
0.000994288
0.011888
0.00101101
0.0116376
0.00102798
0.011383
0.00104518
0.0111241
0.00106259
0.0108608
0.00108018
0.010593
0.00109793
0.0103206
0.00111582
0.0100434
0.00113381
0.00976136
0.00115188
0.0094743
0.00116999
0.00918209
0.00118812
0.0088846
0.00120624
0.00858168
0.00122429
0.00827317
0.00124226
0.00795893
0.00126009
0.00763881
0.00127774
0.00731266
0.00129518
0.00698036
0.00131236
0.00664177
0.00132921
0.00629678
0.0013457
0.00594533
0.00136177
0.00558735
0.00137735
0.00522282
0.00139238
0.00485179
0.0014068
0.00447433
0.00142053
0.00409058
0.00143351
0.00370076
0.00144564
0.00330515
0.00145687
0.00290411
0.00146711
0.00249808
0.00147628
0.00208756
0.00148432
0.00167315
0.00149113
0.00125548
0.00149673
0.000835174
0.0015007
0.000413277
0.00150427
0.00148317
0.0199993
9.50353e-06
0.019997
2.85397e-05
0.0199925
4.70236e-05
0.0199853
6.47737e-05
0.0199753
8.19863e-05
0.0199625
9.89061e-05
0.0199469
0.000115629
0.0199285
0.000132179
0.0199072
0.000148607
0.019883
0.000164975
0.0198559
0.000181335
0.019826
0.000197714
0.0197931
0.00021413
0.0197573
0.000230592
0.0197186
0.000247096
0.0196769
0.000263621
0.0196322
0.000280146
0.0195845
0.000296671
0.0195337
0.000313208
0.0194797
0.000329681
0.0194224
0.000345799
0.019362
0.00036107
0.0192985
0.000375237
0.0192314
0.000389131
0.0191596
0.00040549
0.0190808
0.000428908
0.018992
0.000464352
0.01889
0.000514607
0.0187727
0.000578006
0.0186401
0.000647986
0.0184939
0.000715099
0.0183376
0.000770594
0.0181746
0.00080966
0.0180081
0.000832646
0.0178397
0.000843872
0.0176704
0.000849052
0.0174999
0.000852906
0.0173281
0.000858039
0.0171547
0.000865138
0.0169792
0.000873833
0.0168018
0.000883529
0.0166223
0.000893828
0.0164405
0.000904589
0.0162565
0.000915819
0.0160701
0.000927558
0.0158813
0.000939828
0.0156898
0.00095263
0.0154957
0.000965956
0.0152987
0.000979797
0.0150989
0.000994145
0.0148961
0.001009
0.0146902
0.00102435
0.0144812
0.00104019
0.0142688
0.00105651
0.0140531
0.00107331
0.013834
0.00109058
0.0136113
0.0011083
0.0133849
0.00112648
0.0131548
0.00114508
0.012921
0.00116411
0.0126832
0.00118355
0.0124415
0.00120337
0.0121958
0.00122356
0.011946
0.00124411
0.011692
0.00126499
0.0114338
0.00128618
0.0111713
0.00130765
0.0109045
0.00132938
0.0106334
0.00135134
0.0103578
0.00137351
0.0100778
0.00139585
0.00979324
0.00141833
0.00950419
0.00144093
0.00921059
0.0014636
0.00891239
0.00148632
0.00860957
0.00150906
0.0083021
0.00153176
0.00798996
0.0015544
0.00767311
0.00157694
0.00735153
0.00159932
0.00702519
0.00162152
0.00669407
0.00164347
0.00635815
0.00166513
0.00601742
0.00168644
0.00567186
0.00170732
0.0053215
0.00172772
0.00496634
0.00174754
0.00460645
0.00176669
0.0042419
0.00178509
0.0038728
0.00180261
0.0034993
0.00181914
0.00312161
0.00183456
0.00273998
0.00184874
0.00235472
0.00186154
0.0019662
0.00187284
0.00157482
0.0018825
0.00118106
0.00189049
0.000785362
0.0018964
0.000388417
0.00190121
0.00187159
0.019999
1.0461e-05
0.0199962
3.14255e-05
0.0199911
5.21083e-05
0.0199835
7.23594e-05
0.0199732
9.22287e-05
0.0199603
0.000111853
0.0199446
0.000131318
0.0199261
0.00015066
0.0199048
0.000169913
0.0198807
0.000189123
0.0198537
0.000208334
0.0198238
0.000227576
0.0197911
0.000246868
0.0197554
0.000266223
0.0197169
0.000285636
0.0196754
0.000305092
0.019631
0.000324578
0.0195836
0.000344111
0.019533
0.000363728
0.0194794
0.00038337
0.0194224
0.00040273
0.0193622
0.000421278
0.0192987
0.000438774
0.0192315
0.000456292
0.0191598
0.000477186
0.0190817
0.000507004
0.0189944
0.000551652
0.0188948
0.000614269
0.0187803
0.000692489
0.0186502
0.000778019
0.0185061
0.000859252
0.018351
0.00092573
0.0181886
0.000972009
0.0180223
0.000998936
0.0178542
0.001012
0.0176851
0.00101815
0.017515
0.00102296
0.0173437
0.0010294
0.0171706
0.00103819
0.0169956
0.00104883
0.0168185
0.00106061
0.0166393
0.00107308
0.0164578
0.00108608
0.016274
0.00109965
0.0160877
0.00111382
0.0158989
0.00112863
0.0157074
0.00114409
0.0155132
0.00116018
0.0153161
0.00117689
0.0151161
0.00119421
0.0149129
0.00121215
0.0147066
0.00123069
0.0144969
0.00124984
0.0142838
0.00126957
0.0140673
0.00128989
0.0138471
0.00131078
0.0136231
0.00133222
0.0133954
0.00135422
0.0131637
0.00137675
0.012928
0.0013998
0.0126882
0.00142335
0.0124442
0.00144738
0.0121959
0.00147186
0.0119433
0.00149678
0.0116861
0.0015221
0.0114245
0.00154779
0.0111583
0.00157384
0.0108875
0.00160019
0.010612
0.00162682
0.0103318
0.0016537
0.0100469
0.00168077
0.00975724
0.00170801
0.00946281
0.00173536
0.00916362
0.00176279
0.00885969
0.00179025
0.00855105
0.00181769
0.00823773
0.00184507
0.0079198
0.00187234
0.0075973
0.00189943
0.00727031
0.00192631
0.00693892
0.00195292
0.00660321
0.00197919
0.00626328
0.00200506
0.00591924
0.00203047
0.00557123
0.00205534
0.00521935
0.00207959
0.00486375
0.00210313
0.00450459
0.00212586
0.00414201
0.00214766
0.0037762
0.00216842
0.00340734
0.002188
0.00303564
0.00220626
0.00266133
0.00222305
0.00228466
0.00223821
0.0019059
0.0022516
0.00152534
0.00226305
0.00114331
0.00227252
0.000760114
0.0022796
0.000376137
0.00228519
0.00224772
0.0199989
1.15275e-05
0.0199957
3.46205e-05
0.0199903
5.75717e-05
0.0199824
8.02798e-05
0.0199718
0.000102743
0.0199587
0.000125026
0.0199428
0.000147192
0.0199242
0.000169276
0.0199028
0.000191305
0.0198786
0.000213317
0.0198516
0.000235348
0.0198217
0.000257427
0.019789
0.000279577
0.0197534
0.000301812
0.0197149
0.000324132
0.0196735
0.000346524
0.0196291
0.000368985
0.0195817
0.00039155
0.0195311
0.000414278
0.0194774
0.000437123
0.0194203
0.000459745
0.0193601
0.000481546
0.0192966
0.000502271
0.0192297
0.000523212
0.0191585
0.000548326
0.0190814
0.000584105
0.0189957
0.000637404
0.0188981
0.000711778
0.0187863
0.000804307
0.0186592
0.000905147
0.0185178
0.00100065
0.0183649
0.00107859
0.0182042
0.00113271
0.0180391
0.00116413
0.0178717
0.00117937
0.0177032
0.00118661
0.0175338
0.00119234
0.0173632
0.00120001
0.017191
0.00121042
0.0170169
0.00122297
0.0168407
0.00123682
0.0166623
0.00125145
0.0164817
0.0012667
0.0162987
0.00128259
0.0161134
0.00129918
0.0159255
0.00131653
0.0157349
0.00133463
0.0155416
0.00135347
0.0153455
0.00137304
0.0151464
0.00139334
0.0149442
0.00141436
0.0147388
0.0014361
0.01453
0.00145855
0.0143179
0.0014817
0.0141023
0.00150555
0.013883
0.00153007
0.0136599
0.00155528
0.013433
0.00158113
0.0132021
0.00160763
0.0129672
0.00163476
0.012728
0.00166248
0.0124846
0.00169079
0.0122368
0.00171965
0.0119846
0.00174904
0.0117277
0.00177892
0.0114663
0.00180927
0.0112001
0.00184004
0.0109291
0.00187119
0.0106532
0.00190268
0.0103724
0.00193447
0.0100867
0.0019665
0.00979598
0.00199873
0.00950026
0.00203109
0.00919951
0.00206354
0.00889376
0.002096
0.00858304
0.00212842
0.00826737
0.00216074
0.00794682
0.00219288
0.00762148
0.00222478
0.00729144
0.00225635
0.00695682
0.00228754
0.00661775
0.00231826
0.00627439
0.00234842
0.00592691
0.00237795
0.00557551
0.00240674
0.00522039
0.00243472
0.00486176
0.00246176
0.00449986
0.00248776
0.00413493
0.0025126
0.0037672
0.00253615
0.00339693
0.00255827
0.00302438
0.00257881
0.0026498
0.00259763
0.00227344
0.00261457
0.00189556
0.00262948
0.00151643
0.00264219
0.00113629
0.00265266
0.000755411
0.00266048
0.000374046
0.00266655
0.00262177
0.0199989
1.26538e-05
0.0199955
3.80007e-05
0.0199898
6.32832e-05
0.0199816
8.84372e-05
0.0199709
0.000113448
0.0199576
0.000138346
0.0199416
0.00016317
0.0199229
0.000187952
0.0199015
0.000212718
0.0198774
0.000237496
0.0198504
0.00026232
0.0198206
0.000287216
0.019788
0.000312211
0.0197525
0.000337319
0.019714
0.000362545
0.0196727
0.000387878
0.0196283
0.000413321
0.019581
0.000438925
0.0195305
0.00046477
0.0194768
0.000490817
0.0194198
0.000516698
0.0193596
0.000541749
0.0192962
0.000565702
0.0192294
0.00059005
0.0191584
0.000619312
0.0190816
0.000660878
0.0189965
0.000722529
0.0189
0.000808266
0.0187896
0.000914699
0.0186642
0.00103055
0.0185246
0.00114022
0.0183735
0.00122974
0.0182142
0.00129195
0.0180502
0.00132814
0.0178838
0.00134579
0.0177162
0.00135424
0.0175476
0.00136093
0.0173778
0.00136982
0.0172064
0.00138181
0.0170331
0.00139625
0.0168578
0.00141216
0.0166803
0.00142895
0.0165005
0.00144643
0.0163185
0.00146464
0.016134
0.00148365
0.015947
0.00150352
0.0157574
0.00152425
0.0155651
0.00154583
0.0153698
0.00156825
0.0151717
0.0015915
0.0149705
0.00161559
0.014766
0.00164051
0.0145583
0.00166625
0.0143472
0.0016928
0.0141326
0.00172016
0.0139144
0.00174832
0.0136924
0.00177726
0.0134666
0.00180696
0.0132368
0.00183742
0.0130029
0.00186861
0.0127649
0.00190051
0.0125226
0.0019331
0.0122759
0.00196634
0.0120247
0.00200021
0.011769
0.00203467
0.0115086
0.00206969
0.0112434
0.00210522
0.0109734
0.00214121
0.0106984
0.00217761
0.0104185
0.00221438
0.0101336
0.00225145
0.00984353
0.00228876
0.00954838
0.00232625
0.00924808
0.00236384
0.00894262
0.00240146
0.00863202
0.00243903
0.00831629
0.00247647
0.00799548
0.00251369
0.00766966
0.0025506
0.0073389
0.00258711
0.00700331
0.00262312
0.00666303
0.00265854
0.00631821
0.00269324
0.00596903
0.00272713
0.00561567
0.0027601
0.00525838
0.00279201
0.00489738
0.00282276
0.00453294
0.0028522
0.00416532
0.00288022
0.0037948
0.00290666
0.00342168
0.00293139
0.00304624
0.00295425
0.00266877
0.0029751
0.00228956
0.00299378
0.00190888
0.00301016
0.00152701
0.00302406
0.0011442
0.00303547
0.000760737
0.00304394
0.000376848
0.00305044
0.00299862
0.0199988
1.38162e-05
0.0199953
4.14903e-05
0.0199895
6.91471e-05
0.0199812
9.67488e-05
0.0199703
0.000124283
0.0199569
0.000151764
0.0199409
0.000179217
0.0199222
0.000206666
0.0199007
0.000234136
0.0198766
0.000261652
0.0198497
0.000289242
0.0198199
0.000316935
0.0197874
0.000344757
0.019752
0.000372725
0.0197137
0.000400846
0.0196725
0.000429113
0.0196282
0.000457535
0.019581
0.000486177
0.0195306
0.00051514
0.019477
0.000544391
0.0194202
0.000573527
0.0193602
0.000601812
0.0192969
0.000628953
0.0192303
0.00065663
0.0191597
0.000689918
0.0190835
0.000737111
0.0189991
0.00080693
0.0189035
0.000903845
0.0187942
0.00102402
0.01867
0.00115477
0.0185316
0.00127855
0.0183817
0.00137965
0.0182236
0.00145003
0.0180607
0.0014911
0.0178952
0.00151124
0.0177285
0.00152096
0.0175608
0.00152864
0.0173919
0.00153875
0.0172214
0.00155233
0.017049
0.00156865
0.0168745
0.00158662
0.0166979
0.00160556
0.016519
0.00162528
0.0163379
0.00164581
0.0161543
0.00166724
0.0159681
0.00168963
0.0157794
0.00171299
0.0155879
0.00173731
0.0153936
0.00176257
0.0151963
0.00178878
0.014996
0.00181594
0.0147924
0.00184403
0.0145856
0.00187306
0.0143754
0.00190301
0.0141617
0.00193389
0.0139444
0.00196566
0.0137233
0.00199834
0.0134983
0.00203189
0.0132695
0.00206631
0.0130365
0.00210156
0.0127994
0.00213764
0.012558
0.00217451
0.0123122
0.00221214
0.0120619
0.0022505
0.011807
0.00228954
0.0115475
0.00232924
0.0112832
0.00236953
0.011014
0.00241037
0.0107399
0.00245171
0.0104608
0.00249348
0.0101766
0.00253562
0.00988734
0.00257805
0.00959288
0.0026207
0.00929322
0.00266349
0.00898835
0.00270633
0.00867824
0.00274913
0.00836293
0.00279179
0.00804242
0.0028342
0.00771676
0.00287625
0.00738603
0.00291784
0.00705031
0.00295885
0.0067097
0.00299914
0.00636435
0.0030386
0.0060144
0.00307708
0.00566004
0.00311445
0.00530149
0.00315057
0.00493895
0.00318529
0.0045727
0.00321846
0.00420298
0.00324993
0.0038301
0.00327955
0.00345433
0.00330716
0.00307599
0.0033326
0.00269537
0.00335571
0.0023128
0.00337636
0.00192857
0.00339439
0.00154298
0.00340965
0.00115633
0.00342212
0.00076891
0.00343136
0.000380991
0.00343836
0.00337961
0.0199988
1.49995e-05
0.0199953
4.50434e-05
0.0199893
7.51019e-05
0.0199809
0.000105156
0.01997
0.000135198
0.0199565
0.000165239
0.0199404
0.000195294
0.0199217
0.000225383
0.0199003
0.000255528
0.0198762
0.000285752
0.0198494
0.000316084
0.0198198
0.00034655
0.0197873
0.000377178
0.0197521
0.000407989
0.0197139
0.000438991
0.0196729
0.00047018
0.0196288
0.000501572
0.0195818
0.000533242
0.0195316
0.00056531
0.0194782
0.000597748
0.0194217
0.000630115
0.0193619
0.000661603
0.0192989
0.000691889
0.0192327
0.000722835
0.0191626
0.000760067
0.0190869
0.00081277
0.0190032
0.000890609
0.0189085
0.000998535
0.0188003
0.0011323
0.0186772
0.00127783
0.0185401
0.00141566
0.0183914
0.00152837
0.0182344
0.00160696
0.0180726
0.00165297
0.0179082
0.00167567
0.0177424
0.00168669
0.0175757
0.00169538
0.0174077
0.00170671
0.0172382
0.00172189
0.0170667
0.00174009
0.0168932
0.00176012
0.0167176
0.00178123
0.0165397
0.00180319
0.0163594
0.00182604
0.0161768
0.00184989
0.0159916
0.0018748
0.0158038
0.00190079
0.0156133
0.00192785
0.0154199
0.00195596
0.0152235
0.00198513
0.0150241
0.00201536
0.0148215
0.00204663
0.0146156
0.00207895
0.0144063
0.00211231
0.0141935
0.00214671
0.013977
0.00218212
0.0137568
0.00221854
0.0135328
0.00225596
0.0133047
0.00229435
0.0130726
0.00233369
0.0128363
0.00237396
0.0125957
0.00241513
0.0123506
0.00245717
0.0121011
0.00250004
0.0118469
0.0025437
0.011588
0.00258811
0.0113244
0.00263321
0.0110558
0.00267894
0.0107823
0.00272525
0.0105037
0.00277206
0.01022
0.00281931
0.00993114
0.00286691
0.00963706
0.00291478
0.00933772
0.00296283
0.00903311
0.00301095
0.0087232
0.00305904
0.00840801
0.00310698
0.00808754
0.00315467
0.00776183
0.00320196
0.00743094
0.00324874
0.00709494
0.00329485
0.00675392
0.00334016
0.006408
0.00338451
0.00605733
0.00342775
0.00570206
0.00346972
0.00534238
0.00351025
0.0049785
0.00354917
0.00461066
0.0035863
0.00423911
0.00362149
0.00386411
0.00365454
0.00348597
0.0036853
0.00310498
0.00371359
0.00272145
0.00373924
0.0023357
0.0037621
0.00194806
0.00378203
0.00155886
0.00379885
0.00116841
0.00381257
0.000777048
0.00382272
0.000385069
0.00383034
0.00376468
0.0199988
1.61941e-05
0.0199952
4.86309e-05
0.0199892
8.11059e-05
0.0199808
0.000113613
0.0199698
0.000146153
0.0199563
0.000178732
0.0199402
0.000211365
0.0199216
0.000244068
0.0199002
0.000276861
0.0198762
0.000309768
0.0198495
0.000342814
0.01982
0.00037603
0.0197877
0.000409442
0.0197526
0.000443076
0.0197147
0.000476941
0.0196738
0.000511035
0.01963
0.000545378
0.0195832
0.000580059
0.0195333
0.000615213
0.0194802
0.000650815
0.019424
0.000686387
0.0193645
0.000721044
0.019302
0.000754431
0.0192362
0.000788587
0.0191666
0.000829677
0.0190916
0.000887775
0.0190087
0.000973491
0.018915
0.00109227
0.0188078
0.00123948
0.018686
0.00139969
0.0185501
0.00155153
0.0184026
0.00167584
0.0182469
0.00176269
0.0180862
0.0018137
0.0179228
0.00183899
0.0177582
0.00185135
0.0175925
0.00186106
0.0174256
0.00187363
0.0172571
0.00189039
0.0170867
0.00191047
0.0169142
0.00193256
0.0167396
0.00195584
0.0165628
0.00198004
0.0163836
0.00200521
0.016202
0.00203149
0.0160179
0.00205892
0.0158312
0.00208754
0.0156417
0.00211734
0.0154493
0.0021483
0.015254
0.00218043
0.0150556
0.00221373
0.0148541
0.0022482
0.0146492
0.00228382
0.0144409
0.0023206
0.0142291
0.00235852
0.0140137
0.00239758
0.0137944
0.00243777
0.0135713
0.00247907
0.0133442
0.00252145
0.013113
0.00256491
0.0128775
0.00260941
0.0126378
0.00265492
0.0123935
0.0027014
0.0121447
0.00274883
0.0118913
0.00279715
0.0116331
0.00284632
0.01137
0.00289627
0.011102
0.00294695
0.010829
0.00299829
0.0105508
0.00305022
0.0102675
0.00310265
0.00997888
0.0031555
0.00968499
0.00320867
0.00938576
0.00326206
0.00908116
0.00331555
0.00877117
0.00336902
0.0084558
0.00342236
0.00813504
0.00347542
0.00780894
0.00352806
0.00747753
0.00358014
0.0071409
0.00363149
0.00679911
0.00368195
0.00645228
0.00373134
0.00610055
0.00377949
0.00574405
0.00382622
0.00538297
0.00387133
0.00501751
0.00391463
0.00464788
0.00395593
0.00427434
0.00399504
0.00389713
0.00403175
0.00351655
0.00406588
0.0031329
0.00409724
0.00274649
0.00412566
0.00235764
0.00415095
0.0019667
0.00417297
0.00157401
0.00419154
0.00117992
0.00420666
0.000784778
0.00421786
0.000388923
0.0042262
0.0041536
0.0199988
1.73934e-05
0.0199952
5.22329e-05
0.0199892
8.71293e-05
0.0199807
0.000122086
0.0199697
0.000157111
0.0199563
0.000192211
0.0199402
0.0002274
0.0199216
0.000262692
0.0199004
0.000298107
0.0198765
0.000333669
0.0198499
0.000369404
0.0198206
0.000405343
0.0197885
0.000441516
0.0197536
0.000477949
0.0197159
0.000514655
0.0196753
0.000551632
0.0196318
0.000588904
0.0195853
0.000626573
0.0195357
0.000664787
0.019483
0.000703524
0.0194271
0.000742267
0.0193681
0.000780054
0.019306
0.000816497
0.0192408
0.000853805
0.0191718
0.000898675
0.0190975
0.000962066
0.0190155
0.00105553
0.0189227
0.00118502
0.0188167
0.00134553
0.0186961
0.00152031
0.0185615
0.0016861
0.0184153
0.00182201
0.0182609
0.00191716
0.0181013
0.00197321
0.0179392
0.00200115
0.0177757
0.00201488
0.0176111
0.00202561
0.0174453
0.00203941
0.017278
0.00205775
0.0171087
0.0020797
0.0169375
0.00210385
0.016764
0.00212928
0.0165883
0.00215572
0.0164103
0.00218322
0.0162299
0.00221191
0.0160469
0.00224187
0.0158613
0.00227312
0.015673
0.00230566
0.0154819
0.00233947
0.0152877
0.00237457
0.0150905
0.00241094
0.0148901
0.0024486
0.0146864
0.00248753
0.0144793
0.00252773
0.0142686
0.0025692
0.0140542
0.00261193
0.0138361
0.0026559
0.0136141
0.00270109
0.013388
0.0027475
0.0131578
0.0027951
0.0129234
0.00284385
0.0126846
0.00289374
0.0124413
0.00294471
0.0121934
0.00299674
0.0119407
0.00304977
0.0116833
0.00310376
0.0114209
0.00315863
0.0111535
0.00321434
0.0108811
0.00327079
0.0106034
0.00332791
0.0103204
0.00338562
0.0100321
0.00344381
0.00973837
0.00350238
0.0094392
0.00356122
0.00913455
0.0036202
0.00882438
0.00367919
0.00850869
0.00373805
0.00818749
0.00379662
0.0078608
0.00385476
0.00752865
0.00391228
0.00719112
0.00396902
0.00684828
0.00402479
0.00650024
0.00407938
0.00614711
0.00413262
0.00578905
0.00418428
0.00542622
0.00423415
0.00505883
0.00428202
0.00468708
0.00432768
0.00431121
0.0043709
0.00393149
0.00441147
0.0035482
0.00444917
0.00316164
0.0044838
0.00277213
0.00451516
0.00238001
0.00454307
0.00198563
0.00456736
0.00158934
0.00458782
0.00119153
0.00460448
0.000792564
0.00461683
0.000392802
0.00462596
0.0045464
0.0199988
1.85926e-05
0.0199952
5.58349e-05
0.0199892
9.31497e-05
0.0199807
0.000130548
0.0199698
0.000168043
0.0199563
0.000205646
0.0199404
0.000243368
0.0199218
0.000281224
0.0199007
0.000319236
0.019877
0.000357426
0.0198505
0.000395823
0.0198214
0.000434459
0.0197896
0.000473365
0.019755
0.000512571
0.0197175
0.000552091
0.0196772
0.000591925
0.019634
0.000632101
0.0195879
0.000672728
0.0195387
0.000713972
0.0194864
0.000755811
0.019431
0.000797688
0.0193725
0.000838565
0.019311
0.000878017
0.0192463
0.000918421
0.019178
0.000967
0.0191045
0.00103558
0.0190234
0.00113667
0.0189317
0.00127672
0.0188268
0.00145039
0.0187075
0.00163963
0.0185743
0.00181932
0.0184294
0.00196683
0.0182763
0.0020703
0.0181181
0.00213145
0.0179571
0.00216207
0.0177948
0.00217718
0.0176315
0.00218895
0.0174669
0.00220396
0.0173008
0.00222387
0.0171328
0.00224769
0.0169628
0.00227388
0.0167906
0.00230148
0.0166162
0.00233015
0.0164394
0.00235997
0.0162603
0.00239107
0.0160786
0.00242355
0.0158943
0.00245742
0.0157073
0.0024927
0.0155174
0.00252936
0.0153245
0.00256742
0.0151286
0.00260687
0.0149295
0.00264772
0.014727
0.00268997
0.0145212
0.0027336
0.0143117
0.00277862
0.0140986
0.00282502
0.0138818
0.00287279
0.0136609
0.00292191
0.0134361
0.00297236
0.0132071
0.00302412
0.0129737
0.00307717
0.012736
0.00313146
0.0124938
0.00318697
0.0122468
0.00324365
0.0119952
0.00330145
0.0117386
0.00336032
0.0114771
0.00342018
0.0112104
0.00348098
0.0109386
0.00354263
0.0106614
0.00360504
0.0103789
0.00366812
0.010091
0.00373177
0.00979751
0.00379586
0.00949845
0.00386028
0.00919377
0.00392488
0.00888343
0.00398953
0.00856741
0.00405406
0.00824572
0.00411832
0.00791837
0.00418211
0.00758539
0.00424526
0.00724683
0.00430758
0.00690278
0.00436884
0.00655332
0.00442884
0.00619858
0.00448736
0.0058387
0.00454416
0.00547384
0.004599
0.00510421
0.00465166
0.00473002
0.00470188
0.0043515
0.00474942
0.00396892
0.00479405
0.00358257
0.00483552
0.00319276
0.00487361
0.00279981
0.00490811
0.00240409
0.00493879
0.00200595
0.0049655
0.00160577
0.004988
0.00120394
0.0050063
0.000800879
0.00501989
0.000396947
0.00502989
0.00494335
0.0199988
1.97881e-05
0.0199952
5.94259e-05
0.0199892
9.91498e-05
0.0199808
0.000138978
0.0199699
0.000178926
0.0199565
0.00021901
0.0199407
0.000259242
0.0199222
0.000299638
0.0199013
0.000340218
0.0198777
0.000381009
0.0198515
0.00042204
0.0198226
0.000463344
0.019791
0.000504955
0.0197567
0.000546905
0.0197195
0.00058921
0.0196796
0.000631871
0.0196368
0.000674919
0.019591
0.000718474
0.0195423
0.000762714
0.0194905
0.000807617
0.0194356
0.000852588
0.0193776
0.000896512
0.0193167
0.000938927
0.0192528
0.000982373
0.0191852
0.00103459
0.0191125
0.00110827
0.0190323
0.00121684
0.0189417
0.00136731
0.0188381
0.001554
0.0187201
0.00175759
0.0185884
0.00195111
0.018445
0.00211021
0.0182932
0.00222205
0.0181363
0.00228834
0.0179767
0.00232169
0.0178157
0.0023382
0.0176536
0.00235099
0.0174904
0.0023672
0.0173256
0.00238867
0.017159
0.00241433
0.0169903
0.00244257
0.0168194
0.00247231
0.0166464
0.00250322
0.016471
0.00253535
0.0162932
0.00256886
0.0161129
0.00260384
0.01593
0.00264034
0.0157444
0.00267834
0.0155559
0.00271786
0.0153644
0.00275887
0.0151699
0.0028014
0.0149722
0.00284545
0.0147711
0.00289101
0.0145666
0.00293808
0.0143586
0.00298666
0.0141469
0.00303675
0.0139313
0.00308833
0.0137119
0.00314139
0.0134883
0.0031959
0.0132606
0.00325186