# vtk DataFile Version 2.0
sampleSurface
ASCII
DATASET POLYDATA
POINTS 652 double
0 0 0
0.02 0 0
0.02 0 0.1
0 0 0.1
0.04 0 0
0.04 0 0.1
0.06 0 0
0.06 0 0.1
0.08 0 0
0.08 0 0.1
0.1 0 0
0.1 0 0.1
0.12 0 0
0.12 0 0.1
0.14 0 0
0.14 0 0.1
0.16 0 0
0.16 0 0.1
0.18 0 0
0.18 0 0.1
0.2 0 0
0.2 0 0.1
0.22 0 0
0.22 0 0.1
0.24 0 0
0.24 0 0.1
0.26 0 0
0.26 0 0.1
0.28 0 0
0.28 0 0.1
0.3 0 0
0.3 0 0.1
0.32 0 0
0.32 0 0.1
0.34 0 0
0.34 0 0.1
0.36 0 0
0.36 0 0.1
0.38 0 0
0.38 0 0.1
0.4 0 0
0.4 0 0.1
0.42 0 0
0.42 0 0.1
0.44 0 0
0.44 0 0.1
0.46 0 0
0.46 0 0.1
0.48 0 0
0.48 0 0.1
0.5 0 0
0.5 0 0.1
0.52 0 0
0.52 0 0.1
0.54 0 0
0.54 0 0.1
0.56 0 0
0.56 0 0.1
0.58 0 0
0.58 0 0.1
0.6 0 0
0.6 0 0.1
0.62 0 0
0.62 0 0.1
0.64 0 0
0.64 0 0.1
0.66 0 0
0.66 0 0.1
0.68 0 0
0.68 0 0.1
0.7 0 0
0.7 0 0.1
0.72 0 0
0.72 0 0.1
0.74 0 0
0.74 0 0.1
0.76 0 0
0.76 0 0.1
0.78 0 0
0.78 0 0.1
0.8 0 0
0.8 0 0.1
0.82 0 0
0.82 0 0.1
0.84 0 0
0.84 0 0.1
0.86 0 0
0.86 0 0.1
0.88 0 0
0.88 0 0.1
0.9 0 0
0.9 0 0.1
0.92 0 0
0.92 0 0.1
0.94 0 0
0.94 0 0.1
0.96 0 0
0.96 0 0.1
0.98 0 0
0.98 0 0.1
1 0 0
1 0 0.1
1.02 0 0
1.02 0 0.1
1.04 0 0
1.04 0 0.1
1.06 0 0
1.06 0 0.1
1.08 0 0
1.08 0 0.1
1.1 0 0
1.1 0 0.1
1.12 0 0
1.12 0 0.1
1.14 0 0
1.14 0 0.1
1.16 0 0
1.16 0 0.1
1.18 0 0
1.18 0 0.1
1.2 0 0
1.2 0 0.1
1.22 0 0
1.22 0 0.1
1.24 0 0
1.24 0 0.1
1.26 0 0
1.26 0 0.1
1.28 0 0
1.28 0 0.1
1.3 0 0
1.3 0 0.1
1.32 0 0
1.32 0 0.1
1.34 0 0
1.34 0 0.1
1.36 0 0
1.36 0 0.1
1.38 0 0
1.38 0 0.1
1.4 0 0
1.4 0 0.1
1.42 0 0
1.42 0 0.1
1.44 0 0
1.44 0 0.1
1.46 0 0
1.46 0 0.1
1.48 0 0
1.48 0 0.1
1.5 0 0
1.5 0 0.1
1.52 0 0
1.52 0 0.1
1.54 0 0
1.54 0 0.1
1.56 0 0
1.56 0 0.1
1.58 0 0
1.58 0 0.1
1.6 0 0
1.6 0 0.1
1.62 0 0
1.62 0 0.1
1.64 0 0
1.64 0 0.1
1.66 0 0
1.66 0 0.1
1.68 0 0
1.68 0 0.1
1.7 0 0
1.7 0 0.1
1.72 0 0
1.72 0 0.1
1.74 0 0
1.74 0 0.1
1.76 0 0
1.76 0 0.1
1.78 0 0
1.78 0 0.1
1.8 0 0
1.8 0 0.1
1.82 0 0
1.82 0 0.1
1.84 0 0
1.84 0 0.1
1.86 0 0
1.86 0 0.1
1.88 0 0
1.88 0 0.1
1.9 0 0
1.9 0 0.1
1.92 0 0
1.92 0 0.1
1.94 0 0
1.94 0 0.1
1.96 0 0
1.96 0 0.1
1.98 0 0
1.98 0 0.1
2 0 0
2 0 0.1
2 0.02 0
2 0.02 0.1
2 0.04 0
2 0.04 0.1
2 0.06 0
2 0.06 0.1
2 0.08 0
2 0.08 0.1
2 0.1 0
2 0.1 0.1
2 0.12 0
2 0.12 0.1
2 0.14 0
2 0.14 0.1
2 0.16 0
2 0.16 0.1
2 0.18 0
2 0.18 0.1
2 0.2 0
2 0.2 0.1
2 0.22 0
2 0.22 0.1
2 0.24 0
2 0.24 0.1
2 0.26 0
2 0.26 0.1
2 0.28 0
2 0.28 0.1
2 0.3 0
2 0.3 0.1
2 0.32 0
2 0.32 0.1
2 0.34 0
2 0.34 0.1
2 0.36 0
2 0.36 0.1
2 0.38 0
2 0.38 0.1
2 0.4 0
2 0.4 0.1
2 0.42 0
2 0.42 0.1
2 0.44 0
2 0.44 0.1
2 0.46 0
2 0.46 0.1
2 0.48 0
2 0.48 0.1
2 0.5 0
2 0.5 0.1
2 0.52 0
2 0.52 0.1
2 0.54 0
2 0.54 0.1
2 0.56 0
2 0.56 0.1
2 0.58 0
2 0.58 0.1
2 0.6 0
2 0.6 0.1
2 0.62 0
2 0.62 0.1
2 0.64 0
2 0.64 0.1
2 0.66 0
2 0.66 0.1
2 0.68 0
2 0.68 0.1
2 0.7 0
2 0.7 0.1
2 0.72 0
2 0.72 0.1
2 0.74 0
2 0.74 0.1
2 0.76 0
2 0.76 0.1
2 0.78 0
2 0.78 0.1
2 0.8 0
2 0.8 0.1
2 0.82 0
2 0.82 0.1
2 0.84 0
2 0.84 0.1
2 0.86 0
2 0.86 0.1
2 0.88 0
2 0.88 0.1
2 0.9 0
2 0.9 0.1
2 0.92 0
2 0.92 0.1
2 0.94 0
2 0.94 0.1
2 0.96 0
2 0.96 0.1
2 0.98 0
2 0.98 0.1
2 1 0
2 1 0.1
2.02 1 0
2.02 1 0.1
2.04 1 0
2.04 1 0.1
2.06 1 0
2.06 1 0.1
2.08 1 0
2.08 1 0.1
2.1 1 0
2.1 1 0.1
2.12 1 0
2.12 1 0.1
2.14 1 0
2.14 1 0.1
2.16 1 0
2.16 1 0.1
2.18 1 0
2.18 1 0.1
2.2 1 0
2.2 1 0.1
2.22 1 0
2.22 1 0.1
2.24 1 0
2.24 1 0.1
2.26 1 0
2.26 1 0.1
2.28 1 0
2.28 1 0.1
2.3 1 0
2.3 1 0.1
2.32 1 0
2.32 1 0.1
2.34 1 0
2.34 1 0.1
2.36 1 0
2.36 1 0.1
2.38 1 0
2.38 1 0.1
2.4 1 0
2.4 1 0.1
2.42 1 0
2.42 1 0.1
2.44 1 0
2.44 1 0.1
2.46 1 0
2.46 1 0.1
2.48 1 0
2.48 1 0.1
2.5 1 0
2.5 1 0.1
2.5 0 0
2.5 0 0.1
2.5 0.02 0.1
2.5 0.02 0
2.5 0.04 0.1
2.5 0.04 0
2.5 0.06 0.1
2.5 0.06 0
2.5 0.08 0.1
2.5 0.08 0
2.5 0.1 0.1
2.5 0.1 0
2.5 0.12 0.1
2.5 0.12 0
2.5 0.14 0.1
2.5 0.14 0
2.5 0.16 0.1
2.5 0.16 0
2.5 0.18 0.1
2.5 0.18 0
2.5 0.2 0.1
2.5 0.2 0
2.5 0.22 0.1
2.5 0.22 0
2.5 0.24 0.1
2.5 0.24 0
2.5 0.26 0.1
2.5 0.26 0
2.5 0.28 0.1
2.5 0.28 0
2.5 0.3 0.1
2.5 0.3 0
2.5 0.32 0.1
2.5 0.32 0
2.5 0.34 0.1
2.5 0.34 0
2.5 0.36 0.1
2.5 0.36 0
2.5 0.38 0.1
2.5 0.38 0
2.5 0.4 0.1
2.5 0.4 0
2.5 0.42 0.1
2.5 0.42 0
2.5 0.44 0.1
2.5 0.44 0
2.5 0.46 0.1
2.5 0.46 0
2.5 0.48 0.1
2.5 0.48 0
2.5 0.5 0.1
2.5 0.5 0
2.5 0.52 0.1
2.5 0.52 0
2.5 0.54 0.1
2.5 0.54 0
2.5 0.56 0.1
2.5 0.56 0
2.5 0.58 0.1
2.5 0.58 0
2.5 0.6 0.1
2.5 0.6 0
2.5 0.62 0.1
2.5 0.62 0
2.5 0.64 0.1
2.5 0.64 0
2.5 0.66 0.1
2.5 0.66 0
2.5 0.68 0.1
2.5 0.68 0
2.5 0.7 0.1
2.5 0.7 0
2.5 0.72 0.1
2.5 0.72 0
2.5 0.74 0.1
2.5 0.74 0
2.5 0.76 0.1
2.5 0.76 0
2.5 0.78 0.1
2.5 0.78 0
2.5 0.8 0.1
2.5 0.8 0
2.5 0.82 0.1
2.5 0.82 0
2.5 0.84 0.1
2.5 0.84 0
2.5 0.86 0.1
2.5 0.86 0
2.5 0.88 0.1
2.5 0.88 0
2.5 0.9 0.1
2.5 0.9 0
2.5 0.92 0.1
2.5 0.92 0
2.5 0.94 0.1
2.5 0.94 0
2.5 0.96 0.1
2.5 0.96 0
2.5 0.98 0.1
2.5 0.98 0
2.52 0 0
2.52 0 0.1
2.54 0 0
2.54 0 0.1
2.56 0 0
2.56 0 0.1
2.58 0 0
2.58 0 0.1
2.6 0 0
2.6 0 0.1
2.62 0 0
2.62 0 0.1
2.64 0 0
2.64 0 0.1
2.66 0 0
2.66 0 0.1
2.68 0 0
2.68 0 0.1
2.7 0 0
2.7 0 0.1
2.72 0 0
2.72 0 0.1
2.74 0 0
2.74 0 0.1
2.76 0 0
2.76 0 0.1
2.78 0 0
2.78 0 0.1
2.8 0 0
2.8 0 0.1
2.82 0 0
2.82 0 0.1
2.84 0 0
2.84 0 0.1
2.86 0 0
2.86 0 0.1
2.88 0 0
2.88 0 0.1
2.9 0 0
2.9 0 0.1
2.92 0 0
2.92 0 0.1
2.94 0 0
2.94 0 0.1
2.96 0 0
2.96 0 0.1
2.98 0 0
2.98 0 0.1
3 0 0
3 0 0.1
3.02 0 0
3.02 0 0.1
3.04 0 0
3.04 0 0.1
3.06 0 0
3.06 0 0.1
3.08 0 0
3.08 0 0.1
3.1 0 0
3.1 0 0.1
3.12 0 0
3.12 0 0.1
3.14 0 0
3.14 0 0.1
3.16 0 0
3.16 0 0.1
3.18 0 0
3.18 0 0.1
3.2 0 0
3.2 0 0.1
3.22 0 0
3.22 0 0.1
3.24 0 0
3.24 0 0.1
3.26 0 0
3.26 0 0.1
3.28 0 0
3.28 0 0.1
3.3 0 0
3.3 0 0.1
3.32 0 0
3.32 0 0.1
3.34 0 0
3.34 0 0.1
3.36 0 0
3.36 0 0.1
3.38 0 0
3.38 0 0.1
3.4 0 0
3.4 0 0.1
3.42 0 0
3.42 0 0.1
3.44 0 0
3.44 0 0.1
3.46 0 0
3.46 0 0.1
3.48 0 0
3.48 0 0.1
3.5 0 0
3.5 0 0.1
3.52 0 0
3.52 0 0.1
3.54 0 0
3.54 0 0.1
3.56 0 0
3.56 0 0.1
3.58 0 0
3.58 0 0.1
3.6 0 0
3.6 0 0.1
3.62 0 0
3.62 0 0.1
3.64 0 0
3.64 0 0.1
3.66 0 0
3.66 0 0.1
3.68 0 0
3.68 0 0.1
3.7 0 0
3.7 0 0.1
3.72 0 0
3.72 0 0.1
3.74 0 0
3.74 0 0.1
3.76 0 0
3.76 0 0.1
3.78 0 0
3.78 0 0.1
3.8 0 0
3.8 0 0.1
3.82 0 0
3.82 0 0.1
3.84 0 0
3.84 0 0.1
3.86 0 0
3.86 0 0.1
3.88 0 0
3.88 0 0.1
3.9 0 0
3.9 0 0.1
3.92 0 0
3.92 0 0.1
3.94 0 0
3.94 0 0.1
3.96 0 0
3.96 0 0.1
3.98 0 0
3.98 0 0.1
4 0 0
4 0 0.1
4.02 0 0
4.02 0 0.1
4.04 0 0
4.04 0 0.1
4.06 0 0
4.06 0 0.1
4.08 0 0
4.08 0 0.1
4.1 0 0
4.1 0 0.1
4.12 0 0
4.12 0 0.1
4.14 0 0
4.14 0 0.1
4.16 0 0
4.16 0 0.1
4.18 0 0
4.18 0 0.1
4.2 0 0
4.2 0 0.1
4.22 0 0
4.22 0 0.1
4.24 0 0
4.24 0 0.1
4.26 0 0
4.26 0 0.1
4.28 0 0
4.28 0 0.1
4.3 0 0
4.3 0 0.1
4.32 0 0
4.32 0 0.1
4.34 0 0
4.34 0 0.1
4.36 0 0
4.36 0 0.1
4.38 0 0
4.38 0 0.1
4.4 0 0
4.4 0 0.1
4.42 0 0
4.42 0 0.1
4.44 0 0
4.44 0 0.1
4.46 0 0
4.46 0 0.1
4.48 0 0
4.48 0 0.1
4.5 0 0
4.5 0 0.1

POLYGONS 325 1625
4 0 1 2 3
4 1 4 5 2
4 4 6 7 5
4 6 8 9 7
4 8 10 11 9
4 10 12 13 11
4 12 14 15 13
4 14 16 17 15
4 16 18 19 17
4 18 20 21 19
4 20 22 23 21
4 22 24 25 23
4 24 26 27 25
4 26 28 29 27
4 28 30 31 29
4 30 32 33 31
4 32 34 35 33
4 34 36 37 35
4 36 38 39 37
4 38 40 41 39
4 40 42 43 41
4 42 44 45 43
4 44 46 47 45
4 46 48 49 47
4 48 50 51 49
4 50 52 53 51
4 52 54 55 53
4 54 56 57 55
4 56 58 59 57
4 58 60 61 59
4 60 62 63 61
4 62 64 65 63
4 64 66 67 65
4 66 68 69 67
4 68 70 71 69
4 70 72 73 71
4 72 74 75 73
4 74 76 77 75
4 76 78 79 77
4 78 80 81 79
4 80 82 83 81
4 82 84 85 83
4 84 86 87 85
4 86 88 89 87
4 88 90 91 89
4 90 92 93 91
4 92 94 95 93
4 94 96 97 95
4 96 98 99 97
4 98 100 101 99
4 100 102 103 101
4 102 104 105 103
4 104 106 107 105
4 106 108 109 107
4 108 110 111 109
4 110 112 113 111
4 112 114 115 113
4 114 116 117 115
4 116 118 119 117
4 118 120 121 119
4 120 122 123 121
4 122 124 125 123
4 124 126 127 125
4 126 128 129 127
4 128 130 131 129
4 130 132 133 131
4 132 134 135 133
4 134 136 137 135
4 136 138 139 137
4 138 140 141 139
4 140 142 143 141
4 142 144 145 143
4 144 146 147 145
4 146 148 149 147
4 148 150 151 149
4 150 152 153 151
4 152 154 155 153
4 154 156 157 155
4 156 158 159 157
4 158 160 161 159
4 160 162 163 161
4 162 164 165 163
4 164 166 167 165
4 166 168 169 167
4 168 170 171 169
4 170 172 173 171
4 172 174 175 173
4 174 176 177 175
4 176 178 179 177
4 178 180 181 179
4 180 182 183 181
4 182 184 185 183
4 184 186 187 185
4 186 188 189 187
4 188 190 191 189
4 190 192 193 191
4 192 194 195 193
4 194 196 197 195
4 196 198 199 197
4 198 200 201 199
4 200 202 203 201
4 202 204 205 203
4 204 206 207 205
4 206 208 209 207
4 208 210 211 209
4 210 212 213 211
4 212 214 215 213
4 214 216 217 215
4 216 218 219 217
4 218 220 221 219
4 220 222 223 221
4 222 224 225 223
4 224 226 227 225
4 226 228 229 227
4 228 230 231 229
4 230 232 233 231
4 232 234 235 233
4 234 236 237 235
4 236 238 239 237
4 238 240 241 239
4 240 242 243 241
4 242 244 245 243
4 244 246 247 245
4 246 248 249 247
4 248 250 251 249
4 250 252 253 251
4 252 254 255 253
4 254 256 257 255
4 256 258 259 257
4 258 260 261 259
4 260 262 263 261
4 262 264 265 263
4 264 266 267 265
4 266 268 269 267
4 268 270 271 269
4 270 272 273 271
4 272 274 275 273
4 274 276 277 275
4 276 278 279 277
4 278 280 281 279
4 280 282 283 281
4 282 284 285 283
4 284 286 287 285
4 286 288 289 287
4 288 290 291 289
4 290 292 293 291
4 292 294 295 293
4 294 296 297 295
4 296 298 299 297
4 298 300 301 299
4 300 302 303 301
4 302 304 305 303
4 304 306 307 305
4 306 308 309 307
4 308 310 311 309
4 310 312 313 311
4 312 314 315 313
4 314 316 317 315
4 316 318 319 317
4 318 320 321 319
4 320 322 323 321
4 322 324 325 323
4 324 326 327 325
4 326 328 329 327
4 328 330 331 329
4 330 332 333 331
4 332 334 335 333
4 334 336 337 335
4 336 338 339 337
4 338 340 341 339
4 340 342 343 341
4 342 344 345 343
4 344 346 347 345
4 346 348 349 347
4 348 350 351 349
4 352 353 354 355
4 355 354 356 357
4 357 356 358 359
4 359 358 360 361
4 361 360 362 363
4 363 362 364 365
4 365 364 366 367
4 367 366 368 369
4 369 368 370 371
4 371 370 372 373
4 373 372 374 375
4 375 374 376 377
4 377 376 378 379
4 379 378 380 381
4 381 380 382 383
4 383 382 384 385
4 385 384 386 387
4 387 386 388 389
4 389 388 390 391
4 391 390 392 393
4 393 392 394 395
4 395 394 396 397
4 397 396 398 399
4 399 398 400 401
4 401 400 402 403
4 403 402 404 405
4 405 404 406 407
4 407 406 408 409
4 409 408 410 411
4 411 410 412 413
4 413 412 414 415
4 415 414 416 417
4 417 416 418 419
4 419 418 420 421
4 421 420 422 423
4 423 422 424 425
4 425 424 426 427
4 427 426 428 429
4 429 428 430 431
4 431 430 432 433
4 433 432 434 435
4 435 434 436 437
4 437 436 438 439
4 439 438 440 441
4 441 440 442 443
4 443 442 444 445
4 445 444 446 447
4 447 446 448 449
4 449 448 450 451
4 451 450 351 350
4 352 452 453 353
4 452 454 455 453
4 454 456 457 455
4 456 458 459 457
4 458 460 461 459
4 460 462 463 461
4 462 464 465 463
4 464 466 467 465
4 466 468 469 467
4 468 470 471 469
4 470 472 473 471
4 472 474 475 473
4 474 476 477 475
4 476 478 479 477
4 478 480 481 479
4 480 482 483 481
4 482 484 485 483
4 484 486 487 485
4 486 488 489 487
4 488 490 491 489
4 490 492 493 491
4 492 494 495 493
4 494 496 497 495
4 496 498 499 497
4 498 500 501 499
4 500 502 503 501
4 502 504 505 503
4 504 506 507 505
4 506 508 509 507
4 508 510 511 509
4 510 512 513 511
4 512 514 515 513
4 514 516 517 515
4 516 518 519 517
4 518 520 521 519
4 520 522 523 521
4 522 524 525 523
4 524 526 527 525
4 526 528 529 527
4 528 530 531 529
4 530 532 533 531
4 532 534 535 533
4 534 536 537 535
4 536 538 539 537
4 538 540 541 539
4 540 542 543 541
4 542 544 545 543
4 544 546 547 545
4 546 548 549 547
4 548 550 551 549
4 550 552 553 551
4 552 554 555 553
4 554 556 557 555
4 556 558 559 557
4 558 560 561 559
4 560 562 563 561
4 562 564 565 563
4 564 566 567 565
4 566 568 569 567
4 568 570 571 569
4 570 572 573 571
4 572 574 575 573
4 574 576 577 575
4 576 578 579 577
4 578 580 581 579
4 580 582 583 581
4 582 584 585 583
4 584 586 587 585
4 586 588 589 587
4 588 590 591 589
4 590 592 593 591
4 592 594 595 593
4 594 596 597 595
4 596 598 599 597
4 598 600 601 599
4 600 602 603 601
4 602 604 605 603
4 604 606 607 605
4 606 608 609 607
4 608 610 611 609
4 610 612 613 611
4 612 614 615 613
4 614 616 617 615
4 616 618 619 617
4 618 620 621 619
4 620 622 623 621
4 622 624 625 623
4 624 626 627 625
4 626 628 629 627
4 628 630 631 629
4 630 632 633 631
4 632 634 635 633
4 634 636 637 635
4 636 638 639 637
4 638 640 641 639
4 640 642 643 641
4 642 644 645 643
4 644 646 647 645
4 646 648 649 647
4 648 650 651 649
POINT_DATA 652
FIELD attributes 1
U 3 652 float
2.47408 0.0278875 -0.0377114
1.23754 0.0139405 -0.0188557
1.23754 0.0139405 -0.0188557
2.47408 0.0278875 -0.0377114
0.000990665 -3.37206e-06 0
0.000990665 -3.37206e-06 0
0.000992911 1.04792e-06 0
0.000992911 1.04792e-06 0
0.00099356 1.8771e-06 0
0.00099356 1.8771e-06 0
0.000993196 6.00807e-07 0
0.000993196 6.00807e-07 0
0.000992265 -7.40994e-07 0
0.000992265 -7.40994e-07 0
0.00099043 -1.11599e-06 0
0.00099043 -1.11599e-06 0
0.000987777 -6.10743e-07 0
0.000987777 -6.10743e-07 0
0.000985059 2.60287e-07 0
0.000985059 2.60287e-07 0
0.000983237 9.94166e-07 0
0.000983237 9.94166e-07 0
0.000982555 1.31503e-06 0
0.000982555 1.31503e-06 0
0.000982148 1.3296e-06 0
0.000982148 1.3296e-06 0
0.000980738 1.29804e-06 0
0.000980738 1.29804e-06 0
0.000977746 1.25192e-06 0
0.000977746 1.25192e-06 0
0.000973777 9.598e-07 0
0.000973777 9.598e-07 0
0.000969992 3.30391e-07 0
0.000969992 3.30391e-07 0
0.00096702 -2.91468e-07 0
0.00096702 -2.91468e-07 0
0.000964512 -4.16184e-07 0
0.000964512 -4.16184e-07 0
0.000961687 4.59871e-08 0
0.000961687 4.59871e-08 0
0.000958198 6.8839e-07 0
0.000958198 6.8839e-07 0
0.000954421 1.08434e-06 0
0.000954421 1.08434e-06 0
0.000950939 1.30334e-06 0
0.000950939 1.30334e-06 0
0.000947869 1.85451e-06 0
0.000947869 1.85451e-06 0
0.000944711 3.03765e-06 0
0.000944711 3.03765e-06 0
0.00094085 4.42512e-06 0
0.00094085 4.42512e-06 0
0.000936173 5.11929e-06 0
0.000936173 5.11929e-06 0
0.000931189 4.61681e-06 0
0.000931189 4.61681e-06 0
0.000926484 3.44237e-06 0
0.000926484 3.44237e-06 0
0.00092209 2.8299e-06 0
0.00092209 2.8299e-06 0
0.000917384 3.64216e-06 0
0.000917384 3.64216e-06 0
0.000911647 5.54194e-06 0
0.000911647 5.54194e-06 0
0.000904785 7.20001e-06 0
0.000904785 7.20001e-06 0
0.000897506 7.3445e-06 0
0.000897506 7.3445e-06 0
0.000890762 5.80037e-06 0
0.000890762 5.80037e-06 0
0.000884977 3.69803e-06 0
0.000884977 3.69803e-06 0
0.000879654 2.67416e-06 0
0.000879654 2.67416e-06 0
0.000873599 3.65991e-06 0
0.000873599 3.65991e-06 0
0.000865671 6.07561e-06 0
0.000865671 6.07561e-06 0
0.000855617 8.07862e-06 0
0.000855617 8.07862e-06 0
0.000844393 7.91296e-06 0
0.000844393 7.91296e-06 0
0.000833589 5.42285e-06 0
0.000833589 5.42285e-06 0
0.00082437 2.37764e-06 0
0.00082437 2.37764e-06 0
0.000816735 1.08857e-06 0
0.000816735 1.08857e-06 0
0.00080963 2.47957e-06 0
0.00080963 2.47957e-06 0
0.000801797 5.41908e-06 0
0.000801797 5.41908e-06 0
0.000792659 7.86092e-06 0
0.000792659 7.86092e-06 0
0.000782491 8.6096e-06 0
0.000782491 8.6096e-06 0
0.000771862 8.00776e-06 0
0.000771862 8.00776e-06 0
0.000761066 7.1914e-06 0
0.000761066 7.1914e-06 0
0.000749983 7.04099e-06 0
0.000749983 7.04099e-06 0
0.000738241 7.78225e-06 0
0.000738241 7.78225e-06 0
0.000725419 9.10599e-06 0
0.000725419 9.10599e-06 0
0.000711295 1.03452e-05 0
0.000711295 1.03452e-05 0
0.000696118 1.0764e-05 0
0.000696118 1.0764e-05 0
0.000680582 1.00893e-05 0
0.000680582 1.00893e-05 0
0.000665333 8.79515e-06 0
0.000665333 8.79515e-06 0
0.000650457 7.62481e-06 0
0.000650457 7.62481e-06 0
0.000635555 6.88111e-06 0
0.000635555 6.88111e-06 0
0.000620271 6.5382e-06 0
0.000620271 6.5382e-06 0
0.000604458 7.01129e-06 0
0.000604458 7.01129e-06 0
0.000587682 9.09106e-06 0
0.000587682 9.09106e-06 0
0.000569004 1.2569e-05 0
0.000569004 1.2569e-05 0
0.000547776 1.55844e-05 0
0.000547776 1.55844e-05 0
0.000524497 1.65577e-05 0
0.000524497 1.65577e-05 0
0.000500068 1.66455e-05 0
0.000500068 1.66455e-05 0
0.000474001 1.87576e-05 0
0.000474001 1.87576e-05 0
0.000444268 2.35749e-05 0
0.000444268 2.35749e-05 0
0.000409662 2.78921e-05 0
0.000409662 2.78921e-05 0
0.000371821 2.79745e-05 0
0.000371821 2.79745e-05 0
0.0003343 2.35696e-05 0
0.0003343 2.35696e-05 0
0.00029992 1.75509e-05 0
0.00029992 1.75509e-05 0
0.000269485 1.27925e-05 0
0.000269485 1.27925e-05 0
0.000242423 1.03404e-05 0
0.000242423 1.03404e-05 0
0.000217729 9.67392e-06 0
0.000217729 9.67392e-06 0
0.000194458 9.79729e-06 0
0.000194458 9.79729e-06 0
0.000171924 1.0011e-05 0
0.000171924 1.0011e-05 0
0.00014974 1.00224e-05 0
0.00014974 1.00224e-05 0
0.000127784 9.76315e-06 0
0.000127784 9.76315e-06 0
0.000106117 9.25895e-06 0
0.000106117 9.25895e-06 0
8.49134e-05 8.547e-06 0
8.49134e-05 8.547e-06 0
6.44109e-05 7.64828e-06 0
6.44109e-05 7.64828e-06 0
4.48747e-05 6.57332e-06 0
4.48747e-05 6.57332e-06 0
2.65713e-05 5.33401e-06 0
2.65713e-05 5.33401e-06 0
9.75346e-06 3.9614e-06 0
9.75346e-06 3.9614e-06 0
-5.35897e-06 2.50041e-06 0
-5.35897e-06 2.50041e-06 0
-1.85844e-05 9.9674e-07 0
-1.85844e-05 9.9674e-07 0
-2.97718e-05 -5.0567e-07 0
-2.97718e-05 -5.0567e-07 0
-3.8818e-05 -1.97039e-06 0
-3.8818e-05 -1.97039e-06 0
-4.5677e-05 -3.36813e-06 0
-4.5677e-05 -3.36813e-06 0
-5.03464e-05 -4.67721e-06 0
-5.03464e-05 -4.67721e-06 0
-5.28626e-05 -5.88685e-06 0
-5.28626e-05 -5.88685e-06 0
-5.32818e-05 -6.99418e-06 0
-5.32818e-05 -6.99418e-06 0
-5.1676e-05 -7.98176e-06 0
-5.1676e-05 -7.98176e-06 0
-4.81848e-05 -8.81621e-06 0
-4.81848e-05 -8.81621e-06 0
-4.30018e-05 -9.47974e-06 0
-4.30018e-05 -9.47974e-06 0
-3.634e-05 -9.9805e-06 0
-3.634e-05 -9.9805e-06 0
-2.84492e-05 -1.03538e-05 0
-2.84492e-05 -1.03538e-05 0
-1.95489e-05 -1.0662e-05 0
-1.95489e-05 -1.0662e-05 0
-9.93255e-06 -1.07788e-05 0
-9.93255e-06 -1.07788e-05 0
-4.99755e-06 -1.07489e-05 0
-4.99755e-06 -1.07489e-05 0
1.90494e-07 -9.97981e-06 0
1.90494e-07 -9.97981e-06 0
8.90926e-06 1.04901e-06 0
8.90926e-06 1.04901e-06 0
1.40771e-05 2.61244e-05 0
1.40771e-05 2.61244e-05 0
1.61415e-05 5.75043e-05 0
1.61415e-05 5.75043e-05 0
1.62931e-05 9.04612e-05 0
1.62931e-05 9.04612e-05 0
1.54411e-05 0.000122322 0
1.54411e-05 0.000122322 0
1.42276e-05 0.000151969 0
1.42276e-05 0.000151969 0
1.30207e-05 0.000179106 0
1.30207e-05 0.000179106 0
1.20047e-05 0.000204027 0
1.20047e-05 0.000204027 0
1.12462e-05 0.000227227 0
1.12462e-05 0.000227227 0
1.07472e-05 0.000249218 0
1.07472e-05 0.000249218 0
1.04755e-05 0.000270466 0
1.04755e-05 0.000270466 0
1.03856e-05 0.000291378 0
1.03856e-05 0.000291378 0
1.04326e-05 0.000312277 0
1.04326e-05 0.000312277 0
1.05767e-05 0.000333386 0
1.05767e-05 0.000333386 0
1.07862e-05 0.00035486 0
1.07862e-05 0.00035486 0
1.10379e-05 0.000376798 0
1.10379e-05 0.000376798 0
1.13161e-05 0.000399265 0
1.13161e-05 0.000399265 0
1.1611e-05 0.000422303 0
1.1611e-05 0.000422303 0
1.19176e-05 0.000445938 0
1.19176e-05 0.000445938 0
1.22339e-05 0.000470189 0
1.22339e-05 0.000470189 0
1.25609e-05 0.000495077 0
1.25609e-05 0.000495077 0
1.29003e-05 0.000520624 0
1.29003e-05 0.000520624 0
1.32563e-05 0.000546861 0
1.32563e-05 0.000546861 0
1.36319e-05 0.000573822 0
1.36319e-05 0.000573822 0
1.40336e-05 0.000601556 0
1.40336e-05 0.000601556 0
1.44638e-05 0.000630113 0
1.44638e-05 0.000630113 0
1.49332e-05 0.000659568 0
1.49332e-05 0.000659568 0
1.54404e-05 0.000689986 0
1.54404e-05 0.000689986 0
1.60058e-05 0.000721482 0
1.60058e-05 0.000721482 0
1.66163e-05 0.000754129 0
1.66163e-05 0.000754129 0
1.73209e-05 0.000788109 0
1.73209e-05 0.000788109 0
1.80614e-05 0.000823487 0
1.80614e-05 0.000823487 0
1.89745e-05 0.000860562 0
1.89745e-05 0.000860562 0
1.98839e-05 0.00089936 0
1.98839e-05 0.00089936 0
2.11135e-05 0.000940406 0
2.11135e-05 0.000940406 0
2.22322e-05 0.000983585 0
2.22322e-05 0.000983585 0
2.40035e-05 0.00102989 0
2.40035e-05 0.00102989 0
2.53478e-05 0.00107886 0
2.53478e-05 0.00107886 0
2.81123e-05 0.00113241 0
2.81123e-05 0.00113241 0
2.96315e-05 0.00118934 0
2.96315e-05 0.00118934 0
3.44323e-05 0.00125347 0
3.44323e-05 0.00125347 0
3.58894e-05 0.00132207 0
3.58894e-05 0.00132207 0
4.52039e-05 0.0014029 0
4.52039e-05 0.0014029 0
4.64458e-05 0.00149114 0
4.64458e-05 0.00149114 0
6.75785e-05 0.00160178 0
6.75785e-05 0.00160178 0
7.10108e-05 0.00173129 0
7.10108e-05 0.00173129 0
0.000130428 0.00190625 0
0.000130428 0.00190625 0
0.000158657 0.00214055 0
0.000158657 0.00214055 0
0.000164939 0.00132493 0
0.000164939 0.00132493 0
-0.000258641 -4.8821e-05 0
-0.000258641 -4.8821e-05 0
-0.000138904 -0.000526788 0
-0.000138904 -0.000526788 0
0.00020977 -0.000248532 0
0.00020977 -0.000248532 0
-0.000237153 0.000241346 0
-0.000237153 0.000241346 0
-0.000875 0.000421828 0
-0.000875 0.000421828 0
-0.00160441 0.000378642 0
-0.00160441 0.000378642 0
-0.00214022 0.000285919 0
-0.00214022 0.000285919 0
-0.00255573 0.000204016 0
-0.00255573 0.000204016 0
-0.00283056 0.000133456 0
-0.00283056 0.000133456 0
-0.0030072 7.57798e-05 0
-0.0030072 7.57798e-05 0
-0.00308875 2.78219e-05 0
-0.00308875 2.78219e-05 0
-0.00309297 -1.18923e-05 0
-0.00309297 -1.18923e-05 0
-0.0030264 -4.62812e-05 0
-0.0030264 -4.62812e-05 0
-0.00289658 -7.87052e-05 0
-0.00289658 -7.87052e-05 0
-0.0027005 -0.000110239 0
-0.0027005 -0.000110239 0
-0.00244064 -0.00014056 0
-0.00244064 -0.00014056 0
-0.00211857 -0.000167674 0
-0.00211857 -0.000167674 0
-0.0017446 -0.000188516 0
-0.0017446 -0.000188516 0
-0.0013368 -0.000200966 0
-0.0013368 -0.000200966 0
-0.0009189 -0.000203848 0
-0.0009189 -0.000203848 0
-0.00051199 -0.000194707 0
-0.00051199 -0.000194707 0
-0.00014971 -0.000163512 0
-0.00014971 -0.000163512 0
0.000134323 -9.84053e-05 0
0.000134323 -9.84053e-05 0
0.000336652 -7.69107e-05 0
0.000336652 -7.69107e-05 0
0.000264898 -3.27351e-05 0
0.000264898 -3.27351e-05 0
-6.40191e-06 3.95008e-06 0
-6.40191e-06 3.95008e-06 0
-8.12322e-06 1.25201e-05 0
-8.12322e-06 1.25201e-05 0
-9.84313e-06 3.15226e-05 0
-9.84313e-06 3.15226e-05 0
-9.54586e-06 5.09012e-05 0
-9.54586e-06 5.09012e-05 0
-9.01948e-06 6.86807e-05 0
-9.01948e-06 6.86807e-05 0
-8.63255e-06 8.58597e-05 0
-8.63255e-06 8.58597e-05 0
-8.35451e-06 0.000102311 0
-8.35451e-06 0.000102311 0
-8.11581e-06 0.00011831 0
-8.11581e-06 0.00011831 0
-7.87031e-06 0.000133857 0
-7.87031e-06 0.000133857 0
-7.59572e-06 0.000148896 0
-7.59572e-06 0.000148896 0
-7.28352e-06 0.000163357 0
-7.28352e-06 0.000163357 0
-6.93108e-06 0.000177162 0
-6.93108e-06 0.000177162 0
-6.53815e-06 0.000190229 0
-6.53815e-06 0.000190229 0
-6.10508e-06 0.000202478 0
-6.10508e-06 0.000202478 0
-5.63232e-06 0.000213829 0
-5.63232e-06 0.000213829 0
-5.12066e-06 0.000224204 0
-5.12066e-06 0.000224204 0
-4.57219e-06 0.000233527 0
-4.57219e-06 0.000233527 0
-3.98969e-06 0.000241727 0
-3.98969e-06 0.000241727 0
-3.37607e-06 0.000248734 0
-3.37607e-06 0.000248734 0
-2.7349e-06 0.000254488 0
-2.7349e-06 0.000254488 0
-2.06881e-06 0.000258928 0
-2.06881e-06 0.000258928 0
-1.38068e-06 0.000262014 0
-1.38068e-06 0.000262014 0
-6.65214e-07 0.000263694 0
-6.65214e-07 0.000263694 0
8.29588e-08 0.000263954 0
8.29588e-08 0.000263954 0
8.56884e-07 0.0002627 0
8.56884e-07 0.0002627 0
1.64129e-06 0.000260001 0
1.64129e-06 0.000260001 0
2.42688e-06 0.000255736 0
2.42688e-06 0.000255736 0
3.18461e-06 0.00025011 0
3.18461e-06 0.00025011 0
3.92872e-06 0.000242901 0
3.92872e-06 0.000242901 0
4.65752e-06 0.00023453 0
4.65752e-06 0.00023453 0
5.39583e-06 0.00022455 0
5.39583e-06 0.00022455 0
6.09628e-06 0.000213617 0
6.09628e-06 0.000213617 0
6.81342e-06 0.000201124 0
6.81342e-06 0.000201124 0
7.43572e-06 0.000187834 0
7.43572e-06 0.000187834 0
8.12416e-06 0.000173178 0
8.12416e-06 0.000173178 0
8.66914e-06 0.000157707 0
8.66914e-06 0.000157707 0
9.05863e-06 0.000141436 0
9.05863e-06 0.000141436 0
9.81385e-06 0.000124205 0
9.81385e-06 0.000124205 0
9.26089e-06 0.000106112 0
9.26089e-06 0.000106112 0
1.03796e-05 8.85383e-05 0
1.03796e-05 8.85383e-05 0
1.13436e-05 6.96822e-05 0
1.13436e-05 6.96822e-05 0
8.49619e-06 4.6052e-05 0
8.49619e-06 4.6052e-05 0
9.4533e-06 3.68135e-05 0
9.4533e-06 3.68135e-05 0
1.53777e-05 8.41931e-06 0
1.53777e-05 8.41931e-06 0
6.67807e-06 -6.99389e-06 0
6.67807e-06 -6.99389e-06 0
-1.22205e-06 -2.03671e-05 0
-1.22205e-06 -2.03671e-05 0
2.64945e-06 -3.07594e-05 0
2.64945e-06 -3.07594e-05 0
-1.74124e-05 -3.27391e-05 0
-1.74124e-05 -3.27391e-05 0
-4.06196e-05 2.02153e-06 0
-4.06196e-05 2.02153e-06 0
3.3246e-05 4.46993e-05 0
3.3246e-05 4.46993e-05 0
-1.24392e-05 3.9991e-06 0
-1.24392e-05 3.9991e-06 0
-2.49673e-05 4.24213e-06 0
-2.49673e-05 4.24213e-06 0
-3.81197e-05 4.67452e-06 0
-3.81197e-05 4.67452e-06 0
-5.18379e-05 5.20918e-06 0
-5.18379e-05 5.20918e-06 0
-6.63859e-05 5.84376e-06 0
-6.63859e-05 5.84376e-06 0
-8.18176e-05 6.5386e-06 0
-8.18176e-05 6.5386e-06 0
-9.8192e-05 7.25559e-06 0
-9.8192e-05 7.25559e-06 0
-0.000115522 7.96599e-06 0
-0.000115522 7.96599e-06 0
-0.000133785 8.65015e-06 0
-0.000133785 8.65015e-06 0
-0.000152958 9.30317e-06 0
-0.000152958 9.30317e-06 0
-0.000173011 9.9301e-06 0
-0.000173011 9.9301e-06 0
-0.00019393 1.05399e-05 0
-0.00019393 1.05399e-05 0
-0.000215699 1.11385e-05 0
-0.000215699 1.11385e-05 0
-0.000238306 1.1725e-05 0
-0.000238306 1.1725e-05 0
-0.000261724 1.2292e-05 0
-0.000261724 1.2292e-05 0
-0.000285911 1.28262e-05 0
-0.000285911 1.28262e-05 0
-0.000310804 1.33092e-05 0
-0.000310804 1.33092e-05 0
-0.000336318 1.37206e-05 0
-0.000336318 1.37206e-05 0
-0.000362338 1.40453e-05 0
-0.000362338 1.40453e-05 0
-0.000388711 1.42719e-05 0
-0.000388711 1.42719e-05 0
-0.000415247 1.43841e-05 0
-0.000415247 1.43841e-05 0
-0.000441724 1.43599e-05 0
-0.000441724 1.43599e-05 0
-0.000467894 1.41769e-05 0
-0.000467894 1.41769e-05 0
-0.000493471 1.38145e-05 0
-0.000493471 1.38145e-05 0
-0.00051814 1.32557e-05 0
-0.00051814 1.32557e-05 0
-0.000541558 1.24877e-05 0
-0.000541558 1.24877e-05 0
-0.000563359 1.15024e-05 0
-0.000563359 1.15024e-05 0
-0.000583164 1.02974e-05 0
-0.000583164 1.02974e-05 0
-0.000600584 8.8766e-06 0
-0.000600584 8.8766e-06 0
-0.00061524 7.2507e-06 0
-0.00061524 7.2507e-06 0
-0.000626776 5.44213e-06 0
-0.000626776 5.44213e-06 0
-0.000634874 3.4985e-06 0
-0.000634874 3.4985e-06 0
-0.000639282 1.47709e-06 0
-0.000639282 1.47709e-06 0
-0.000639799 -5.64605e-07 0
-0.000639799 -5.64605e-07 0
-0.000636421 -2.56051e-06 0
-0.000636421 -2.56051e-06 0
-0.000629191 -4.50242e-06 0
-0.000629191 -4.50242e-06 0
-0.000618093 -6.40408e-06 0
-0.000618093 -6.40408e-06 0
-0.000603235 -8.24045e-06 0
-0.000603235 -8.24045e-06 0
-0.000584773 -9.98391e-06 0
-0.000584773 -9.98391e-06 0
-0.000562928 -1.16066e-05 0
-0.000562928 -1.16066e-05 0
-0.00053797 -1.30847e-05 0
-0.00053797 -1.30847e-05 0
-0.000510213 -1.44001e-05 0
-0.000510213 -1.44001e-05 0
-0.000479999 -1.55406e-05 0
-0.000479999 -1.55406e-05 0
-0.000447688 -1.65002e-05 0
-0.000447688 -1.65002e-05 0
-0.000413647 -1.72783e-05 0
-0.000413647 -1.72783e-05 0
-0.000378238 -1.78789e-05 0
-0.000378238 -1.78789e-05 0
-0.000341808 -1.83103e-05 0
-0.000341808 -1.83103e-05 0
-0.00030469 -1.85837e-05 0
-0.00030469 -1.85837e-05 0
-0.000267193 -1.87125e-05 0
-0.000267193 -1.87125e-05 0
-0.00022959 -1.87109e-05 0
-0.00022959 -1.87109e-05 0
-0.000192112 -1.85959e-05 0
-0.000192112 -1.85959e-05 0
-0.000154959 -1.8382e-05 0
-0.000154959 -1.8382e-05 0
-0.000118313 -1.80849e-05 0
-0.000118313 -1.80849e-05 0
-8.23255e-05 -1.77209e-05 0
-8.23255e-05 -1.77209e-05 0
-4.71085e-05 -1.73031e-05 0
-4.71085e-05 -1.73031e-05 0
-1.27908e-05 -1.68449e-05 0
-1.27908e-05 -1.68449e-05 0
2.05287e-05 -1.63581e-05 0
2.05287e-05 -1.63581e-05 0
5.2846e-05 -1.58529e-05 0
5.2846e-05 -1.58529e-05 0
8.41507e-05 -1.53374e-05 0
8.41507e-05 -1.53374e-05 0
0.000114418 -1.48187e-05 0
0.000114418 -1.48187e-05 0
0.000143649 -1.43028e-05 0
0.000143649 -1.43028e-05 0
0.000171855 -1.37946e-05 0
0.000171855 -1.37946e-05 0
0.000199055 -1.32977e-05 0
0.000199055 -1.32977e-05 0
0.000225275 -1.2815e-05 0
0.000225275 -1.2815e-05 0
0.000250545 -1.23484e-05 0
0.000250545 -1.23484e-05 0
0.000274899 -1.18993e-05 0
0.000274899 -1.18993e-05 0
0.000298373 -1.14684e-05 0
0.000298373 -1.14684e-05 0
0.000321004 -1.1056e-05 0
0.000321004 -1.1056e-05 0
0.000342829 -1.06622e-05 0
0.000342829 -1.06622e-05 0
0.000363884 -1.02867e-05 0
0.000363884 -1.02867e-05 0
0.000384207 -9.92907e-06 0
0.000384207 -9.92907e-06 0
0.000403832 -9.58887e-06 0
0.000403832 -9.58887e-06 0
0.000422793 -9.2655e-06 0
0.000422793 -9.2655e-06 0
0.000441123 -8.95834e-06 0
0.000441123 -8.95834e-06 0
0.000458855 -8.66679e-06 0
0.000458855 -8.66679e-06 0
0.000476018 -8.39024e-06 0
0.000476018 -8.39024e-06 0
0.000492642 -8.12809e-06 0
0.000492642 -8.12809e-06 0
0.000508755 -7.87977e-06 0
0.000508755 -7.87977e-06 0
0.000524384 -7.64475e-06 0
0.000524384 -7.64475e-06 0
0.000539556 -7.42252e-06 0
0.000539556 -7.42252e-06 0
0.000554296 -7.21263e-06 0
0.000554296 -7.21263e-06 0
0.000568626 -7.01467e-06 0
0.000568626 -7.01467e-06 0
0.000582574 -6.82823e-06 0
0.000582574 -6.82823e-06 0
0.000596155 -6.65296e-06 0
0.000596155 -6.65296e-06 0
0.000609403 -6.48843e-06 0
0.000609403 -6.48843e-06 0
0.00062232 -6.33437e-06 0
0.00062232 -6.33437e-06 0
0.000634956 -6.19034e-06 0
0.000634956 -6.19034e-06 0
0.000647287 -6.05621e-06 0
0.000647287 -6.05621e-06 0
0.000659398 -5.93148e-06 0
0.000659398 -5.93148e-06 0
0.000671206 -5.81625e-06 0
0.000671206 -5.81625e-06 0
0.000682887 -5.70983e-06 0
0.000682887 -5.70983e-06 0
0.000694219 -5.61277e-06 0
0.000694219 -5.61277e-06 0
0.000705582 -5.52386e-06 0
0.000705582 -5.52386e-06 0
0.000716446 -5.44456e-06 0
0.000716446 -5.44456e-06 0
0.000727655 -5.37254e-06 0
0.000727655 -5.37254e-06 0
0.000737979 -5.31099e-06 0
0.000737979 -5.31099e-06 0
0.000749301 -5.25515e-06 0
0.000749301 -5.25515e-06 0
0.000758848 -5.21182e-06 0
0.000758848 -5.21182e-06 0
0.976063 -0.00643379 0
0.976063 -0.00643379 0
1.95136 -0.0128624 0
1.95136 -0.0128624 0
