/*--------------------------------*- C++ -*----------------------------------*\
| =========                 |                                                 |
| \\      /  F ield         | OpenFOAM: The Open Source CFD Toolbox           |
|  \\    /   O peration     | Version:  4.1                                   |
|   \\  /    A nd           | Web:      www.OpenFOAM.org                      |
|    \\/     M anipulation  |                                                 |
\*---------------------------------------------------------------------------*/
FoamFile
{
    version     2.0;
    format      ascii;
    class       volScalarField;
    location    "0.11";
    object      p;
}
// * * * * * * * * * * * * * * * * * * * * * * * * * * * * * * * * * * * * * //

dimensions      [0 2 -2 0 0 0 0];

internalField   nonuniform List<scalar> 
43750
(
0.000384027
0.00010662
0.000154683
0.000162666
0.000159754
0.000158353
0.000157397
0.00015657
0.000155871
0.000155276
0.000154767
0.000154332
0.000153961
0.000153646
0.000153383
0.000153166
0.000152992
0.000152858
0.000152761
0.0001527
0.000152672
0.000152676
0.000152711
0.000152775
0.000152868
0.00015299
0.000153138
0.000153313
0.000153515
0.000153742
0.000153994
0.000154271
0.000154573
0.000154899
0.000155249
0.000155623
0.000156021
0.000156442
0.000156887
0.000157354
0.000157845
0.000158358
0.000158895
0.000159453
0.000160034
0.000160638
0.000161263
0.00016191
0.000162579
0.000163269
0.000163979
0.000164711
0.000165463
0.000166235
0.000167027
0.000167838
0.000168667
0.000169514
0.000170379
0.000171261
0.000172158
0.000173071
0.000173998
0.000174938
0.000175891
0.000176855
0.000177829
0.000178811
0.000179801
0.000180797
0.000181797
0.000182801
0.000183805
0.000184808
0.000185809
0.000186805
0.000187794
0.000188775
0.000189745
0.000190702
0.000191643
0.000192567
0.00019347
0.000194351
0.000195207
0.000196036
0.000196836
0.000197603
0.000198337
0.000199034
0.000199694
0.000200312
0.000200889
0.000201422
0.000201909
0.00020235
0.000202741
0.000203083
0.000203372
0.000203577
0.000378309
0.00010466
0.000153676
0.000162163
0.000159451
0.000158156
0.00015726
0.000156471
0.000155797
0.000155219
0.000154723
0.000154297
0.000153933
0.000153624
0.000153366
0.000153153
0.000152982
0.00015285
0.000152756
0.000152696
0.00015267
0.000152675
0.000152712
0.000152777
0.000152872
0.000152994
0.000153143
0.000153319
0.000153522
0.000153749
0.000154002
0.00015428
0.000154583
0.000154909
0.00015526
0.000155635
0.000156034
0.000156455
0.000156901
0.000157369
0.000157861
0.000158375
0.000158912
0.000159471
0.000160053
0.000160657
0.000161284
0.000161932
0.000162601
0.000163292
0.000164004
0.000164737
0.000165491
0.000166264
0.000167057
0.000167869
0.0001687
0.000169549
0.000170416
0.000171299
0.000172198
0.000173113
0.000174042
0.000174984
0.000175939
0.000176905
0.000177882
0.000178867
0.00017986
0.000180858
0.000181861
0.000182867
0.000183874
0.000184881
0.000185885
0.000186884
0.000187877
0.000188861
0.000189834
0.000190794
0.000191739
0.000192666
0.000193573
0.000194457
0.000195317
0.000196149
0.000196952
0.000197722
0.000198459
0.000199159
0.000199821
0.000200442
0.000201021
0.000201556
0.000202045
0.000202487
0.000202881
0.000203226
0.000203522
0.000203728
0.00037526
0.00010268
0.000152484
0.000161386
0.000158922
0.000157783
0.000156985
0.000156262
0.000155632
0.000155087
0.000154615
0.000154207
0.000153858
0.00015356
0.000153311
0.000153105
0.00015294
0.000152814
0.000152724
0.000152668
0.000152645
0.000152653
0.000152692
0.00015276
0.000152856
0.00015298
0.000153131
0.000153309
0.000153512
0.000153741
0.000153996
0.000154275
0.000154578
0.000154906
0.000155258
0.000155634
0.000156033
0.000156456
0.000156902
0.000157371
0.000157864
0.000158379
0.000158917
0.000159477
0.00016006
0.000160665
0.000161293
0.000161942
0.000162613
0.000163305
0.000164018
0.000164752
0.000165507
0.000166282
0.000167076
0.00016789
0.000168723
0.000169573
0.000170442
0.000171327
0.000172228
0.000173145
0.000174076
0.000175021
0.000175978
0.000176947
0.000177926
0.000178914
0.00017991
0.000180911
0.000181918
0.000182927
0.000183937
0.000184947
0.000185955
0.000186958
0.000187954
0.000188942
0.000189919
0.000190883
0.000191832
0.000192763
0.000193673
0.000194562
0.000195425
0.000196261
0.000197067
0.000197842
0.000198582
0.000199285
0.00019995
0.000200574
0.000201156
0.000201693
0.000202185
0.000202629
0.000203025
0.000203372
0.000203669
0.000203868
0.000373099
0.000100978
0.000151272
0.000160495
0.000158261
0.000157281
0.000156596
0.000155952
0.000155381
0.000154878
0.000154438
0.000154056
0.000153726
0.000153444
0.000153207
0.000153012
0.000152856
0.000152736
0.000152652
0.000152602
0.000152583
0.000152596
0.000152638
0.000152708
0.000152807
0.000152934
0.000153087
0.000153266
0.000153471
0.000153702
0.000153957
0.000154238
0.000154542
0.000154871
0.000155224
0.0001556
0.000156001
0.000156424
0.000156871
0.000157341
0.000157834
0.00015835
0.000158889
0.00015945
0.000160034
0.00016064
0.000161268
0.000161918
0.000162589
0.000163282
0.000163996
0.000164732
0.000165487
0.000166263
0.000167059
0.000167874
0.000168708
0.00016956
0.00017043
0.000171317
0.00017222
0.000173139
0.000174072
0.000175019
0.000175979
0.00017695
0.000177931
0.000178922
0.000179921
0.000180925
0.000181935
0.000182947
0.000183961
0.000184975
0.000185986
0.000186993
0.000187994
0.000188986
0.000189967
0.000190936
0.000191889
0.000192824
0.00019374
0.000194632
0.0001955
0.000196341
0.000197151
0.00019793
0.000198674
0.000199382
0.00020005
0.000200678
0.000201263
0.000201804
0.000202298
0.000202745
0.000203143
0.000203491
0.000203789
0.000203988
0.000371442
9.95306e-05
0.000150128
0.000159583
0.000157535
0.000156701
0.000156126
0.000155565
0.000155057
0.000154603
0.0001542
0.000153848
0.000153541
0.000153279
0.000153057
0.000152875
0.00015273
0.00015262
0.000152543
0.000152499
0.000152486
0.000152503
0.000152549
0.000152624
0.000152726
0.000152855
0.00015301
0.000153192
0.000153399
0.000153631
0.000153888
0.000154169
0.000154475
0.000154805
0.000155159
0.000155536
0.000155937
0.000156361
0.000156809
0.000157279
0.000157773
0.000158289
0.000158828
0.00015939
0.000159974
0.00016058
0.000161208
0.000161859
0.000162531
0.000163224
0.000163939
0.000164675
0.000165431
0.000166208
0.000167005
0.000167821
0.000168656
0.000169509
0.00017038
0.000171268
0.000172173
0.000173093
0.000174029
0.000174978
0.00017594
0.000176913
0.000177897
0.000178891
0.000179892
0.0001809
0.000181913
0.000182929
0.000183947
0.000184965
0.00018598
0.000186991
0.000187996
0.000188993
0.000189979
0.000190953
0.000191911
0.000192851
0.000193772
0.00019467
0.000195543
0.000196389
0.000197204
0.000197988
0.000198737
0.000199449
0.000200122
0.000200754
0.000201344
0.000201888
0.000202385
0.000202835
0.000203236
0.000203586
0.000203886
0.000204084
0.000370092
9.82815e-05
0.000149074
0.000158691
0.000156789
0.000156078
0.000155603
0.000155121
0.000154675
0.000154271
0.000153909
0.000153589
0.000153309
0.000153068
0.000152864
0.000152697
0.000152564
0.000152464
0.000152397
0.000152361
0.000152354
0.000152377
0.000152428
0.000152506
0.000152612
0.000152744
0.000152902
0.000153086
0.000153295
0.000153529
0.000153787
0.00015407
0.000154377
0.000154708
0.000155062
0.00015544
0.000155842
0.000156266
0.000156714
0.000157185
0.000157679
0.000158195
0.000158734
0.000159296
0.00015988
0.000160487
0.000161115
0.000161766
0.000162438
0.000163132
0.000163847
0.000164583
0.000165339
0.000166117
0.000166914
0.00016773
0.000168566
0.00016942
0.000170292
0.000171182
0.000172088
0.00017301
0.000173946
0.000174897
0.000175861
0.000176837
0.000177824
0.00017882
0.000179824
0.000180835
0.000181852
0.000182872
0.000183893
0.000184915
0.000185935
0.000186951
0.000187961
0.000188963
0.000189955
0.000190933
0.000191897
0.000192843
0.00019377
0.000194673
0.000195552
0.000196404
0.000197226
0.000198015
0.00019877
0.000199487
0.000200166
0.000200803
0.000201396
0.000201945
0.000202446
0.0002029
0.000203303
0.000203656
0.000203957
0.000204157
0.000368942
9.71814e-05
0.000148106
0.000157837
0.000156046
0.000155435
0.000155045
0.000154635
0.000154249
0.000153894
0.000153573
0.000153286
0.000153033
0.000152815
0.000152631
0.00015248
0.000152361
0.000152273
0.000152215
0.000152187
0.000152188
0.000152217
0.000152273
0.000152357
0.000152466
0.000152602
0.000152763
0.000152949
0.000153161
0.000153396
0.000153656
0.00015394
0.000154248
0.00015458
0.000154935
0.000155313
0.000155715
0.00015614
0.000156588
0.000157059
0.000157553
0.000158069
0.000158608
0.00015917
0.000159754
0.00016036
0.000160988
0.000161638
0.00016231
0.000163004
0.000163719
0.000164455
0.000165211
0.000165989
0.000166786
0.000167603
0.000168439
0.000169293
0.000170166
0.000171056
0.000171964
0.000172887
0.000173825
0.000174777
0.000175743
0.000176721
0.00017771
0.000178709
0.000179717
0.000180731
0.000181751
0.000182775
0.000183801
0.000184827
0.000185851
0.000186872
0.000187888
0.000188895
0.000189892
0.000190877
0.000191847
0.0001928
0.000193733
0.000194643
0.000195529
0.000196387
0.000197215
0.000198011
0.000198772
0.000199496
0.00020018
0.000200823
0.000201422
0.000201975
0.000202481
0.000202938
0.000203345
0.000203701
0.000204004
0.000204206
0.000367928
9.61923e-05
0.000147212
0.000157024
0.000155316
0.000154784
0.000154467
0.00015412
0.000153789
0.000153481
0.000153198
0.000152944
0.000152719
0.000152525
0.000152361
0.000152227
0.000152122
0.000152046
0.000152
0.000151981
0.000151989
0.000152025
0.000152087
0.000152176
0.00015229
0.000152429
0.000152593
0.000152782
0.000152995
0.000153233
0.000153495
0.00015378
0.000154089
0.000154421
0.000154777
0.000155156
0.000155558
0.000155983
0.000156431
0.000156901
0.000157395
0.000157911
0.000158449
0.00015901
0.000159594
0.000160199
0.000160827
0.000161477
0.000162148
0.000162841
0.000163555
0.000164291
0.000165047
0.000165824
0.000166621
0.000167438
0.000168274
0.000169129
0.000170002
0.000170893
0.0001718
0.000172724
0.000173664
0.000174618
0.000175586
0.000176566
0.000177557
0.000178558
0.000179569
0.000180586
0.00018161
0.000182638
0.000183668
0.000184699
0.000185728
0.000186755
0.000187776
0.000188789
0.000189793
0.000190784
0.000191761
0.00019272
0.00019366
0.000194578
0.000195471
0.000196336
0.000197172
0.000197975
0.000198743
0.000199474
0.000200165
0.000200814
0.000201419
0.000201978
0.000202489
0.00020295
0.000203361
0.00020372
0.000204027
0.00020423
0.000367011
9.52864e-05
0.000146377
0.000156248
0.000154603
0.000154135
0.000153878
0.000153586
0.000153303
0.000153037
0.000152791
0.000152569
0.000152372
0.000152201
0.000152056
0.00015194
0.00015185
0.000151787
0.000151751
0.000151742
0.000151759
0.000151802
0.00015187
0.000151964
0.000152082
0.000152225
0.000152393
0.000152585
0.0001528
0.00015304
0.000153303
0.000153589
0.000153899
0.000154232
0.000154588
0.000154967
0.000155369
0.000155794
0.000156242
0.000156712
0.000157205
0.00015772
0.000158258
0.000158818
0.0001594
0.000160005
0.000160632
0.00016128
0.000161951
0.000162643
0.000163356
0.000164091
0.000164846
0.000165622
0.000166419
0.000167235
0.000168071
0.000168926
0.000169799
0.00017069
0.000171598
0.000172523
0.000173463
0.000174418
0.000175387
0.000176369
0.000177363
0.000178367
0.00017938
0.000180401
0.000181428
0.00018246
0.000183495
0.00018453
0.000185565
0.000186597
0.000187624
0.000188644
0.000189654
0.000190653
0.000191637
0.000192604
0.000193551
0.000194477
0.000195378
0.000196252
0.000197095
0.000197906
0.000198682
0.000199421
0.000200119
0.000200775
0.000201387
0.000201952
0.000202469
0.000202936
0.000203351
0.000203714
0.000204023
0.000204229
0.000366165
9.44431e-05
0.00014559
0.000155505
0.000153908
0.000153491
0.000153283
0.000153037
0.000152797
0.000152569
0.000152357
0.000152165
0.000151993
0.000151845
0.000151721
0.000151621
0.000151546
0.000151497
0.000151472
0.000151472
0.000151498
0.000151548
0.000151623
0.000151722
0.000151845
0.000151992
0.000152163
0.000152357
0.000152575
0.000152817
0.000153081
0.000153369
0.000153679
0.000154013
0.000154369
0.000154748
0.00015515
0.000155575
0.000156021
0.000156491
0.000156983
0.000157497
0.000158034
0.000158593
0.000159174
0.000159777
0.000160403
0.00016105
0.000161719
0.00016241
0.000163122
0.000163855
0.000164609
0.000165384
0.00016618
0.000166995
0.00016783
0.000168684
0.000169557
0.000170448
0.000171356
0.000172281
0.000173222
0.000174178
0.000175149
0.000176132
0.000177128
0.000178134
0.00017915
0.000180174
0.000181205
0.000182241
0.00018328
0.000184321
0.000185361
0.000186399
0.000187433
0.000188459
0.000189477
0.000190483
0.000191474
0.00019245
0.000193406
0.00019434
0.00019525
0.000196132
0.000196985
0.000197805
0.00019859
0.000199337
0.000200043
0.000200707
0.000201326
0.000201898
0.000202422
0.000202894
0.000203315
0.000203682
0.000203994
0.000204202
0.000365371
9.36476e-05
0.00014484
0.000154788
0.000153228
0.000152852
0.000152685
0.000152479
0.000152276
0.000152082
0.000151901
0.000151735
0.000151589
0.000151462
0.000151357
0.000151274
0.000151214
0.000151177
0.000151163
0.000151173
0.000151207
0.000151265
0.000151346
0.00015145
0.000151578
0.000151729
0.000151904
0.000152101
0.000152321
0.000152564
0.00015283
0.000153119
0.00015343
0.000153764
0.00015412
0.000154499
0.000154901
0.000155324
0.00015577
0.000156239
0.000156729
0.000157242
0.000157778
0.000158335
0.000158915
0.000159516
0.00016014
0.000160785
0.000161452
0.000162141
0.000162852
0.000163583
0.000164336
0.000165109
0.000165903
0.000166717
0.000167551
0.000168404
0.000169276
0.000170166
0.000171075
0.000172
0.000172941
0.000173898
0.000174869
0.000175854
0.000176851
0.00017786
0.000178879
0.000179906
0.00018094
0.00018198
0.000183024
0.00018407
0.000185116
0.00018616
0.0001872
0.000188234
0.000189259
0.000190273
0.000191273
0.000192257
0.000193223
0.000194166
0.000195085
0.000195978
0.00019684
0.000197669
0.000198464
0.00019922
0.000199935
0.000200608
0.000201235
0.000201815
0.000202345
0.000202824
0.00020325
0.000203622
0.000203939
0.000204149
0.000364616
9.28884e-05
0.00014412
0.000154094
0.000152563
0.00015222
0.000152086
0.000151913
0.000151742
0.000151578
0.000151424
0.000151284
0.00015116
0.000151053
0.000150966
0.000150899
0.000150853
0.000150829
0.000150827
0.000150846
0.000150889
0.000150954
0.000151041
0.000151151
0.000151283
0.000151438
0.000151616
0.000151816
0.000152039
0.000152283
0.000152551
0.00015284
0.000153152
0.000153486
0.000153842
0.00015422
0.000154621
0.000155044
0.000155488
0.000155955
0.000156445
0.000156956
0.000157489
0.000158045
0.000158622
0.000159222
0.000159843
0.000160486
0.000161151
0.000161838
0.000162546
0.000163275
0.000164026
0.000164797
0.000165589
0.000166401
0.000167234
0.000168085
0.000168956
0.000169845
0.000170753
0.000171677
0.000172619
0.000173576
0.000174548
0.000175534
0.000176533
0.000177543
0.000178564
0.000179595
0.000180633
0.000181677
0.000182725
0.000183776
0.000184828
0.000185879
0.000186926
0.000187967
0.000189
0.000190023
0.000191032
0.000192025
0.000193
0.000193954
0.000194883
0.000195786
0.000196659
0.000197499
0.000198303
0.00019907
0.000199795
0.000200477
0.000201113
0.000201702
0.000202239
0.000202725
0.000203158
0.000203535
0.000203856
0.000204068
0.000363892
9.21569e-05
0.000143422
0.000153416
0.000151909
0.000151592
0.000151487
0.000151342
0.000151197
0.000151059
0.00015093
0.000150813
0.000150709
0.000150622
0.000150552
0.0001505
0.000150467
0.000150455
0.000150463
0.000150493
0.000150543
0.000150615
0.000150709
0.000150824
0.000150961
0.00015112
0.000151301
0.000151503
0.000151728
0.000151974
0.000152242
0.000152532
0.000152844
0.000153178
0.000153534
0.000153912
0.000154311
0.000154733
0.000155176
0.000155641
0.000156129
0.000156638
0.000157169
0.000157722
0.000158297
0.000158894
0.000159513
0.000160153
0.000160816
0.000161499
0.000162205
0.000162931
0.000163679
0.000164448
0.000165238
0.000166047
0.000166878
0.000167727
0.000168596
0.000169484
0.00017039
0.000171314
0.000172255
0.000173212
0.000174184
0.000175171
0.000176171
0.000177183
0.000178207
0.00017924
0.000180281
0.00018133
0.000182383
0.000183439
0.000184497
0.000185554
0.000186608
0.000187657
0.000188699
0.00018973
0.000190749
0.000191752
0.000192738
0.000193702
0.000194643
0.000195556
0.00019644
0.000197292
0.000198107
0.000198885
0.000199621
0.000200313
0.000200959
0.000201557
0.000202103
0.000202597
0.000203036
0.000203418
0.000203744
0.00020396
0.000363189
9.14464e-05
0.000142742
0.000152752
0.000151263
0.000150968
0.000150886
0.000150765
0.000150644
0.000150529
0.000150421
0.000150324
0.00015024
0.000150169
0.000150115
0.000150077
0.000150057
0.000150057
0.000150075
0.000150113
0.000150171
0.00015025
0.00015035
0.00015047
0.000150612
0.000150774
0.000150958
0.000151163
0.000151389
0.000151637
0.000151906
0.000152196
0.000152508
0.000152842
0.000153197
0.000153574
0.000153972
0.000154392
0.000154833
0.000155297
0.000155782
0.000156288
0.000156817
0.000157367
0.000157939
0.000158533
0.000159149
0.000159786
0.000160445
0.000161126
0.000161828
0.000162551
0.000163296
0.000164062
0.000164848
0.000165655
0.000166483
0.00016733
0.000168197
0.000169083
0.000169987
0.00017091
0.00017185
0.000172806
0.000173778
0.000174765
0.000175766
0.00017678
0.000177805
0.000178841
0.000179886
0.000180938
0.000181996
0.000183057
0.000184121
0.000185185
0.000186247
0.000187304
0.000188354
0.000189395
0.000190423
0.000191437
0.000192434
0.00019341
0.000194362
0.000195287
0.000196184
0.000197047
0.000197875
0.000198664
0.000199412
0.000200115
0.000200772
0.000201379
0.000201935
0.000202437
0.000202883
0.000203272
0.000203604
0.000203823
0.000362504
9.07516e-05
0.000142074
0.000152098
0.000150624
0.000150347
0.000150284
0.000150183
0.000150082
0.000149987
0.000149898
0.000149819
0.000149752
0.000149697
0.000149657
0.000149633
0.000149625
0.000149635
0.000149662
0.000149709
0.000149775
0.00014986
0.000149966
0.000150091
0.000150236
0.000150402
0.000150589
0.000150796
0.000151024
0.000151273
0.000151542
0.000151833
0.000152145
0.000152477
0.000152832
0.000153207
0.000153603
0.000154021
0.000154461
0.000154922
0.000155404
0.000155908
0.000156433
0.00015698
0.000157549
0.000158139
0.000158751
0.000159385
0.00016004
0.000160717
0.000161415
0.000162135
0.000162876
0.000163638
0.000164421
0.000165225
0.000166049
0.000166893
0.000167757
0.000168641
0.000169543
0.000170464
0.000171402
0.000172357
0.000173329
0.000174316
0.000175317
0.000176332
0.000177359
0.000178397
0.000179445
0.000180501
0.000181563
0.00018263
0.0001837
0.00018477
0.000185839
0.000186905
0.000187964
0.000189014
0.000190054
0.000191079
0.000192087
0.000193074
0.000194039
0.000194978
0.000195887
0.000196763
0.000197604
0.000198406
0.000199166
0.000199882
0.00020055
0.000201168
0.000201734
0.000202245
0.000202699
0.000203095
0.000203432
0.000203655
0.000361831
9.00684e-05
0.000141416
0.00015145
0.000149988
0.000149727
0.00014968
0.000149596
0.000149513
0.000149434
0.000149363
0.0001493
0.000149247
0.000149207
0.00014918
0.000149167
0.000149171
0.00014919
0.000149227
0.000149282
0.000149355
0.000149446
0.000149557
0.000149686
0.000149836
0.000150005
0.000150194
0.000150403
0.000150632
0.000150882
0.000151152
0.000151442
0.000151753
0.000152085
0.000152438
0.000152811
0.000153206
0.000153622
0.000154058
0.000154516
0.000154996
0.000155496
0.000156018
0.000156562
0.000157126
0.000157713
0.000158321
0.00015895
0.000159601
0.000160274
0.000160968
0.000161683
0.00016242
0.000163177
0.000163956
0.000164756
0.000165576
0.000166417
0.000167277
0.000168158
0.000169057
0.000169975
0.000170911
0.000171865
0.000172835
0.000173822
0.000174823
0.000175839
0.000176867
0.000177907
0.000178957
0.000180017
0.000181083
0.000182155
0.000183231
0.000184308
0.000185385
0.000186459
0.000187527
0.000188588
0.000189638
0.000190674
0.000191694
0.000192695
0.000193673
0.000194625
0.000195548
0.000196438
0.000197293
0.000198108
0.000198882
0.000199611
0.000200291
0.000200921
0.000201498
0.000202018
0.000202482
0.000202885
0.000203229
0.000203456
0.000361166
8.93934e-05
0.000140763
0.000150807
0.000149355
0.000149106
0.000149073
0.000149003
0.000148935
0.000148872
0.000148815
0.000148766
0.000148727
0.000148699
0.000148684
0.000148683
0.000148696
0.000148725
0.00014877
0.000148832
0.000148911
0.000149008
0.000149124
0.000149258
0.000149411
0.000149582
0.000149773
0.000149984
0.000150214
0.000150464
0.000150734
0.000151024
0.000151335
0.000151665
0.000152016
0.000152388
0.00015278
0.000153193
0.000153627
0.000154082
0.000154557
0.000155054
0.000155572
0.000156111
0.000156672
0.000157254
0.000157857
0.000158482
0.000159128
0.000159795
0.000160484
0.000161195
0.000161926
0.000162679
0.000163453
0.000164248
0.000165064
0.0001659
0.000166757
0.000167633
0.000168529
0.000169444
0.000170378
0.000171329
0.000172298
0.000173283
0.000174284
0.000175299
0.000176328
0.00017737
0.000178422
0.000179485
0.000180555
0.000181632
0.000182713
0.000183797
0.000184882
0.000185964
0.000187042
0.000188113
0.000189174
0.000190223
0.000191255
0.000192269
0.000193261
0.000194227
0.000195165
0.00019607
0.000196939
0.00019777
0.000198558
0.0001993
0.000199994
0.000200637
0.000201225
0.000201756
0.000202229
0.000202641
0.000202991
0.000203223
0.000360507
8.87237e-05
0.000140114
0.000150166
0.000148722
0.000148484
0.000148462
0.000148405
0.00014835
0.000148299
0.000148255
0.000148219
0.000148192
0.000148176
0.000148172
0.00014818
0.000148203
0.00014824
0.000148292
0.000148361
0.000148446
0.000148548
0.000148668
0.000148806
0.000148962
0.000149136
0.000149329
0.000149541
0.000149771
0.000150022
0.000150291
0.000150581
0.00015089
0.000151219
0.000151568
0.000151937
0.000152326
0.000152736
0.000153166
0.000153617
0.000154089
0.000154582
0.000155095
0.00015563
0.000156185
0.000156762
0.00015736
0.000157979
0.00015862
0.000159282
0.000159966
0.00016067
0.000161396
0.000162144
0.000162912
0.000163702
0.000164512
0.000165344
0.000166195
0.000167067
0.000167959
0.00016887
0.0001698
0.000170748
0.000171714
0.000172698
0.000173697
0.000174712
0.000175741
0.000176784
0.000177838
0.000178903
0.000179977
0.000181059
0.000182145
0.000183236
0.000184328
0.000185419
0.000186506
0.000187588
0.000188661
0.000189721
0.000190767
0.000191795
0.000192801
0.000193783
0.000194736
0.000195656
0.000196541
0.000197388
0.000198191
0.000198948
0.000199657
0.000200313
0.000200913
0.000201457
0.00020194
0.000202361
0.000202718
0.000202955
0.000359851
8.80572e-05
0.000139467
0.000149526
0.000148089
0.000147859
0.000147848
0.000147801
0.000147757
0.000147718
0.000147685
0.00014766
0.000147643
0.000147637
0.000147642
0.00014766
0.00014769
0.000147735
0.000147794
0.000147869
0.00014796
0.000148066
0.00014819
0.000148331
0.000148489
0.000148666
0.00014886
0.000149073
0.000149304
0.000149554
0.000149823
0.000150111
0.000150419
0.000150746
0.000151092
0.000151458
0.000151845
0.000152251
0.000152677
0.000153124
0.000153591
0.000154079
0.000154588
0.000155117
0.000155667
0.000156238
0.000156831
0.000157444
0.000158078
0.000158734
0.000159411
0.00016011
0.00016083
0.000161571
0.000162333
0.000163117
0.000163921
0.000164746
0.000165592
0.000166459
0.000167346
0.000168252
0.000169178
0.000170122
0.000171085
0.000172066
0.000173063
0.000174077
0.000175106
0.000176148
0.000177204
0.000178271
0.000179348
0.000180434
0.000181526
0.000182622
0.000183722
0.000184821
0.000185918
0.00018701
0.000188095
0.000189168
0.000190228
0.00019127
0.000192291
0.000193288
0.000194257
0.000195195
0.000196097
0.000196959
0.000197779
0.000198553
0.000199276
0.000199947
0.000200561
0.000201116
0.000201611
0.000202041
0.000202407
0.000202649
0.000359197
8.73919e-05
0.00013882
0.000148885
0.000147453
0.000147231
0.000147228
0.000147191
0.000147156
0.000147127
0.000147103
0.000147088
0.000147081
0.000147084
0.000147097
0.000147123
0.000147161
0.000147212
0.000147277
0.000147357
0.000147453
0.000147564
0.000147691
0.000147834
0.000147995
0.000148173
0.000148368
0.000148581
0.000148812
0.000149062
0.00014933
0.000149616
0.000149922
0.000150246
0.00015059
0.000150953
0.000151336
0.000151738
0.00015216
0.000152602
0.000153065
0.000153547
0.00015405
0.000154574
0.000155118
0.000155683
0.000156268
0.000156875
0.000157503
0.000158152
0.000158822
0.000159514
0.000160226
0.00016096
0.000161716
0.000162492
0.00016329
0.000164109
0.000164948
0.000165808
0.000166689
0.00016759
0.000168511
0.000169451
0.000170409
0.000171386
0.000172381
0.000173393
0.00017442
0.000175462
0.000176518
0.000177587
0.000178666
0.000179755
0.000180852
0.000181954
0.000183061
0.000184168
0.000185275
0.000186378
0.000187474
0.00018856
0.000189634
0.000190691
0.000191728
0.000192742
0.000193728
0.000194682
0.000195602
0.000196482
0.000197319
0.00019811
0.00019885
0.000199536
0.000200165
0.000200733
0.000201239
0.000201681
0.000202055
0.000202303
0.000358543
8.67264e-05
0.000138172
0.000148241
0.000146815
0.000146599
0.000146603
0.000146574
0.000146547
0.000146526
0.000146511
0.000146504
0.000146505
0.000146516
0.000146537
0.00014657
0.000146614
0.000146671
0.000146742
0.000146827
0.000146926
0.00014704
0.00014717
0.000147316
0.000147479
0.000147658
0.000147854
0.000148067
0.000148298
0.000148546
0.000148813
0.000149097
0.0001494
0.000149722
0.000150062
0.000150422
0.0001508
0.000151198
0.000151615
0.000152052
0.000152509
0.000152986
0.000153483
0.000154
0.000154537
0.000155095
0.000155674
0.000156274
0.000156894
0.000157535
0.000158198
0.000158882
0.000159587
0.000160313
0.00016106
0.000161829
0.000162619
0.00016343
0.000164262
0.000165115
0.000165989
0.000166883
0.000167798
0.000168732
0.000169686
0.000170659
0.000171649
0.000172658
0.000173683
0.000174724
0.000175779
0.000176848
0.00017793
0.000179021
0.000180122
0.00018123
0.000182343
0.000183459
0.000184574
0.000185688
0.000186796
0.000187895
0.000188983
0.000190055
0.000191109
0.000192139
0.000193143
0.000194116
0.000195054
0.000195953
0.000196808
0.000197617
0.000198374
0.000199077
0.000199721
0.000200304
0.000200823
0.000201276
0.00020166
0.000201914
0.000357887
8.60593e-05
0.00013752
0.000147595
0.000146172
0.000145962
0.000145972
0.000145949
0.00014593
0.000145916
0.000145909
0.000145909
0.000145917
0.000145935
0.000145962
0.000146001
0.000146051
0.000146113
0.000146189
0.000146278
0.00014638
0.000146498
0.00014663
0.000146778
0.000146942
0.000147121
0.000147317
0.00014753
0.00014776
0.000148007
0.000148271
0.000148554
0.000148854
0.000149172
0.000149509
0.000149864
0.000150238
0.000150631
0.000151043
0.000151475
0.000151925
0.000152396
0.000152886
0.000153396
0.000153926
0.000154477
0.000155048
0.00015564
0.000156252
0.000156885
0.000157539
0.000158214
0.00015891
0.000159628
0.000160366
0.000161126
0.000161908
0.00016271
0.000163534
0.000164379
0.000165245
0.000166132
0.000167039
0.000167967
0.000168914
0.000169881
0.000170867
0.000171871
0.000172893
0.000173932
0.000174986
0.000176054
0.000177137
0.00017823
0.000179334
0.000180447
0.000181566
0.000182689
0.000183814
0.000184937
0.000186057
0.000187169
0.000188272
0.00018936
0.00019043
0.000191478
0.0001925
0.000193492
0.000194449
0.000195367
0.000196242
0.00019707
0.000197846
0.000198566
0.000199227
0.000199825
0.000200358
0.000200823
0.000201217
0.000201478
0.000357228
8.53897e-05
0.000136866
0.000146944
0.000145524
0.000145319
0.000145335
0.000145318
0.000145304
0.000145297
0.000145296
0.000145302
0.000145317
0.00014534
0.000145374
0.000145417
0.000145472
0.000145539
0.000145618
0.000145711
0.000145816
0.000145936
0.00014607
0.00014622
0.000146384
0.000146564
0.00014676
0.000146971
0.0001472
0.000147445
0.000147707
0.000147987
0.000148284
0.000148598
0.000148931
0.000149282
0.000149651
0.000150038
0.000150444
0.000150869
0.000151314
0.000151777
0.00015226
0.000152763
0.000153285
0.000153828
0.00015439
0.000154973
0.000155576
0.0001562
0.000156845
0.000157511
0.000158197
0.000158905
0.000159634
0.000160385
0.000161156
0.000161949
0.000162764
0.0001636
0.000164457
0.000165335
0.000166234
0.000167153
0.000168094
0.000169054
0.000170034
0.000171032
0.00017205
0.000173085
0.000174136
0.000175203
0.000176285
0.00017738
0.000178486
0.000179603
0.000180727
0.000181856
0.000182989
0.000184123
0.000185254
0.00018638
0.000187496
0.0001886
0.000189687
0.000190753
0.000191794
0.000192806
0.000193783
0.000194722
0.000195617
0.000196465
0.00019726
0.000197999
0.000198678
0.000199293
0.00019984
0.000200318
0.000200724
0.000200992
0.000356566
8.47167e-05
0.000136206
0.000146289
0.000144871
0.00014467
0.000144691
0.000144678
0.00014467
0.000144668
0.000144673
0.000144684
0.000144704
0.000144733
0.000144771
0.000144819
0.000144879
0.000144949
0.000145032
0.000145127
0.000145235
0.000145356
0.000145492
0.000145642
0.000145806
0.000145986
0.000146181
0.000146392
0.000146618
0.000146861
0.000147121
0.000147397
0.00014769
0.000148001
0.000148329
0.000148674
0.000149038
0.000149419
0.000149819
0.000150238
0.000150675
0.000151131
0.000151606
0.0001521
0.000152614
0.000153148
0.000153701
0.000154274
0.000154868
0.000155482
0.000156117
0.000156772
0.000157448
0.000158146
0.000158864
0.000159604
0.000160365
0.000161147
0.000161951
0.000162777
0.000163623
0.000164492
0.000165381
0.000166292
0.000167223
0.000168175
0.000169148
0.00017014
0.000171151
0.000172181
0.000173229
0.000174293
0.000175373
0.000176468
0.000177575
0.000178694
0.000179823
0.000180958
0.000182099
0.000183241
0.000184384
0.000185522
0.000186652
0.000187772
0.000188876
0.000189961
0.000191021
0.000192053
0.000193052
0.000194012
0.000194928
0.000195797
0.000196613
0.000197372
0.000198069
0.000198701
0.000199265
0.000199756
0.000200174
0.00020045
0.000355899
8.40395e-05
0.000135542
0.000145628
0.000144213
0.000144015
0.000144039
0.000144031
0.000144027
0.00014403
0.000144039
0.000144056
0.00014408
0.000144113
0.000144155
0.000144208
0.00014427
0.000144344
0.000144429
0.000144526
0.000144636
0.000144759
0.000144895
0.000145045
0.00014521
0.000145389
0.000145582
0.000145791
0.000146016
0.000146256
0.000146512
0.000146785
0.000147074
0.00014738
0.000147702
0.000148042
0.0001484
0.000148775
0.000149168
0.000149579
0.000150009
0.000150456
0.000150923
0.000151409
0.000151913
0.000152437
0.000152981
0.000153544
0.000154127
0.000154731
0.000155354
0.000155999