/*--------------------------------*- C++ -*----------------------------------*\
| =========                 |                                                 |
| \\      /  F ield         | OpenFOAM: The Open Source CFD Toolbox           |
|  \\    /   O peration     | Version:  4.1                                   |
|   \\  /    A nd           | Web:      www.OpenFOAM.org                      |
|    \\/     M anipulation  |                                                 |
\*---------------------------------------------------------------------------*/
FoamFile
{
    version     2.0;
    format      ascii;
    class       volScalarField;
    location    "0.15";
    object      k;
}
// * * * * * * * * * * * * * * * * * * * * * * * * * * * * * * * * * * * * * //

dimensions      [0 2 -2 0 0 0 0];

internalField   nonuniform List<scalar> 
43750
(
0.384097
0.392935
0.401494
0.409759
0.417719
0.425367
0.432695
0.439695
0.446357
0.452671
0.458629
0.464223
0.469443
0.474283
0.478734
0.48279
0.486444
0.489689
0.49252
0.49493
0.496915
0.498468
0.499586
0.500263
0.500495
0.500277
0.499604
0.498473
0.49688
0.494821
0.492294
0.489298
0.485831
0.481896
0.477495
0.472636
0.467328
0.461586
0.45543
0.448888
0.441992
0.434784
0.427311
0.41963
0.411799
0.403881
0.395935
0.388014
0.380162
0.37241
0.364774
0.357258
0.349858
0.342567
0.335381
0.328301
0.321329
0.314464
0.307695
0.300993
0.294317
0.28761
0.280818
0.273893
0.266805
0.259547
0.252133
0.244595
0.236975
0.229316
0.221653
0.214011
0.206404
0.198835
0.191304
0.183804
0.176329
0.168868
0.161415
0.153963
0.146512
0.139067
0.131641
0.124257
0.116949
0.109759
0.102759
0.0961489
0.0899496
0.0841638
0.0788026
0.0738786
0.0694078
0.0655337
0.0622678
0.0593025
0.0565606
0.0540024
0.0516558
0.0488677
0.349405
0.327118
0.307711
0.290753
0.275898
0.26286
0.251397
0.241313
0.232442
0.224644
0.217801
0.211813
0.206594
0.202071
0.19818
0.194869
0.19209
0.189805
0.18798
0.186589
0.185607
0.185016
0.184803
0.184956
0.185469
0.18634
0.187569
0.18916
0.191121
0.193462
0.1962
0.199352
0.202941
0.206992
0.211534
0.216602
0.222229
0.228456
0.235323
0.242873
0.251147
0.260186
0.270028
0.280705
0.292243
0.304659
0.317959
0.33214
0.347186
0.363075
0.379776
0.397253
0.415471
0.434389
0.453966
0.474152
0.494877
0.516038
0.537476
0.558955
0.580138
0.600578
0.619735
0.637022
0.651887
0.663917
0.672922
0.678968
0.682336
0.683415
0.682576
0.680075
0.676015
0.670365
0.663018
0.653833
0.642669
0.629392
0.613878
0.596019
0.575737
0.552991
0.527796
0.500226
0.470426
0.438619
0.405124
0.370331
0.33475
0.298978
0.263673
0.229546
0.197358
0.167674
0.141068
0.118248
0.0996451
0.0852794
0.0739
0.0548924
0.349122
0.326223
0.30592
0.287815
0.271586
0.256971
0.243754
0.231759
0.220837
0.210863
0.201731
0.193353
0.185653
0.178565
0.172034
0.16601
0.160452
0.155323
0.150592
0.14623
0.142214
0.138523
0.135138
0.132043
0.129226
0.126673
0.124376
0.122326
0.120516
0.118941
0.117598
0.116482
0.115593
0.114931
0.114495
0.114287
0.114309
0.114563
0.115052
0.115778
0.116745
0.117957
0.119416
0.121126
0.123094
0.125328
0.127839
0.130646
0.133772
0.137246
0.141103
0.14538
0.15011
0.155324
0.161044
0.167285
0.174066
0.181408
0.189343
0.197896
0.207067
0.216791
0.226911
0.237164
0.247215
0.256719
0.265408
0.273151
0.279971
0.286007
0.291431
0.296382
0.300923
0.305043
0.308678
0.311734
0.314101
0.315655
0.316261
0.315768
0.314019
0.310855
0.306124
0.299695
0.291465
0.281375
0.269427
0.255692
0.24033
0.2236
0.205862
0.187569
0.169258
0.151507
0.134895
0.11996
0.107143
0.0967322
0.0873239
0.0618502
0.349121
0.326216
0.3059
0.287772
0.271508
0.256843
0.243561
0.231479
0.220447
0.210339
0.201045
0.192475
0.18455
0.177203
0.170376
0.164017
0.158083
0.152536
0.147342
0.142472
0.1379
0.133603
0.129562
0.125758
0.122177
0.118805
0.115631
0.112644
0.109836
0.1072
0.104729
0.10242
0.100266
0.0982673
0.0964198
0.0947227
0.0931751
0.0917766
0.0905268
0.0894257
0.0884728
0.0876675
0.0870085
0.0864944
0.0861232
0.0858931
0.0858029
0.0858523
0.0860434
0.0863803
0.0868702
0.0875226
0.0883493
0.0893628
0.0905759
0.0920015
0.0936531
0.0955467
0.0977026
0.100144
0.102895
0.105969
0.109356
0.11301
0.116848
0.120752
0.124597
0.128278
0.131736
0.134965
0.138007
0.140917
0.143746
0.146515
0.14922
0.151835
0.154327
0.156652
0.158763
0.160604
0.162109
0.163205
0.163811
0.163847
0.163233
0.161898
0.159781
0.156847
0.153085
0.148524
0.143234
0.137335
0.130994
0.12442
0.117857
0.111565
0.105788
0.100762
0.0948487
0.0667003
0.349121
0.326216
0.305898
0.287768
0.271501
0.256834
0.243548
0.231462
0.220426
0.210311
0.201011
0.192432
0.184496
0.177134
0.170289
0.163908
0.157948
0.152368
0.147134
0.142217
0.137588
0.133225
0.129106
0.125211
0.121525
0.118032
0.114718
0.111571
0.108581
0.105739
0.103035
0.100462
0.0980127
0.0956826
0.093466
0.0913587
0.0893573
0.0874588
0.0856609
0.0839619
0.0823605
0.0808557
0.0794472
0.0781347
0.076918
0.0757975
0.0747737
0.0738473
0.0730199
0.0722938
0.0716721
0.0711593
0.0707608
0.0704835
0.0703349
0.0703234
0.0704581
0.0707493
0.0712088
0.0718511
0.0726935
0.0737546
0.0750501
0.0765852
0.0783455
0.0802913
0.0823574
0.0844634
0.0865298
0.0884974
0.0903402
0.0920655
0.0937024
0.0952846
0.0968369
0.0983705
0.0998846
0.101371
0.102818
0.104208
0.105523
0.106742
0.107838
0.108785
0.109558
0.110132
0.110484
0.110598
0.110464
0.110082
0.109462
0.108626
0.107605
0.10644
0.105173
0.103848
0.102493
0.101154
0.097957
0.0698227
0.349121
0.326216
0.305897
0.287766
0.271499
0.25683
0.243544
0.231457
0.22042
0.210305
0.201004
0.192425
0.184488
0.177127
0.17028
0.163899
0.157937
0.152355
0.147119
0.142198
0.137566
0.133197
0.12907
0.125167
0.12147
0.117963
0.114633
0.111467
0.108453
0.105582
0.102844
0.10023
0.0977332
0.0953465
0.0930639
0.0908796
0.0887887
0.0867868
0.08487
0.0830348
0.0812783
0.079598
0.0779917
0.0764578
0.0749949
0.073602
0.0722787
0.0710247
0.0698405
0.0687272
0.0676866
0.0667215
0.0658358
0.0650346
0.0643243
0.063713
0.0632101
0.0628265
0.0625757
0.0624729
0.0625362
0.062785
0.063238
0.0639086
0.0647988
0.0658924
0.0671512
0.0685175
0.069923
0.0713052
0.0726224
0.073861
0.0750323
0.0761611
0.0772727
0.0783849
0.0795061
0.0806369
0.0817737
0.08291
0.0840376
0.0851475
0.0862298
0.0872751
0.088275
0.089224
0.0901199
0.0909656
0.0917695
0.0925462
0.0933155
0.0940997
0.0949194
0.0957859
0.0966898
0.0975951
0.098415
0.0990635
0.0975703
0.0716417
0.349121
0.326216
0.305897
0.287766
0.271498
0.256829
0.243541
0.231454
0.220417
0.210301
0.201
0.19242
0.184483
0.177121
0.170274
0.163892
0.15793
0.152348
0.147112
0.142192
0.137559
0.13319
0.129063
0.125159
0.121461
0.117953
0.114621
0.111453
0.108437
0.105562
0.102819
0.1002
0.0976957
0.0953003
0.0930067
0.0908091
0.0887021
0.0866807
0.0847406
0.0828776
0.0810882
0.0793693
0.0777179
0.0761316
0.0746083
0.0731463
0.0717443
0.0704012
0.0691167
0.067891
0.0667248
0.0656197
0.0645785
0.063605
0.0627042
0.0618829
0.0611497
0.0605152
0.0599927
0.0595978
0.0593477
0.0592587
0.0593431
0.0596055
0.0600398
0.060629
0.0613453
0.0621539
0.063017
0.0638997
0.0647766
0.065636
0.0664796
0.0673181
0.0681654
0.0690334
0.0699301
0.070859
0.0718207
0.0728129
0.0738321
0.0748731
0.07593
0.0769965
0.0780668
0.0791368
0.0802056
0.0812768
0.0823605
0.0834742
0.0846429
0.0858969
0.0872666
0.0887726
0.09041
0.092135
0.09383
0.0953611
0.0948252
0.072669
0.349121
0.326216
0.305897
0.287766
0.271497
0.256828
0.24354
0.231453
0.220415
0.210299
0.200997
0.192418
0.184481
0.177119
0.170272
0.163891
0.157929
0.152347
0.147112
0.142191
0.137558
0.13319
0.129063
0.12516
0.121462
0.117954
0.114623
0.111455
0.108438
0.105563
0.10282
0.1002
0.0976951
0.0952984
0.0930032
0.0908033
0.0886934
0.0866682
0.0847232
0.0828543
0.0810574
0.0793293
0.0776668
0.076067
0.0745276
0.0730465
0.071622
0.0702528
0.0689382
0.0676779
0.0664724
0.0653229
0.0642318
0.0632024
0.0622395
0.0613492
0.0605398
0.0598217
0.0592082
0.0587147
0.0583581
0.058153
0.0581079
0.0582199
0.0584721
0.0588363
0.0592793
0.059772
0.0602948
0.0608376
0.0613976
0.0619753
0.0625727
0.0631928
0.063839
0.0645154
0.0652261
0.0659745
0.0667632
0.0675936
0.0684656
0.0693783
0.0703297
0.0713168
0.0723363
0.0733852
0.0744618
0.0755671
0.0767067
0.0778928
0.0791453
0.0804913
0.0819615
0.0835819
0.0853572
0.087255
0.0891627
0.0909523
0.0909062
0.073359
0.349121
0.326216
0.305898
0.287766
0.271497
0.256827
0.243539
0.231452
0.220414
0.210298
0.200997
0.192417
0.18448
0.177118
0.170272
0.16389
0.157929
0.152347
0.147112
0.142192
0.137559
0.133191
0.129065
0.125162
0.121464
0.117957
0.114626
0.111458
0.108442
0.105568
0.102825
0.100205
0.0977006
0.0953042
0.0930091
0.0908093
0.0886993
0.0866738
0.0847283
0.0828584
0.0810603
0.0793303
0.0776652
0.0760621
0.0745185
0.073032
0.0716008
0.0702234
0.0688989
0.0676269
0.0664076
0.0652422
0.0641326
0.0630822
0.0620955
0.0611784
0.0603391
0.0595877
0.0589368
0.0584016
0.0579985
0.0577419
0.0576401
0.0576893
0.0578704
0.0581504
0.0584905
0.0588585
0.0592366
0.0596234
0.0600267
0.0604566
0.0609193
0.0614167
0.0619479
0.0625119
0.0631091
0.0637408
0.0644092
0.065116
0.0658625
0.0666494
0.0674768
0.0683442
0.0692506
0.070195
0.0711767
0.0721964
0.0732577
0.0743686
0.0755435
0.0768033
0.0781736
0.0796783
0.0813257
0.0830946
0.0848868
0.0866047
0.0867748
0.0740404
0.349121
0.326217
0.305898
0.287766
0.271497
0.256828
0.24354
0.231452
0.220414
0.210299
0.200997
0.192417
0.184481
0.177119
0.170273
0.163892
0.15793
0.152349
0.147114
0.142194
0.137562
0.133195
0.129069
0.125166
0.12147
0.117963
0.114632
0.111465
0.108449
0.105575
0.102833
0.100214
0.0977098
0.0953138
0.0930192
0.0908199
0.0887103
0.0866852
0.0847401
0.0828704
0.0810724
0.0793425
0.0776772
0.0760736
0.0745292
0.0730415
0.0716086
0.0702289
0.0689015
0.0676257
0.0664018
0.0652306
0.0641143
0.0630557
0.0620592
0.0611308
0.0602779
0.0595102
0.0588397
0.0582804
0.0578477
0.0575554
0.0574121
0.0574159
0.0575502
0.0577844
0.0580808
0.0584054
0.0587379
0.0590745
0.0594238
0.0597981
0.0602066
0.0606528
0.0611361
0.0616543
0.0622057
0.0627903
0.0634085
0.064061
0.0647483
0.0654702
0.0662263
0.0670154
0.0678363
0.0686872
0.0695669
0.070475
0.0714133
0.0723873
0.0734075
0.0744905
0.0756575
0.0769301
0.0783181
0.0798104
0.0813257
0.0828058
0.0830378
0.0749058
0.349122
0.326217
0.305898
0.287767
0.271498
0.256828
0.24354
0.231453
0.220415
0.2103
0.200998
0.192419
0.184482
0.177121
0.170275
0.163894
0.157933
0.152353
0.147118
0.142198
0.137567
0.1332
0.129075
0.125172
0.121476
0.11797
0.11464
0.111473
0.108458
0.105584
0.102843
0.100224
0.0977207
0.0953253
0.0930313
0.0908325
0.0887235
0.086699
0.0847544
0.0828853
0.0810878
0.0793582
0.0776933
0.0760901
0.0745458
0.0730582
0.0716252
0.0702453
0.0689173
0.0676407
0.0664156
0.0652429
0.0641244
0.0630632
0.0620633
0.0611303
0.0602715
0.0594959
0.0588149
0.0582412
0.0577889
0.0574708
0.057295
0.0572606
0.0573542
0.0575497
0.0578138
0.0581147
0.0584309
0.0587547
0.0590908
0.0594493
0.0598399
0.0602679
0.0607344
0.0612381
0.0617776
0.0623524
0.0629622
0.063607
0.0642862
0.0649987
0.0657423
0.0665139
0.0673097
0.068125
0.0689549
0.0697951
0.0706427
0.0714984
0.0723675
0.0732621
0.0741998
0.0752013
0.0762796
0.0774351
0.0786061
0.0797773
0.0799884
0.0760383
0.349122
0.326217
0.305899
0.287767
0.271499
0.256829
0.243541
0.231454
0.220417
0.210301
0.201
0.192421
0.184485
0.177123
0.170278
0.163898
0.157937
0.152357
0.147123
0.142204
0.137573
0.133206
0.129082
0.12518
0.121484
0.117979
0.114649
0.111483
0.108469
0.105596
0.102854
0.100236
0.0977336
0.0953388
0.0930454
0.0908472
0.0887387
0.0867148
0.0847708
0.0829023
0.0811054
0.0793764
0.077712
0.0761092
0.0745654
0.0730782
0.0716455
0.0702658
0.068938
0.0676615
0.0664364
0.0652636
0.0641449
0.0630831
0.0620823
0.061148
0.060287
0.0595081
0.0588219
0.0582406
0.057777
0.0574429
0.0572452
0.0571832
0.0572446
0.057407
0.0576417
0.0579206
0.0582234
0.0585403
0.0588719
0.0592252
0.0596085
0.0600278
0.0604857
0.0609825
0.061518
0.0620919
0.0627047
0.0633562
0.0640462
0.064773
0.0655338
0.0663243
0.0671383
0.067968
0.0688039
0.0696358
0.070454
0.0712508
0.0720236
0.0727763
0.0735209
0.0742761
0.0750581
0.0758805
0.0767031
0.0775546
0.0777085
0.0774512
0.349122
0.326218
0.305899
0.287768
0.2715
0.25683
0.243543
0.231456
0.220418
0.210303
0.201002
0.192423
0.184488
0.177127
0.170282
0.163902
0.157942
0.152363
0.147129
0.14221
0.13758
0.133214
0.12909
0.125189
0.121494
0.117989
0.11466
0.111494
0.108481
0.105608
0.102868
0.10025
0.0977482
0.095354
0.0930612
0.0908637
0.0887559
0.0867326
0.0847892
0.0829213
0.081125
0.0793966
0.0777327
0.0761305
0.0745872
0.0731005
0.0716683
0.070289
0.0689616
0.0676854
0.0664607
0.0652882
0.0641697
0.0631081
0.0621073
0.0611726
0.060311
0.0595309
0.0588425
0.0582576
0.0577885
0.057446
0.0572363
0.0571574
0.0571974
0.0573353
0.0575454
0.0578034
0.0580911
0.0583987
0.0587246
0.0590729
0.0594502
0.0598622
0.060312
0.0608013
0.0613306
0.0619008
0.0625129
0.0631678
0.0638659
0.0646063
0.0653869
0.0662033
0.0670489
0.0679139
0.068786
0.0696499
0.0704889
0.0712863
0.0720289
0.0727097
0.0733308
0.0739052
0.0744499
0.0749896
0.075505
0.0760674
0.0761604
0.0791226
0.349122
0.326218
0.3059
0.287769
0.271501
0.256832
0.243544
0.231457
0.22042
0.210306
0.201005
0.192427
0.184491
0.177131
0.170287
0.163907
0.157948
0.152369
0.147136
0.142218
0.137588
0.133223
0.129099
0.125199
0.121505
0.118
0.114672
0.111507
0.108494
0.105622
0.102883
0.100266
0.0977644
0.0953709
0.0930788
0.0908819
0.0887748
0.0867522
0.0848094
0.0829422
0.0811465
0.0794187
0.0777556
0.0761539
0.0746112
0.073125
0.0716933
0.0703145
0.0689876
0.0677119
0.0664875
0.0653154
0.0641972
0.0631359
0.0621353
0.0612007
0.0603388
0.0595582
0.0588689
0.0582825
0.0578111
0.057465
0.0572496
0.0571622
0.05719
0.0573121
0.0575041
0.0577444
0.0580171
0.0583137
0.0586317
0.0589739
0.0593451
0.0597501
0.0601921
0.0606728
0.0611936
0.0617559
0.0623616
0.0630123
0.0637094
0.0644534
0.0652433
0.066076
0.0669458
0.0678433
0.0687552
0.069664
0.070548
0.0713835
0.072147
0.0728196
0.0733913
0.073865
0.0742537
0.0745882
0.0748665
0.075197
0.0752483
0.0810193
0.349122
0.326218
0.305901
0.28777
0.271502
0.256833
0.243546
0.231459
0.220423
0.210308
0.201008
0.19243
0.184496
0.177136
0.170292
0.163913
0.157954
0.152376
0.147144
0.142227
0.137598
0.133232
0.12911
0.12521
0.121517
0.118013
0.114685
0.111521
0.108509
0.105638
0.102899
0.100283
0.0977821
0.0953893
0.0930979
0.0909018
0.0887954
0.0867735
0.0848315
0.0829649
0.08117
0.0794429
0.0777803
0.0761794
0.0746373
0.0731517
0.0717206
0.0703423
0.0690159
0.0677407
0.0665168
0.0653451
0.0642273
0.0631662
0.0621657
0.0612312
0.0603692
0.0595883
0.0588985
0.0583114
0.0578391
0.0574917
0.0572743
0.0571833
0.0572051
0.0573179
0.0574977
0.0577243
0.0579839
0.0582695
0.0585792
0.058915
0.0592808
0.0596801
0.0601155
0.0605888
0.0611012
0.0616545
0.0622508
0.0628925
0.0635816
0.0643197
0.0651072
0.0659428
0.0668223
0.0677381
0.0686782
0.069625
0.0705555
0.0714418
0.0722534
0.0729612
0.0735427
0.0739891
0.0743043
0.0745196
0.074643
0.0748121
0.0748556
0.0831097
0.349123
0.326219
0.305901
0.28777
0.271503
0.256834
0.243548
0.231462
0.220425
0.210312
0.201012
0.192435
0.1845
0.177141
0.170298
0.16392
0.157962
0.152384
0.147152
0.142236
0.137608
0.133243
0.129121
0.125223
0.12153
0.118027
0.1147
0.111537
0.108525
0.105655
0.102916
0.100301
0.0978013
0.0954093
0.0931187
0.0909233
0.0888177
0.0867965
0.0848553
0.0829895
0.0811952
0.0794689
0.0778071
0.0762068
0.0746654
0.0731804
0.07175
0.0703724
0.0690465
0.0677718
0.0665484
0.0653771
0.0642597
0.0631989
0.0621986
0.0612641
0.060402
0.0596207
0.0589306
0.0583431
0.0578705
0.0575229
0.057305
0.0572128
0.0572318
0.0573392
0.0575108
0.0577269
0.0579756
0.0582514
0.0585535
0.0588837
0.0592451
0.0596407
0.0600721
0.0605405
0.0610468
0.0615927
0.0621803
0.0628121
0.0634906
0.0642181
0.064996
0.0658243
0.0667008
0.0676202
0.0685725
0.0695424
0.070508
0.0714408
0.072307
0.0730709
0.0737
0.0741738
0.0744852
0.07466
0.0747088
0.0747889
0.0748651
0.0853687
0.349123
0.326219
0.305902
0.287771
0.271504
0.256836
0.24355
0.231464
0.220428
0.210315
0.201016
0.192439
0.184505
0.177147
0.170305
0.163927
0.157969
0.152393
0.147162
0.142246
0.137618
0.133255
0.129134
0.125236
0.121544
0.118042
0.114716
0.111553
0.108542
0.105673
0.102935
0.100321
0.0978219
0.0954308
0.093141
0.0909464
0.0888416
0.0868212
0.0848808
0.0830158
0.0812223
0.0794967
0.0778357
0.0762362
0.0746955
0.0732113
0.0717815
0.0704045
0.0690793
0.0678052
0.0665823
0.0654115
0.0642944
0.0632339
0.0622338
0.0612993
0.060437
0.0596555
0.058965
0.0583773
0.0579046
0.057557
0.0573394
0.0572471
0.0572648
0.0573688
0.0575342
0.0577418
0.0579812
0.0582483
0.0585435
0.058869
0.0592276
0.0596213
0.0600511
0.0605175
0.0610209
0.0615626
0.0621445
0.0627688
0.0634382
0.064155
0.0649213
0.0657379
0.0666042
0.0675169
0.0684686
0.0694469
0.0704328
0.0713998
0.0723143
0.0731381
0.0738325
0.0743676
0.0747253
0.074922
0.0749649
0.0750208
0.0751704
0.0877781
0.349123
0.32622
0.305903
0.287772
0.271505
0.256838
0.243552
0.231467
0.220432
0.210319
0.20102
0.192444
0.184511
0.177153
0.170312
0.163935
0.157978
0.152402
0.147172
0.142257
0.13763
0.133267
0.129147
0.12525
0.121559
0.118057
0.114732
0.111571
0.108561
0.105692
0.102956
0.100342
0.097844
0.0954537
0.0931647
0.0909711
0.0888671
0.0868476
0.084908
0.0830438
0.0812512
0.0795264
0.0778662
0.0762675
0.0747276
0.0732441
0.0718151
0.0704388
0.0691143
0.0678408
0.0666185
0.0654481
0.0643315
0.0632713
0.0622713
0.0613368
0.0604744
0.0596926
0.0590018
0.0584138
0.057941
0.0575937
0.0573767
0.0572848
0.0573018
0.0574031
0.0575633
0.0577633
0.057994
0.058253
0.0585418
0.0588632
0.0592197
0.0596129
0.0600432
0.0605103
0.0610139
0.061555
0.0621349
0.0627556
0.0634195
0.0641288
0.0648855
0.0656911
0.0665456
0.0674474
0.0683914
0.0693681
0.070362
0.0713502
0.0723018
0.0731795
0.0739425
0.0745546
0.0749886
0.0752505
0.0753391
0.0754231
0.0756821
0.0903254
0.349123
0.32622
0.305904
0.287774
0.271507
0.25684
0.243554
0.23147
0.220435
0.210323
0.201025
0.192449
0.184517
0.17716
0.170319
0.163943
0.157987
0.152412
0.147182
0.142268
0.137642
0.133281
0.129161
0.125265
0.121575
0.118074
0.11475
0.111589
0.108581
0.105713
0.102977
0.100365
0.0978674
0.095478
0.09319
0.0909972
0.0888941
0.0868756
0.0849368
0.0830736
0.0812818
0.0795579
0.0778986
0.0763007
0.0747617
0.073279
0.0718507
0.0704753
0.0691514
0.0678786
0.0666569
0.0654871
0.0643708
0.0633109
0.0623111
0.0613766
0.060514
0.0597319
0.0590407
0.0584524
0.0579797
0.0576328
0.0574164
0.0573252
0.057342
0.0574411
0.0575964
0.057789
0.0580109
0.0582616
0.058544
0.0588613
0.0592161
0.0596097
0.0600417
0.0605113
0.0610176
0.0615611
0.0621426
0.0627639
0.0634267
0.064133
0.0648847
0.065683
0.0665286
0.0674205
0.0683554
0.0693262
0.0703208
0.0713204
0.0722983
0.0732204
0.0740468
0.074739
0.0752629
0.075615
0.0757835
0.075933
0.0763294
0.0930024
0.349124
0.326221
0.305904
0.287775
0.271508
0.256842
0.243556
0.231472
0.220438
0.210327
0.201029
0.192455
0.184523
0.177167
0.170327
0.163951
0.157996
0.152422
0.147193
0.14228
0.137655
0.133295
0.129176
0.125281
0.121592
0.118092
0.114769
0.111609
0.108601
0.105735
0.103
0.100388
0.0978921
0.0955037
0.0932166
0.0910248
0.0889227
0.0869051
0.0849673
0.083105
0.0813142
0.0795912
0.0779328
0.0763358
0.0747976
0.0733158
0.0718884
0.0705137
0.0691907
0.0679186
0.0666975
0.0655282
0.0644125
0.0633529
0.0623532
0.0614187
0.0605559
0.0597735
0.0590818
0.0584933
0.0580205
0.057674
0.0574585
0.0573682
0.0573852
0.0574825
0.0576331
0.0578182
0.058031
0.0582729
0.0585481
0.0588609
0.0592139
0.059608
0.0600424
0.0605156
0.0610263
0.0615744
0.0621604
0.0627857
0.0634517
0.0641599
0.0649116
0.0657082
0.06655
0.0674364
0.0683651
0.0693308
0.0703243
0.0713304
0.072327
0.0732845
0.0741662
0.0749338
0.0755497
0.0760026
0.0762695
0.0765075
0.0770609
0.0958035
0.349124
0.326221
0.305905
0.287776
0.27151
0.256844
0.243559
0.231475
0.220442
0.210331
0.201034
0.19246
0.18453
0.177174
0.170335
0.163961
0.158006
0.152433
0.147205
0.142293
0.137669
0.133309
0.129192
0.125298
0.121609
0.118111
0.114789
0.11163
0.108623
0.105758
0.103024
0.100413
0.097918
0.0955306
0.0932446
0.0910538
0.0889527
0.0869361
0.0849993
0.083138
0.0813482
0.0796262
0.0779687
0.0763727
0.0748355
0.0733546
0.0719281
0.0705543
0.069232
0.0679607
0.0667403
0.0655716
0.0644563
0.0633971
0.0623976
0.061463
0.0606
0.0598172
0.0591251
0.0585361
0.0580632
0.0577172
0.0575027
0.0574136
0.0574311
0.0575271
0.0576733
0.057851
0.0580542
0.0582864
0.0585537
0.0588612
0.0592118
0.0596062
0.0600431
0.0605204
0.0610365
0.0615907
0.0621833
0.0628153
0.0634879
0.064202
0.0649589
0.0657593
0.0666033
0.0674903
0.0684185
0.0693835
0.0703782
0.0713905
0.0724025
0.0733892
0.0743181
0.0751537
0.0758568
0.0764109
0.0767827
0.0771206
0.0778424
0.0987253
0.349124
0.326222
0.305906
0.287777
0.271512
0.256846
0.243562
0.231479
0.220446
0.210335
0.20104
0.192466
0.184536
0.177182
0.170343
0.16397
0.158017
0.152444
0.147218
0.142307
0.137684
0.133325
0.129208
0.125315
0.121628
0.118131
0.11481
0.111652
0.108646
0.105782
0.103049
0.100439
0.0979451
0.0955588
0.0932739
0.0910841
0.0889841
0.0869685
0.0850328
0.0831726
0.0813838
0.0796628
0.0780064
0.0764114
0.0748752
0.0733953
0.0719697
0.0705968
0.0692754
0.0680049
0.0667852
0.0656172
0.0645024
0.0634435
0.0624442
0.0615096
0.0606464
0.0598631
0.0591705
0.058581
0.0581079
0.0577623
0.0575487
0.0574611
0.0574796
0.057575
0.0577173
0.0578875
0.0580808
0.0583026
0.0585609
0.058862
0.0592095
0.0596037
0.0600429
0.0605245
0.0610465
0.0616077
0.0622083
0.062849
0.0635306
0.0642541
0.0650203
0.0658295
0.0666816
0.0675758
0.0685101
0.0694809
0.070482
0.0715038
0.0725317
0.0735448
0.0745154
0.0754113
0.0761941
0.0768439
0.077319
0.0777591
0.0786542
0.101766
0.349124
0.326223
0.305907
0.287778
0.271513
0.256848
0.243564
0.231482
0.22045
0.21034
0.201045
0.192473
0.184544
0.17719
0.170352
0.16398
0.158028
0.152456
0.147231
0.14232
0.137699
0.133341
0.129226
0.125334
0.121647
0.118151
0.114831
0.111675
0.10867
0.105806
0.103075
0.100467
0.0979735
0.0955883
0.0933045
0.0911159
0.0890169
0.0870025
0.0850679
0.0832087
0.081421
0.0797012
0.0780458
0.0764519
0.0749167
0.0734378
0.0720132
0.0706413
0.0693208
0.0680511
0.0668322
0.0656649
0.0645506
0.0634921
0.062493
0.0615584
0.0606949
0.0599111
0.0592179
0.0586278
0.0581544
0.057809
0.0575965
0.0575105
0.0575306
0.0576259
0.057765
0.0579281
0.0581112
0.0583217
0.0585699
0.0588637
0.0592071
0.0596004
0.0600416
0.0605276
0.0610556
0.0616245
0.0622339
0.0628845
0.0635771
0.0643125
0.0650912
0.0659134
0.0667788
0.0676861
0.0686334
0.069617
0.0706314
0.0716684
0.0727157
0.0737559
0.0747654
0.0757158
0.0765705
0.0773082
0.0778804
0.0784195
0.0794875
0.104924
0.349125
0.326223
0.305908
0.28778
0.271515
0.25685
0.243567
0.231485
0.220454
0.210345
0.201051
0.192479
0.184551
0.177198
0.170362
0.16399
0.158039
0.152468
0.147244
0.142335
0.137714
0.133358
0.129244
0.125353
0.121667
0.118172
0.114854
0.111698
0.108695
0.105833
0.103102
0.100495
0.098003
0.095619
0.0933364
0.0911489
0.0890511
0.0870379
0.0851044
0.0832464
0.0814599
0.0797412
0.0780869
0.0764941
0.07496
0.0734822
0.0720587
0.0706877
0.0693682
0.0680994
0.0668813
0.0657147
0.064601
0.0635429
0.0625439
0.0616093
0.0607455
0.0599612
0.0592672
0.0586765
0.0582026
0.0578574
0.0576459
0.0575617
0.0575838
0.0576797
0.0578164
0.0579728
0.0581456
0.0583442
0.0585813
0.0588666
0.0592048
0.0595966
0.0600393
0.0605294
0.0610637
0.0616405
0.0622595
0.062921
0.063626
0.0643751
0.0651689
0.0660075
0.0668903
0.067816
0.0687824
0.0697857
0.0708206
0.0718797
0.072952
0.0740228
0.0750714
0.0760731
0.0769935
0.077811
0.0784724
0.0791042
0.0803421
0.108201
0.349125
0.326224
0.305909
0.287781
0.271517
0.256852
0.24357
0.231489
0.220458
0.21035
0.201057
0.192486
0.184558
0.177207
0.170371
0.164001
0.158051
0.152481
0.147258
0.14235
0.13773
0.133375
0.129262
0.125372
0.121688
0.118195
0.114877
0.111723
0.10872
0.105859
0.10313
0.100524
0.0980337
0.0956509
0.0933695
0.0911833
0.0890867
0.0870747
0.0851424
0.0832856
0.0815003
0.0797828
0.0781297
0.076538
0.0750051
0.0735284
0.072106
0.0707361
0.0694176
0.0681497
0.0669325
0.0657666
0.0646535
0.0635958
0.062597
0.0616623
0.0607982
0.0600133
0.0593186
0.0587269
0.0582525
0.0579072
0.0576966
0.0576144
0.0576389
0.0577363
0.0578714
0.0580218
0.0581843
0.0583703
0.0585953
0.0588709
0.059203
0.0595924
0.0600362
0.0605302
0.0610707
0.0616558
0.0622848
0.0629581
0.0636765
0.0644409
0.0652518
0.0661094
0.0670131
0.0679615
0.0689523
0.0699816
0.0710441
0.0721324
0.0732365
0.0743431
0.0754337
0.0764862
0.0774687
0.0783597
0.0791027
0.0798201
0.0812227
0.111596
0.349125
0.326224
0.30591
0.287782
0.271518
0.256854
0.243573
0.231492
0.220462
0.210355
0.201063
0.192493
0.184566
0.177215
0.170381
0.164012
0.158063
0.152494
0.147272
0.142365
0.137747
0.133393
0.129281
0.125393
0.12171
0.118217
0.114901
0.111748
0.108747
0.105887
0.10316
0.100555
0.0980654
0.0956839
0.0934038
0.0912188
0.0891236
0.0871128
0.0851818
0.0833262
0.0815422
0.0798259
0.078174
0.0765836
0.0750519
0.0735764
0.0721551
0.0707863
0.0694688
0.068202
0.0669856
0.0658205
0.064708
0.0636507
0.0626523
0.0617175
0.0608531
0.0600675
0.0593718
0.0587791
0.0583038
0.0579583
0.0577485
0.0576684
0.0576958
0.0577954
0.0579299
0.0580751
0.0582275
0.0584006
0.0586124
0.0588771
0.0592019
0.0595879
0.0600321
0.0605298
0.0610767
0.0616702
0.0623097
0.0629955
0.0637284
0.0645093
0.065339
0.0662178
0.0671452
0.06812
0.0691398
0.0702007
0.0712972
0.0724219
0.073565
0.0747137
0.075851
0.0769566
0.078
0.0789606
0.0797792
0.0805758
0.0821379
0.11511
0.349126
0.326225
0.305911
0.287784
0.27152
0.256857
0.243576
0.231496
0.220467
0.21036
0.201069
0.1925
0.184574
0.177225
0.170391
0.164023
0.158075
0.152508
0.147287
0.142381
0.137764
0.133411
0.129301
0.125413
0.121732
0.118241
0.114926
0.111774
0.108775
0.105916
0.10319
0.100586
0.0980982
0.0957181
0.0934392
0.0912556
0.0891617
0.0871522
0.0852225
0.0833683
0.0815855
0.0798705
0.07822
0.0766308
0.0751003
0.073626
0.0722059
0.0708383
0.069522
0.0682561
0.0670408
0.0658764
0.0647646
0.0637078
0.0627095
0.0617747
0.0609099
0.0601236
0.0594269
0.058833
0.0583566
0.0580106
0.0578015
0.0577234
0.0577541
0.0578567
0.0579918
0.0581327
0.0582755
0.0584352
0.0586329
0.0588854
0.0592017
0.0595833
0.0600273
0.0605283
0.0610814
0.0616837
0.0623342
0.0630331
0.0637814
0.0645801
0.0654302
0.0663321
0.0672858
0.0682901
0.0693428
0.0704401
0.0715764
0.0727442
0.0739334
0.0751315
0.0763218
0.0774847
0.0785907
0.0796197
0.0805103
0.0813815
0.083098
0.118747
0.349126
0.326226
0.305912
0.287785
0.271522
0.256859
0.243579
0.2315
0.220471
0.210366
0.201075
0.192507
0.184583
0.177234
0.170402
0.164034
0.158088
0.152522
0.147302
0.142398
0.137782
0.13343
0.129321
0.125435
0.121755
0.118265
0.114951
0.111801
0.108803
0.105946
0.103221
0.100619
0.0981321
0.0957533
0.0934758
0.0912936
0.089201
0.0871929
0.0852646
0.0834117
0.0816303
0.0799166
0.0782674
0.0766796
0.0751504
0.0736774
0.0722586
0.0708922
0.069577
0.0683122
0.0670978
0.0659343
0.0648232
0.0637669
0.0627689
0.061834
0.0609687
0.0601816
0.0594837
0.0588885
0.0584108
0.058064
0.0578553
0.0577793
0.0578136
0.0579201
0.0580568
0.0581946
0.0583285
0.0584747
0.0586573
0.0588962
0.0592025
0.0595787
0.0600216
0.0605255
0.0610848
0.061696
0.0623579
0.0630706
0.0638352
0.0646529
0.0655248
0.0664519
0.0674341
0.0684708
0.06956
0.0706981
0.0718796
0.0730967
0.0743393
0.0755942
0.0768446
0.078071
0.0792437
0.0803427
0.0813046
0.0822478
0.0841147
0.122506
0.349126
0.326226
0.305913
0.287786
0.271524
0.256862
0.243582
0.231504
0.220476
0.210371
0.201081
0.192514
0.184591
0.177243
0.170412
0.164046
0.158101
0.152536
0.147317
0.142415
0.1378
0.13345
0.129342
0.125457
0.121778
0.11829
0.114978
0.111829
0.108832
0.105976
0.103253
0.100652
0.0981668
0.0957895
0.0935134
0.0913326
0.0892415
0.0872348
0.0853079
0.0834564
0.0816764
0.0799642
0.0783163
0.0767299
0.075202
0.0737304
0.0723129
0.0709477
0.0696337
0.0683701
0.0671567
0.0659942
0.0648838
0.0638279
0.0628302
0.0618952
0.0610295
0.0602416
0.0595424
0.0589455
0.0584662
0.0581184
0.0579098
0.0578358
0.0578739
0.0579851
0.0581248
0.0582609
0.0583866
0.0585192
0.0586859
0.05891
0.0592048
0.0595742
0.0600151
0.0605213
0.0610866
0.0617069
0.0623805
0.0631077
0.0638895
0.0647274
0.0656227
0.0665767
0.0675898
0.0686617
0.0697909
0.070974
0.0722057
0.0734782
0.074781
0.0761005
0.077419
0.0787164
0.0799622
0.0811354
0.0821705
0.083186
0.0852005
0.126392
0.349127
0.326227
0.305914
0.287788
0.271526
0.256864
0.243585
0.231507
0.22048
0.210377
0.201088
0.192522
0.1846
0.177253
0.170423
0.164058
0.158114
0.15255
0.147333
0.142432
0.137818
0.133469
0.129363
0.12548
0.121803
0.118316
0.115005
0.111857
0.108862
0.106008
0.103285
0.100686
0.0982026
0.0958267
0.0935521
0.0913728
0.0892831
0.0872779
0.0853524
0.0835024
0.0817239
0.0800131
0.0783667
0.0767817
0.0752552
0.073785
0.0723688
0.071005
0.0696922
0.0684298
0.0672175
0.0660558
0.0649462
0.0638909
0.0628934
0.0619584
0.0610922
0.0603033
0.0596027
0.0590041
0.0585229
0.0581737
0.0579649
0.0578926
0.0579348
0.0580515
0.0581955
0.0583314
0.0584501
0.0585693
0.0587193
0.0589271
0.0592089
0.05957
0.0600078
0.0605156
0.0610866
0.0617159
0.0624017
0.0631439
0.0639438
0.064803
0.0657233
0.0667061
0.0677525
0.0688625
0.0700351
0.0712674
0.0725543
0.0738882
0.0752583
0.0766503
0.0780457
0.0794229
0.08075
0.0820042
0.0831176
0.0842082
0.0863686
0.130407
0.349127
0.326227
0.305915
0.287789
0.271528
0.256867
0.243588
0.231511
0.220485
0.210382
0.201094
0.192529
0.184608
0.177263
0.170434
0.164071
0.158127
0.152565
0.147349
0.142449
0.137837
0.13349
0.129385
0.125503
0.121827
0.118342
0.115032
0.111886
0.108892
0.10604
0.103319
0.100722
0.0982392
0.0958648
0.0935918
0.091414
0.0893258
0.0873221
0.0853982
0.0835497
0.0817726
0.0800633
0.0784184
0.0768349
0.0753099
0.0738411
0.0724263
0.0710639
0.0697524
0.0684912
0.06728
0.0661193
0.0650105
0.0639558
0.0629586
0.0620235
0.0611568
0.0603669
0.0596648
0.0590642
0.0585808
0.0582297
0.0580203
0.0579496
0.057996
0.0581189
0.0582686
0.0584059
0.058519
0.0586254
0.058758
0.0589481
0.0592151
0.0595662
0.0599996