/*--------------------------------*- C++ -*----------------------------------*\
| =========                 |                                                 |
| \\      /  F ield         | OpenFOAM: The Open Source CFD Toolbox           |
|  \\    /   O peration     | Version:  4.1                                   |
|   \\  /    A nd           | Web:      www.OpenFOAM.org                      |
|    \\/     M anipulation  |                                                 |
\*---------------------------------------------------------------------------*/
FoamFile
{
    version     2.0;
    format      ascii;
    class       volScalarField;
    location    "0.15";
    object      p;
}
// * * * * * * * * * * * * * * * * * * * * * * * * * * * * * * * * * * * * * //

dimensions      [0 2 -2 0 0 0 0];

internalField   nonuniform List<scalar> 
43750
(
98.3969
98.2917
98.2373
98.253
98.2995
98.3568
98.4273
98.5163
98.6241
98.7491
98.8902
99.0473
99.2205
99.4097
99.6147
99.8355
100.072
100.324
100.592
100.875
101.174
101.488
101.817
102.162
102.522
102.897
103.287
103.692
104.112
104.545
104.993
105.455
105.93
106.418
106.919
107.432
107.957
108.495
109.044
109.606
110.179
110.766
111.366
111.98
112.609
113.253
113.915
114.593
115.288
115.998
116.723
117.461
118.209
118.966
119.73
120.502
121.281
122.068
122.862
123.664
124.47
125.278
126.086
126.892
127.697
128.499
129.299
130.097
130.891
131.68
132.459
133.228
133.985
134.728
135.457
136.171
136.87
137.554
138.221
138.872
139.507
140.124
140.725
141.307
141.873
142.42
142.95
143.461
143.951
144.422
144.869
145.292
145.686
146.049
146.376
146.662
146.9
147.085
147.212
147.278
98.2267
98.1988
98.1782
98.1933
98.2373
98.2984
98.3741
98.4665
98.5764
98.703
98.8455
99.0038
99.1779
99.3677
99.5731
99.7941
100.031
100.283
100.55
100.833
101.131
101.444
101.773
102.117
102.477
102.851
103.24
103.644
104.063
104.497
104.944
105.406
105.882
106.371
106.873
107.389
107.917
108.458
109.011
109.577
110.155
110.746
111.351
111.969
112.602
113.249
113.913
114.592
115.287
115.998
116.722
117.46
118.209
118.967
119.733
120.506
121.287
122.075
122.872
123.675
124.484
125.295
126.107
126.916
127.723
128.525
129.325
130.122
130.916
131.704
132.486
133.257
134.016
134.761
135.491
136.206
136.906
137.589
138.257
138.907
139.541
140.158
140.757
141.339
141.903
142.45
142.978
143.488
143.979
144.449
144.898
145.323
145.721
146.089
146.42
146.709
146.949
147.135
147.259
147.33
98.1445
98.143
98.1457
98.167
98.2109
98.2726
98.3491
98.441
98.5493
98.674
98.8146
98.9708
99.1427
99.3301
99.5331
99.7516
99.9854
100.235
100.499
100.779
101.074
101.384
101.71
102.05
102.406
102.776
103.161
103.561
103.975
104.404
104.847
105.304
105.775
106.26
106.758
107.27
107.795
108.333
108.884
109.448
110.026
110.618
111.223
111.843
112.478
113.127
113.792
114.472
115.166
115.875
116.597
117.331
118.077
118.832
119.597
120.37
121.151
121.941
122.737
123.54
124.347
125.157
125.968
126.779
127.588
128.396
129.202
130.006
130.805
131.599
132.385
133.16
133.924
134.674
135.409
136.13
136.836
137.526
138.201
138.859
139.5
140.125
140.732
141.322
141.895
142.45
142.988
143.509
144.01
144.492
144.952
145.389
145.799
146.177
146.518
146.816
147.065
147.258
147.392
147.473
98.056
98.0595
98.0706
98.0966
98.1412
98.2032
98.2807
98.3736
98.4826
98.6077
98.7486
98.9052
99.0773
99.2649
99.468
99.6864
99.9201
100.169
100.433
100.713
101.007
101.317
101.642
101.981
102.336
102.705
103.089
103.488
103.901
104.328
104.77
105.225
105.695
106.178
106.675
107.185
107.708
108.245
108.795
109.358
109.935
110.526
111.13
111.748
112.38
113.027
113.689
114.364
115.054
115.757
116.473
117.201
117.941
118.691
119.45
120.219
120.995
121.78
122.571
123.368
124.17
124.976
125.784
126.594
127.405
128.216
129.027
129.836
130.64
131.439
132.228
133.007
133.773
134.527
135.267
135.994
136.706
137.403
138.085
138.752
139.403
140.037
140.655
141.257
141.842
142.41
142.962
143.496
144.011
144.508
144.983
145.434
145.858
146.249
146.602
146.91
147.167
147.367
147.505
147.591
97.962
97.9692
97.9871
98.0191
98.0671
98.131
98.2102
98.3045
98.4141
98.5394
98.6801
98.8362
99.0075
99.1942
99.3961
99.6133
99.8456
100.093
100.356
100.633
100.926
101.234
101.556
101.894
102.246
102.613
102.994
103.391
103.801
104.226
104.665
105.118
105.585
106.066
106.561
107.069
107.591
108.126
108.675
109.237
109.813
110.402
111.006
111.623
112.254
112.9
113.56
114.233
114.921
115.621
116.334
117.059
117.795
118.541
119.297
120.062
120.836
121.617
122.405
123.199
123.998
124.8
125.606
126.413
127.221
128.031
128.841
129.65
130.457
131.257
132.049
132.83
133.598
134.354
135.097
135.826
136.541
137.243
137.93
138.601
139.258
139.899
140.524
141.133
141.726
142.303
142.864
143.408
143.934
144.442
144.929
145.392
145.828
146.232
146.597
146.916
147.183
147.391
147.534
147.626
97.8595
97.8683
97.8896
97.9247
97.9744
98.039
98.1185
98.2131
98.3227
98.4476
98.5879
98.7433
98.914
99.0998
99.3008
99.517
99.7482
99.9944
100.256
100.532
100.823
101.129
101.45
101.786
102.136
102.501
102.881
103.275
103.684
104.106
104.543
104.994
105.459
105.938
106.431
106.938
107.458
107.991
108.539
109.1
109.674
110.263
110.865
111.481
112.112
112.756
113.414
114.085
114.77
115.468
116.178
116.9
117.633
118.376
119.129
119.891
120.662
121.441
122.227
123.019
123.816
124.617
125.422
126.228
127.036
127.844
128.653
129.46
130.265
131.064
131.856
132.637
133.406
134.162
134.906
135.636
136.353
137.056
137.745
138.419
139.078
139.721
140.348
140.959
141.554
142.133
142.696
143.242
143.77
144.281
144.772
145.24
145.683
146.093
146.466
146.794
147.069
147.284
147.432
147.528
97.746
97.7556
97.7786
97.8159
97.8673
97.933
98.0133
98.1084
98.2185
98.3435
98.4836
98.6387
98.8087
98.9938
99.1939
99.4089
99.6388
99.8836
100.143
100.418
100.707
101.011
101.33
101.664
102.012
102.374
102.752
103.143
103.549
103.969
104.404
104.852
105.315
105.791
106.281
106.785
107.303
107.835
108.38
108.939
109.512
110.098
110.699
111.313
111.941
112.583
113.239
113.908
114.59
115.285
115.992
116.712
117.442
118.183
118.933
119.694
120.463
121.239
122.024
122.815
123.612
124.414
125.219
126.027
126.837
127.646
128.455
129.261
130.063
130.859
131.648
132.428
133.197
133.953
134.698
135.429
136.147
136.851
137.54
138.215
138.873
139.516
140.142
140.752
141.344
141.92
142.478
143.019
143.542
144.046
144.531
144.994
145.432
145.84
146.211
146.54
146.817
147.034
147.184
147.28
97.6204
97.6305
97.6546
97.6932
97.7458
97.8123
97.893
97.9883
98.0984
98.2231
98.3626
98.517
98.6862
98.8702
99.069
99.2827
99.5111
99.7544
100.012
100.285
100.572
100.875
101.191
101.522
101.868
102.229
102.603
102.992
103.396
103.813
104.245
104.69
105.15
105.624
106.112
106.613
107.128
107.657
108.2
108.757
109.327
109.911
110.509
111.121
111.747
112.386
113.039
113.705
114.384
115.076
115.78
116.496
117.223
117.961
118.709
119.466
120.233
121.008
121.791
122.581
123.378
124.18
124.987
125.797
126.609
127.421
128.23
129.036
129.837
130.631
131.417
132.195
132.963
133.72
134.465
135.198
135.917
136.622
137.312
137.987
138.645
139.287
139.912
140.518
141.106
141.676
142.226
142.758
143.27
143.761
144.232
144.681
145.104
145.499
145.859
146.178
146.448
146.661
146.808
146.901
97.4823
97.4926
97.5173
97.5567
97.6101
97.677
97.758
97.8534
97.9633
98.0877
98.2267
98.3804
98.5487
98.7317
98.9293
99.1416
99.3685
99.6101
99.8663
100.137
100.422
100.722
101.037
101.365
101.709
102.066
102.438
102.824
103.225
103.639
104.068
104.511
104.968
105.438
105.923
106.421
106.934
107.46
108
108.553
109.121
109.702
110.297
110.906
111.528
112.164
112.813
113.476
114.151
114.839
115.54
116.252
116.975
117.71
118.455
119.209
119.973
120.746
121.526
122.315
123.111
123.912
124.719
125.53
126.343
127.156
127.967
128.773
129.573
130.366
131.152
131.928
132.696
133.453
134.199
134.933
135.653
136.359
137.051
137.727
138.386
139.027
139.65
140.254
140.838
141.401
141.944
142.464
142.963
143.439
143.892
144.321
144.724
145.098
145.438
145.74
145.995
146.196
146.335
146.422
97.3311
97.3416
97.3666
97.4065
97.4603
97.5275
97.6086
97.7039
97.8135
97.9374
98.0758
98.2286
98.3958
98.5776
98.7738
98.9846
99.2098
99.4495
99.7037
99.9724
100.255
100.553
100.865
101.191
101.532
101.886
102.255
102.639
103.036
103.447
103.873
104.312
104.766
105.233
105.715
106.21
106.719
107.241
107.778
108.328
108.892
109.47
110.062
110.667
111.285
111.918
112.563
113.222
113.893
114.577
115.273
115.981
116.7
117.431
118.172
118.923
119.683
120.452
121.23
122.016
122.809
123.609
124.415
125.225
126.037
126.85
127.661
128.467
129.266
130.059
130.844
131.62
132.387
133.144
133.891
134.625
135.347
136.055
136.748
137.425
138.084
138.726
139.348
139.95
140.531
141.089
141.624
142.135
142.621
143.081
143.516
143.924
144.304
144.653
144.97
145.248
145.483
145.668
145.794
145.874
97.1667
97.1773
97.2025
97.2427
97.2966
97.3639
97.4448
97.5399
97.649
97.7724
97.9099
98.0617
98.2278
98.4083
98.603
98.8121
99.0356
99.2733
99.5254
99.7918
100.073
100.367
100.677
101
101.338
101.69
102.055
102.436
102.83
103.238
103.66
104.096
104.546
105.009
105.487
105.978
106.484
107.003
107.535
108.082
108.642
109.216
109.803
110.404
111.019
111.647
112.288
112.942
113.609
114.288
114.98
115.683
116.398
117.124
117.86
118.607
119.363
120.129
120.903
121.685
122.475
123.272
124.075
124.882
125.692
126.503
127.312
128.117
128.916
129.707
130.491
131.266
132.033
132.79
133.536
134.271
134.993
135.702
136.395
137.073
137.733
138.375
138.997
139.597
140.175
140.729
141.258
141.761
142.236
142.683
143.101
143.489
143.846
144.171
144.462
144.716
144.928
145.095
145.208
145.279
96.9891
96.9997
97.025
97.0652
97.1191
97.1862
97.267
97.3616
97.4701
97.5927
97.7294
97.8801
98.0449
98.2239
98.4171
98.6244
98.8459
99.0815
99.3314
99.5954
99.8735
100.166
100.472
100.793
101.127
101.476
101.838
102.215
102.605
103.01
103.428
103.86
104.307
104.766
105.24
105.727
106.228
106.743
107.272
107.814
108.37
108.939
109.522
110.119
110.729
111.352
111.988
112.637
113.299
113.973
114.66
115.358
116.068
116.788
117.52
118.262
119.013
119.774
120.544
121.322
122.107
122.9
123.699
124.502
125.309
126.116
126.922
127.725
128.521
129.311
130.093
130.866
131.631
132.387
133.132
133.866
134.588
135.296
135.989
136.667
137.327
137.968
138.589
139.188
139.764
140.315
140.839
141.334
141.801
142.236
142.639
143.01
143.348
143.651
143.919
144.149
144.339
144.487
144.586
144.649
96.7982
96.8088
96.834
96.8741
96.9278
96.9948
97.0751
97.1691
97.277
97.3987
97.5343
97.6838
97.8472
98.0246
98.2161
98.4215
98.6409
98.8743
99.1217
99.3831
99.6586
99.948
100.251
100.569
100.9
101.245
101.604
101.977
102.364
102.764
103.179
103.607
104.049
104.504
104.974
105.457
105.953
106.464
106.988
107.525
108.076
108.641
109.219
109.81
110.415
111.033
111.663
112.307
112.963
113.632
114.313
115.005
115.709
116.425
117.15
117.887
118.633
119.388
120.153
120.925
121.706
122.494
123.288
124.086
124.888
125.691
126.493
127.291
128.084
128.871
129.65
130.421
131.183
131.936
132.678
133.41
134.13
134.836
135.528
136.204
136.862
137.502
138.121
138.719
139.292
139.839
140.359
140.849
141.307
141.734
142.125
142.482
142.803
143.088
143.336
143.546
143.717
143.848
143.935
143.99
96.594
96.6045
96.6296
96.6695
96.723
96.7895
96.8693
96.9627
97.0698
97.1905
97.3249
97.473
97.635
97.8107
98.0002
98.2036
98.4207
98.6518
98.8966
99.1554
99.4279
99.7143
100.014
100.328
100.656
100.998
101.353
101.722
102.105
102.501
102.911
103.335
103.773
104.224
104.688
105.166
105.658
106.164
106.682
107.215
107.761
108.32
108.892
109.478
110.077
110.689
111.314
111.952
112.602
113.265
113.939
114.626
115.323
116.032
116.752
117.482
118.222
118.971
119.73
120.497
121.271
122.053
122.841
123.635
124.431
125.228
126.025
126.818
127.606
128.388
129.163
129.929
130.687
131.436
132.175
132.903
133.619
134.322
135.011
135.684
136.339
136.976
137.592
138.186
138.756
139.299
139.815
140.3
140.752
141.17
141.553
141.899
142.207
142.477
142.709
142.903
143.058
143.176
143.253
143.302
96.3765
96.387
96.412
96.4516
96.5047
96.5707
96.6499
96.7425
96.8486
96.9682
97.1013
97.248
97.4083
97.5822
97.7697
97.9709
98.1857
98.4142
98.6563
98.9122
99.1817
99.4648
99.7616
100.072
100.396
100.734
101.085
101.45
101.829
102.221
102.626
103.045
103.478
103.924
104.384
104.857
105.343
105.843
106.357
106.884
107.424
107.977
108.544
109.123
109.716
110.322
110.941
111.572
112.215
112.871
113.539
114.218
114.909
115.611
116.324
117.047
117.78
118.523
119.274
120.035
120.803
121.578
122.36
123.146
123.936
124.727
125.517
126.304
127.086
127.862
128.631
129.392
130.145
130.889
131.623
132.346
133.057
133.755
134.439
135.107
135.758
136.39
137.002
137.591
138.156
138.695
139.205
139.685
140.132
140.544
140.919
141.256
141.555
141.814
142.035
142.216
142.36
142.468
142.537
142.582
96.1459
96.1563
96.1811
96.2204
96.2731
96.3385
96.4169
96.5086
96.6137
96.7321
96.8638
97.0089
97.1674
97.3393
97.5247
97.7235
97.9359
98.1617
98.401
98.6538
98.92
99.1998
99.493
99.7998
100.12
100.454
100.801
101.161
101.535
101.923
102.323
102.738
103.165
103.606
104.06
104.528
105.009
105.503
106.011
106.531
107.065
107.613
108.173
108.746
109.332
109.931
110.543
111.167
111.803
112.452
113.112
113.784
114.468
115.162
115.867
116.583
117.308
118.043
118.787
119.54
120.3
121.068
121.842
122.621
123.404
124.188
124.97
125.75
126.525
127.294
128.056
128.81
129.556
130.294
131.021
131.738
132.442
133.134
133.812
134.473
135.118
135.744
136.35
136.934
137.493
138.026
138.53
139.004
139.445
139.851
140.221
140.551
140.843
141.095
141.307
141.481
141.616
141.717
141.781
141.823
95.9023
95.9126
95.9371
95.976
96.0282
96.0929
96.1706
96.2613
96.3652
96.4822
96.6124
96.7558
96.9124
97.0823
97.2654
97.4618
97.6715
97.8945
98.1307
98.3803
98.6432
98.9194
99.2089
99.5117
99.8278
100.157
100.5
100.856
101.225
101.607
102.003
102.412
102.834
103.27
103.718
104.18
104.655
105.143
105.644
106.159
106.686
107.226
107.78
108.346
108.925
109.516
110.12
110.737
111.365
112.006
112.659
113.323
113.998
114.684
115.381
116.088
116.805
117.532
118.267
119.011
119.764
120.523
121.289
122.06
122.834
123.609
124.384
125.155
125.922
126.682
127.436
128.182
128.921
129.65
130.369
131.078
131.775
132.459
133.129
133.784
134.421
135.04
135.638
136.214
136.766
137.292
137.79
138.258
138.693
139.093
139.457
139.782
140.069
140.315
140.522
140.691
140.822
140.919
140.98
141.02
95.6457
95.6559
95.6801
95.7187
95.7702
95.8342
95.911
96.0006
96.1032
96.2188
96.3474
96.489
96.6436
96.8113
96.992
97.1858
97.3927
97.6127
97.8458
98.0921
98.3514
98.6238
98.9094
99.2081
99.5199
99.8447
100.183
100.534
100.898
101.275
101.666
102.069
102.485
102.915
103.357
103.813
104.282
104.763
105.258
105.765
106.285
106.819
107.365
107.923
108.494
109.078
109.674
110.282
110.903
111.535
112.179
112.834
113.5
114.178
114.866
115.564
116.272
116.989
117.715
118.45
119.193
119.943
120.699
121.461
122.226
122.992
123.757
124.519
125.276
126.027
126.772
127.508
128.237
128.957
129.668
130.368
131.056
131.731
132.392
133.037
133.666
134.276
134.865
135.433
135.977
136.495
136.985
137.445
137.874
138.268
138.626
138.947
139.23
139.473
139.677
139.843
139.971
140.066
140.125
140.165
95.3764
95.3864
95.4104
95.4484
95.4993
95.5626
95.6383
95.7268
95.8281
95.9422
96.069
96.2087
96.3612
96.5265
96.7047
96.8958
97.0998
97.3167
97.5465
97.7892
98.0448
98.3133
98.5947
98.8891
99.1964
99.5165
99.8496
100.196
100.555
100.926
101.311
101.709
102.119
102.542
102.978
103.427
103.889
104.364
104.851
105.351
105.864
106.39
106.928
107.478
108.041
108.617
109.204
109.804
110.415
111.038
111.673
112.319
112.975
113.643
114.321
115.009
115.707
116.415
117.131
117.855
118.588
119.328
120.074
120.825
121.58
122.336
123.09
123.841
124.588
125.328
126.062
126.788
127.506
128.215
128.915
129.605
130.282
130.947
131.598
132.233
132.852
133.452
134.032
134.59
135.124
135.633
136.115
136.567
136.988
137.376
137.729
138.045
138.324
138.564
138.766
138.931
139.059
139.153
139.212
139.252
95.0944
95.1043
95.128
95.1655
95.2157
95.2781
95.3528
95.44
95.5399
95.6523
95.7774
95.915
96.0653
96.2282
96.4038
96.592
96.793
97.0066
97.2329
97.4719
97.7236
97.988
98.2651
98.555
98.8575
99.1728
99.5007
99.8414
100.195
100.561
100.94
101.331
101.735
102.152
102.581
103.023
103.478
103.945
104.425
104.918
105.422
105.94
106.469
107.011
107.566
108.132
108.71
109.301
109.902
110.516
111.141
111.776
112.423
113.08
113.748
114.425
115.113
115.809
116.514
117.228
117.949
118.678
119.413
120.153
120.896
121.64
122.383
123.122
123.856
124.585
125.306
126.02
126.726
127.424
128.112
128.789
129.455
130.108
130.748
131.371
131.978
132.567
133.136
133.683
134.207
134.706
135.178
135.621
136.034
136.415
136.762
137.073
137.348
137.587
137.787
137.951
138.079
138.174
138.233
138.273
94.8
94.8098
94.833
94.87
94.9195
94.9809
95.0545
95.1405
95.2388
95.3496
95.4727
95.6082
95.7562
95.9165
96.0894
96.2746
96.4724
96.6826
96.9053
97.1404
97.3881
97.6482
97.9208
98.206
98.5036
98.8137
99.1363
99.4714
99.8189
100.179
100.552
100.937
101.334
101.744
102.166
102.601
103.048
103.508
103.98
104.464
104.96
105.469
105.99
106.523
107.068
107.625
108.193
108.774
109.365
109.968
110.583
111.208
111.843
112.49
113.146
113.812
114.487
115.172
115.865
116.567
117.276
117.993
118.715
119.443
120.173
120.904
121.634
122.361
123.082
123.796
124.504
125.205
125.897
126.581
127.256
127.92
128.573
129.213
129.839
130.45
131.044
131.62
132.177
132.712
133.225
133.712
134.174
134.608
135.011
135.384
135.724
136.03
136.301
136.536
136.735
136.899
137.026
137.122
137.181
137.222
94.4933
94.5029
94.5258
94.5622
94.6109
94.6714
94.7438
94.8284
94.9252
95.0341
95.1552
95.2885
95.434
95.5917
95.7617
95.9439
96.1383
96.3449
96.5638
96.795
97.0384
97.2941
97.5621
97.8423
98.1348
98.4395
98.7565
99.0858
99.4273
99.7811
100.147
100.525
100.916
101.319
101.734
102.161
102.6
103.051
103.515
103.991
104.478
104.978
105.49
106.013
106.548
107.095
107.653
108.223
108.804
109.396
109.999
110.613
111.237
111.871
112.515
113.169
113.832
114.504
115.184
115.873
116.569
117.272
117.982
118.695
119.412
120.13
120.845
121.557
122.264
122.963
123.656
124.341
125.019
125.688
126.347
126.997
127.635
128.26
128.871
129.468
130.048
130.61
131.153
131.675
132.175
132.65
133.1
133.523
133.917
134.28
134.612
134.912
135.178
135.409
135.606
135.769
135.896
135.992
136.051
136.093
94.1745
94.184
94.2065
94.2423
94.2902
94.3496
94.4208
94.5039
94.5991
94.7061
94.8252
94.9562
95.0991
95.2541
95.421
95.6
95.7909
95.9939
96.2089
96.4359
96.6749
96.926
97.1891
97.4642
97.7514
98.0505
98.3617
98.685
99.0202
99.3675
99.7267
100.098
100.481
100.876
101.284
101.703
102.134
102.577
103.032
103.498
103.977
104.467
104.969
105.482
106.007
106.543
107.09
107.649
108.219
108.799
109.39
109.992
110.603
111.225
111.856
112.497
113.147
113.805
114.472
115.146
115.828
116.517
117.212
117.911
118.613
119.315
120.016
120.712
121.402
122.085
122.761
123.43
124.091
124.743
125.386
126.018
126.64
127.248
127.844
128.424
128.988
129.535
130.063
130.57
131.055
131.517
131.954
132.364
132.747
133.1
133.423
133.715
133.975
134.202
134.395
134.555
134.682
134.777
134.837
134.879
93.8439
93.8532
93.8753
93.9104
93.9574
94.0158
94.0857
94.1674
94.2608
94.3659
94.4828
94.6113
94.7516
94.9037
95.0676
95.2432
95.4305
95.6297
95.8406
96.0633
96.2978
96.5441
96.8021
97.072
97.3536
97.647
97.9522
98.2691
98.5978
98.9383
99.2905
99.6545
100.03
100.418
100.817
101.227
101.65
102.084
102.53
102.987
103.456
103.936
104.427
104.93
105.444
105.969
106.505
107.052
107.61
108.178
108.756
109.345
109.944
110.552
111.17
111.796
112.432
113.076
113.728
114.387
115.054
115.727
116.406
117.09
117.776
118.462
119.145
119.824
120.497
121.162
121.82
122.47
123.112
123.746
124.37
124.984
125.587
126.177
126.754
127.317
127.863
128.392
128.903
129.394
129.863
130.309
130.732
131.128
131.498
131.84
132.153
132.435
132.687
132.908
133.097
133.254
133.378
133.472
133.531
133.573
93.5015
93.5106
93.5324
93.5668
93.613
93.6702
93.7388
93.8189
93.9105
94.0136
94.1282
94.2543
94.3919
94.541
94.7016
94.8737
95.0574
95.2526
95.4593
95.6776
95.9074
96.1487
96.4015
96.6659
96.9418
97.2292
97.5281
97.8385
98.1605
98.4939
98.8388
99.1952
99.563
99.9423
100.333
100.735
101.149
101.573
102.009
102.457
102.915
103.385
103.866
104.358
104.86
105.374
105.898
106.432
106.977
107.533
108.098
108.673
109.258
109.852
110.455
111.067
111.687
112.316
112.952
113.596
114.246
114.903
115.565
116.232
116.9
117.568
118.234
118.894
119.547
120.193
120.831
121.461
122.082
122.696
123.299
123.893
124.475
125.045
125.602
126.144
126.671
127.181
127.672
128.144
128.595
129.025
129.43
129.811
130.167
130.495
130.796
131.067
131.31
131.523
131.705
131.857
131.978
132.07
132.127
132.169
93.1478
93.1567
93.178
93.2118
93.257
93.3131
93.3803
93.4587
93.5485
93.6495
93.7618
93.8853
94.02
94.1661
94.3234
94.4919
94.6718
94.8629
95.0653
95.2789
95.5038
95.74
95.9875
96.2462
96.5162
96.7974
97.0899
97.3936
97.7085
98.0346
98.372
98.7205
99.0802
99.451
99.833
100.226
100.63
101.045
101.472
101.909
102.357
102.815
103.285
103.765
104.256
104.757
105.269
105.791
106.322
106.864
107.415
107.976
108.546
109.125
109.713
110.31
110.914
111.526
112.146
112.772
113.405
114.045
114.689
115.337
115.987
116.636
117.282
117.922
118.554
119.179
119.795
120.402
121.002
121.592
122.173
122.744
123.304
123.851
124.385
124.905
125.41
125.898
126.368
126.819
127.25
127.659
128.046
128.409
128.748
129.06
129.346
129.605
129.837
130.039
130.214
130.359
130.475
130.563
130.618
130.659
92.7828
92.7915
92.8123
92.8454
92.8897
92.9446
93.0104
93.0872
93.175
93.2738
93.3837
93.5045
93.6364
93.7792
93.9331
94.098
94.2739
94.4608
94.6587
94.8676
95.0876
95.3185
95.5604
95.8133
96.0771
96.352
96.6378
96.9345
97.2422
97.5608
97.8903
98.2307
98.582
98.9441
99.317
99.7007
100.095
100.5
100.916
101.343
101.78
102.227
102.685
103.153
103.632
104.12
104.619
105.127
105.645
106.172
106.709
107.255
107.81
108.373
108.945
109.524
110.112
110.707
111.309
111.917
112.532
113.152
113.777
114.405
115.035
115.664
116.289
116.907
117.518
118.119
118.711
119.295
119.869
120.435
120.992
121.537
122.072
122.594
123.103
123.598
124.078
124.541
124.987
125.414
125.822
126.209
126.574
126.917
127.236
127.53
127.799
128.043
128.26
128.451
128.615
128.752
128.86
128.944
128.996
129.035
92.4068
92.4153
92.4357
92.468
92.5113
92.565
92.6293
92.7044
92.7902
92.8869
92.9942
93.1123
93.2412
93.3808
93.5311
93.6922
93.8641
94.0467
94.24
94.444
94.6588
94.8843
95.1204
95.3673
95.6249
95.8932
96.1721
96.4617
96.7619
97.0727
97.3941
97.7261
98.0687
98.4218
98.7854
99.1594
99.5439
99.9387
100.344
100.759
101.185
101.621
102.066
102.522
102.987
103.463
103.947
104.442
104.945
105.458
105.979
106.509
107.048
107.595
108.15
108.712
109.282
109.858
110.441
111.031
111.626
112.226
112.831
113.438
114.046
114.653
115.256
115.851
116.437
117.013
117.58
118.137
118.685
119.224
119.753
120.271
120.778
121.273
121.754
122.221
122.672
123.108
123.527
123.927
124.308
124.67
125.01
125.329
125.625
125.898
126.147
126.372
126.573
126.749
126.9
127.026
127.126
127.203
127.25
127.287
92.0201
92.0284
92.0483
92.0799
92.1221
92.1746
92.2374
92.3107
92.3945
92.4889
92.5937
92.709
92.8347
92.971
93.1177
93.2749
93.4426
93.6207
93.8093
94.0083
94.2178
94.4377
94.668
94.9087
95.1599
95.4214
95.6932
95.9754
96.2679
96.5708
96.8839
97.2072
97.5408
97.8846
98.2385
98.6026
98.9767
99.3608
99.7549
100.159
100.573
100.996
101.429
101.872
102.324
102.786
103.256
103.736
104.224
104.721
105.227
105.741
106.262
106.792
107.329
107.873
108.424
108.981
109.544
110.113
110.688
111.267
111.85
112.435
113.021
113.604
114.182
114.752
115.313
115.863
116.401
116.93
117.449
117.958
118.457
118.945
119.422
119.885
120.336
120.771
121.192
121.597
121.984
122.354
122.706
123.038
123.349
123.64
123.91
124.158
124.383
124.586
124.767
124.924
125.059
125.172
125.261
125.33
125.371
125.405
91.6229
91.631
91.6504
91.6812
91.7224
91.7736
91.8348
91.9063
91.9881
92.0801
92.1822
92.2947
92.4173
92.5501
92.6931
92.8463
93.0097
93.1833
93.367
93.5609
93.765
93.9792
94.2034
94.4378
94.6823
94.9369
95.2015
95.4761
95.7607
96.0553
96.3599
96.6743
96.9987
97.3329
97.6769
98.0306
98.394
98.7671
99.1498
99.5419
99.9435
100.354
100.775
101.204
101.642
102.089
102.545
103.01
103.482
103.963
104.452
104.949
105.453
105.964
106.483
107.008
107.539
108.076
108.619
109.166
109.719
110.275
110.835
111.397
111.958
112.517
113.069
113.613
114.146
114.666
115.175
115.673
116.161
116.638
117.104
117.559
118.002
118.432
118.847
119.249
119.634
120.004
120.357
120.692
121.009
121.308
121.586
121.845
122.084
122.302
122.499
122.675
122.831
122.967
123.082
123.178
123.253
123.312
123.346
123.377
91.2154
91.2234
91.2423
91.2723
91.3124
91.3623
91.4219
91.4915
91.5712
91.6607
91.7603
91.8697
91.9891
92.1184
92.2576
92.4068
92.5658
92.7347
92.9135
93.1021
93.3006
93.5089
93.727
93.9549
94.1926
94.4401
94.6972
94.9641
95.2406
95.5267
95.8225
96.1278
96.4427
96.767
97.1008
97.4439
97.7964
98.1581
98.529
98.909
99.298
99.6959
100.103
100.518
100.942
101.374
101.815
102.264
102.72
103.184
103.656
104.135
104.621
105.113
105.612
106.117
106.628
107.143
107.664
108.189
108.719
109.252
109.787
110.324
110.86
111.392
111.917
112.432
112.935
113.425
113.902
114.367
114.82
115.262
115.693
116.112
116.518
116.91
117.288
117.65
117.997
118.328
118.642
118.938
119.216
119.475
119.715
119.937
120.139
120.321
120.485
120.63
120.756
120.865
120.956
121.032
121.09
121.135
121.16
121.187
90.798
90.8058
90.8241
90.8533
90.8924
90.9409
90.9989
91.0666
91.1441
91.2312
91.328
91.4344
91.5505
91.6762
91.8116
91.9565
92.1111
92.2752
92.4489
92.6322
92.825
93.0273
93.2391
93.4604
93.6911
93.9313
94.1808
94.4397
94.7079
94.9854
95.2722
95.5682
95.8733
96.1875
96.5108
96.8431
97.1843
97.5343
97.8931
98.2605
98.6366
99.0211
99.4139
99.815
100.224
100.641
101.066
101.498
101.938
102.385
102.839
103.299
103.766
104.239
104.718
105.202
105.691
106.184
106.682
107.184
107.689
108.197
108.707
109.217
109.726
110.23
110.726
111.211
111.683
112.14
112.583
113.012
113.428
113.832
114.224
114.603
114.969
115.32
115.655
115.975
116.279
116.566
116.835
117.087
117.32
117.535
117.731
117.908
118.067
118.208
118.332
118.439
118.53
118.606
118.668
118.718
118.755
118.784
118.798
118.819
90.371
90.3785
90.3963
90.4247
90.4626
90.5097
90.5661
90.6319
90.7071
90.7917
90.8857
90.9891
91.1018
91.2238
91.3552
91.4959
91.6459
91.8052
91.9737
92.1515
92.3385
92.5347
92.7401
92.9546
93.1782
93.4109
93.6527
93.9034
94.1632
94.4318
94.7094
94.9958
95.2909
95.5948
95.9073
96.2284
96.5581
96.8961
97.2425
97.5971
97.9598
98.3305
98.7091
99.0955
99.4894
99.8907
100.299
100.715
101.137
101.566
102.001
102.443
102.89
103.342
103.8
104.262
104.729
105.199
105.673
106.15
106.63
107.112
107.594
108.077
108.557
109.032
109.497
109.951
110.389
110.811
111.217
111.608
111.984
112.347
112.697
113.033
113.354
113.66
113.949
114.222
114.477
114.715
114.935
115.135
115.318
115.481
115.626
115.753
115.861
115.953
116.029
116.09
116.138
116.174
116.2
116.219
116.229
116.239
116.238
116.253
89.9344
89.9417
89.9591
89.9866
90.0234
90.0691
90.1237
90.1876
90.2605
90.3426
90.4337
90.5339
90.6432
90.7615
90.8889
91.0253
91.1706
91.3249
91.4882
91.6604
91.8415
92.0314
92.2302
92.4379
92.6542
92.8793
93.1132
93.3556
93.6067
93.8663
94.1345
94.4111
94.696
94.9893
95.2908
95.6005
95.9183
96.2441
96.5777
96.9191
97.2682
97.6248
97.9888
98.3599
98.7382
99.1233
99.5151
99.9133
100.318
100.728
101.144
101.566
101.992
102.424
102.86
103.299
103.743
104.189
104.638
105.09
105.543
105.997
106.451
106.905
107.355
107.798
108.232
108.651
109.054
109.439
109.806
110.155
110.489
110.808
111.112
111.401
111.674
111.93
112.169
112.389
112.591
112.774
112.937
113.081
113.205
113.31
113.395
113.462
113.512
113.546
113.564
113.571
113.566
113.553
113.535
113.515
113.493
113.477
113.459
113.466
89.4888
89.4959
89.5126
89.5393
89.575
89.6192
89.6722
89.734
89.8046
89.8841
89.9723
90.0694
90.1752
90.2897
90.4129
90.5449
90.6855
90.8348
90.9927
91.1592
91.3343
91.5179
91.71
91.9106
92.1196
92.337
92.5627
92.7967
93.0389
93.2894
93.5479
93.8145
94.0891
94.3715
94.6618
94.9599
95.2655
95.5787
95.8994
96.2273
96.5624
96.9045
97.2535
97.6091
97.9713
98.3397
98.7143
99.0947
99.4807
99.8721
100.268
100.67
101.075
101.485
101.898
102.314
102.733
103.155
103.578
104.003
104.428
104.854
105.279
105.701
106.119
106.53
106.93
107.314
107.68
108.025
108.35
108.656
108.944
109.215
109.47
109.708
109.929
110.131
110.313
110.476
110.618
110.74
110.84
110.919
110.977
111.014
111.032
111.03
111.01
110.974
110.925
110.865
110.797
110.724
110.651
110.583
110.52
110.472
110.432
110.428
89.0343
89.0411
89.0574
89.0831
89.1176
89.1604
89.2116
89.2714
89.3397
89.4166
89.5019
89.5956
89.6979
89.8086
89.9276
90.0551
90.1909
90.3351
90.4875
90.6483
90.8172
90.9944
91.1797
91.3731
91.5746
91.7842
92.0016
92.227
92.4603
92.7013
92.9501
93.2065
93.4705
93.742
94.0208
94.307
94.6003
94.9007
95.208
95.5221
95.8429
96.1702
96.5038
96.8436
97.1893
97.5407
97.8976
98.2598
98.6268
98.9986
99.3747
99.7548
100.139
100.526
100.915
101.308
101.702
102.097
102.494
102.891
103.287
103.683
104.077
104.468
104.853
105.229
105.593
105.94
106.267
106.571
106.852
107.111
107.35
107.57
107.772
107.955
108.119
108.262
108.383
108.482
108.558
108.611
108.641
108.647
108.63
108.591
108.529
108.447
108.346
108.228
108.097
107.957
107.811
107.665
107.524
107.395
107.281
107.192
107.124
107.106
88.5712
88.5778
88.5935
88.6184
88.6517
88.693
88.7425
88.8001
88.8661
88.9403
89.0226
89.1131
89.2117
89.3185
89.4333
89.5563
89.6872
89.8262
89.9731
90.128
90.2907
90.4613
90.6398
90.8259
91.0198
91.2213
91.4305
91.6471
91.8713
92.1028
92.3416
92.5877
92.8409
93.1011
93.3683
93.6423
93.9231
94.2104
94.5042
94.8043
95.1105
95.4227
95.7406
96.0641
96.393
96.727
97.0658
97.4092
97.7569
98.1086
98.4638
98.8224
99.1838
99.5477
99.9135
100.281
100.649
101.018
101.387
101.755
102.121
102.486
102.848
103.205
103.556
103.896
104.223
104.531
104.816
105.077
105.311
105.521
105.709
105.874
106.019
106.143
106.245
106.323
106.378
106.407
106.411
106.388
106.339
106.263
106.161
106.034
105.881
105.705
105.509
105.294
105.066
104.829