/*--------------------------------*- C++ -*----------------------------------*\
| =========                 |                                                 |
| \\      /  F ield         | OpenFOAM: The Open Source CFD Toolbox           |
|  \\    /   O peration     | Version:  4.1                                   |
|   \\  /    A nd           | Web:      www.OpenFOAM.org                      |
|    \\/     M anipulation  |                                                 |
\*---------------------------------------------------------------------------*/
FoamFile
{
    version     2.0;
    format      ascii;
    class       surfaceScalarField;
    location    "0.15";
    object      phi;
}
// * * * * * * * * * * * * * * * * * * * * * * * * * * * * * * * * * * * * * //

dimensions      [0 3 -1 0 0 0 0];

internalField   nonuniform List<scalar> 
87025
(
0.0199667
3.33386e-05
0.0199107
5.59354e-05
0.0198437
6.70023e-05
0.0197676
7.60842e-05
0.019683
8.46037e-05
0.0195907
9.23607e-05
0.0194913
9.94082e-05
0.0193852
0.000106028
0.0192728
0.00011242
0.0191542
0.000118655
0.0190294
0.000124762
0.0188986
0.000130772
0.0187619
0.000136719
0.0186193
0.000142634
0.0184707
0.000148545
0.0183163
0.000154474
0.0181558
0.000160443
0.0179893
0.000166475
0.0178167
0.000172591
0.0176379
0.000178807
0.0174528
0.000185143
0.0172612
0.000191611
0.017063
0.000198227
0.016858
0.000205001
0.016646
0.000211943
0.016427
0.000219055
0.0162006
0.000226334
0.0159669
0.00023377
0.0157255
0.000241343
0.0154765
0.000249019
0.0152197
0.000256753
0.0149553
0.000264483
0.0146831
0.000272135
0.0144035
0.000279614
0.0141167
0.000286802
0.0138231
0.000293564
0.0135234
0.000299747
0.0132182
0.000305187
0.0129085
0.000309716
0.0125953
0.00031317
0.0122799
0.00031541
0.0119636
0.000316331
0.0116477
0.000315891
0.0113336
0.000314125
0.0110224
0.000311168
0.0107151
0.000307262
0.0104124
0.000302759
0.0101143
0.000298098
0.00982051
0.000293772
0.00953026
0.000290253
0.00924234
0.000287912
0.00895543
0.000286915
0.00866828
0.000287153
0.00838004
0.00028824
0.00809044
0.0002896
0.00779977
0.000290663
0.0075087
0.000291075
0.00721786
0.000290843
0.00692753
0.000290325
0.00663749
0.00029004
0.00634709
0.000290399
0.00605561
0.000291486
0.00576261
0.000292994
0.00546824
0.00029437
0.00517317
0.000295067
0.00487839
0.000294788
0.00458482
0.000293567
0.00429314
0.000291675
0.00400373
0.000289417
0.00371677
0.000286956
0.00343251
0.000284262
0.00315133
0.000281178
0.00287381
0.000277524
0.00260063
0.000273173
0.00233257
0.000268058
0.00207043
0.000262148
0.001815
0.000255427
0.00156711
0.000247884
0.00132761
0.000239508
0.00109732
0.000230286
0.000877126
0.000220195
0.000667929
0.000209196
0.000470697
0.000197232
0.00028647
0.000184227
0.000116385
0.000170085
-3.83042e-05
0.000154689
-0.000176293
0.000137989
-0.000296299
0.000120006
-0.000396638
0.00010034
-0.000475714
7.90755e-05
-0.000532019
5.63051e-05
-0.000564166
3.2147e-05
-0.000570755
6.58916e-06
-0.000551187
-1.95677e-05
-0.00050612
-4.50676e-05
-0.000438315
-6.78044e-05
-0.000351451
-8.68642e-05
-0.00025207
-9.93808e-05
-0.000139878
-0.000112192
-0.000139878
0.0200238
9.58396e-06
0.0200531
2.65801e-05
0.0200819
3.82147e-05
0.0201102
4.77814e-05
0.0201376
5.71972e-05
0.0201635
6.64839e-05
0.0201874
7.54581e-05
0.0202092
8.4232e-05
0.0202287
9.29799e-05
0.0202455
0.000101786
0.0202596
0.000110674
0.0202707
0.000119664
0.0202787
0.000128781
0.0202833
0.000138047
0.0202843
0.000147479
0.0202817
0.000157094
0.0202752
0.00016691
0.0202648
0.000176944
0.0202501
0.000187217
0.0202312
0.000197753
0.0202078
0.000208572
0.0201797
0.000219696
0.0201468
0.000231149
0.0201088
0.000242954
0.0200656
0.000255136
0.020017
0.000267715
0.0199626
0.000280711
0.0199022
0.000294137
0.0198356
0.000307998
0.0197623
0.000322293
0.019682
0.000337003
0.0195944
0.0003521
0.019499
0.000367534
0.0193954
0.000383235
0.0192831
0.000399105
0.0191616
0.000415021
0.0190306
0.000430832
0.0188894
0.000446359
0.0187377
0.000461405
0.0185751
0.00047576
0.0184013
0.00048922
0.018216
0.0005016
0.0180192
0.00051276
0.0178106
0.00052263
0.0175906
0.000531229
0.0173592
0.000538685
0.0171167
0.000545237
0.0168636
0.000551224
0.0166003
0.000557052
0.0163274
0.000563132
0.0160455
0.000569806
0.0157551
0.000577271
0.0154568
0.000585517
0.0151507
0.000594322
0.014837
0.000603315
0.0145155
0.00061211
0.0141861
0.000620472
0.0138485
0.000628444
0.0135025
0.000636363
0.0131478
0.000644695
0.0127845
0.000653742
0.0124127
0.000663329
0.012033
0.000672653
0.0116469
0.000680443
0.0112566
0.000685424
0.0108645
0.000686911
0.0104728
0.000685192
0.010083
0.00068147
0.00969509
0.000677356
0.00930789
0.000674161
0.00891976
0.000672388
0.00852927
0.00067167
0.0081357
0.000671091
0.00773921
0.000669665
0.0073406
0.000666665
0.00694103
0.000661722
0.00654173
0.000654724
0.00614394
0.000645678
0.00574885
0.000634594
0.00535769
0.000621452
0.00497168
0.0006062
0.00459211
0.000588771
0.00422025
0.000569087
0.00385743
0.000547053
0.00350495
0.000522558
0.00316409
0.000495552
0.00283612
0.000465959
0.00252239
0.000433737
0.00222393
0.000398802
0.00194177
0.000361235
0.00167675
0.000321319
0.00142935
0.000279545
0.00119929
0.000236658
0.000985937
0.000193781
0.000788577
0.000152292
0.000606701
0.000114072
0.000438951
8.08855e-05
0.000283887
5.56835e-05
0.000136853
3.48407e-05
-3.02445e-06
0.0200005
9.05934e-06
0.0200007
2.63913e-05
0.0199978
4.11335e-05
0.0199916
5.40072e-05
0.0199825
6.62578e-05
0.0199707
7.82584e-05
0.0199562
8.99473e-05
0.0199391
0.000101361
0.0199195
0.000112632
0.0198974
0.00012386
0.019873
0.000135086
0.0198463
0.000146333
0.0198175
0.000157627
0.0197865
0.000168991
0.0197535
0.000180448
0.0197186
0.000192016
0.0196818
0.000203714
0.0196432
0.000215562
0.0196028
0.000227581
0.0195608
0.000239792
0.0195172
0.000252219
0.019472
0.000264887
0.0194253
0.000277818
0.0193772
0.000291039
0.0193278
0.000304573
0.019277
0.000318444
0.0192251
0.000332677
0.0191719
0.00034729
0.0191176
0.000362302
0.0190622
0.000377723
0.0190056
0.000393557
0.0189479
0.000409799
0.018889
0.000426435
0.0188288
0.000443437
0.0187672
0.000460763
0.0187038
0.000478356
0.0186385
0.000496141
0.0185709
0.000514027
0.0185004
0.000531909
0.0184264
0.000549672
0.0183485
0.000567201
0.0182657
0.000584389
0.0181773
0.000601154
0.0180825
0.000617447
0.0179804
0.000633273
0.0178704
0.000648697
0.0177518
0.000663851
0.0176241
0.000678926
0.017487
0.000694155
0.0173403
0.000709776
0.0171842
0.000725992
0.0170185
0.000742919
0.0168435
0.000760554
0.016659
0.000778769
0.016465
0.000797337
0.0162611
0.000816004
0.016047
0.000834576
0.0158224
0.00085301
0.0155874
0.000871457
0.0153418
0.00089024
0.0150858
0.00090974
0.014819
0.000930172
0.0145403
0.000951333
0.0142483
0.000972394
0.0139418
0.000991936
0.0136204
0.00100831
0.0132853
0.00102027
0.0129392
0.0010276
0.0125852
0.00103134
0.012226
0.00103339
0.0118627
0.00103568
0.011495
0.00103934
0.0111218
0.00104434
0.0107417
0.00104972
0.0103542
0.00105421
0.0099591
0.00105681
0.00955688
0.00105694
0.00914815
0.00105441
0.00873356
0.00104919
0.00831379
0.00104122
0.00788956
0.00103043
0.00746164
0.0010167
0.00703081
0.000999909
0.00659792
0.000979948
0.00616375
0.000956728
0.00572912
0.00093018
0.00529484
0.000900238
0.00486171
0.000866865
0.00443047
0.000830043
0.00400185
0.000789858
0.00357661
0.000746561
0.00315554
0.000700611
0.00273946
0.000652745
0.00232913
0.000604104
0.00192521
0.000556216
0.00152827
0.000511016
0.00113833
0.000470823
0.00075571
0.000438301
0.000376908
0.000413642
0.000373884
0.0199997
9.38524e-06
0.0199981
2.7957e-05
0.0199939
4.53451e-05
0.0199864
6.15026e-05
0.0199757
7.6988e-05
0.0199618
9.21665e-05
0.0199446
0.000107092
0.0199242
0.000121781
0.0199005
0.000136312
0.0198736
0.00015077
0.0198435
0.000165206
0.0198102
0.000179648
0.0197737
0.000194118
0.019734
0.00020864
0.0196913
0.000223231
0.0196454
0.00023791
0.0195964
0.000252693
0.0195443
0.000267595
0.0194893
0.000282634
0.0194313
0.000297828
0.0193703
0.000313196
0.0193064
0.000328755
0.0192397
0.000344523
0.0191702
0.000360518
0.019098
0.000376756
0.0190232
0.000393251
0.0189459
0.000410016
0.0188661
0.000427062
0.018784
0.000444395
0.0186997
0.000462018
0.0186134
0.000479923
0.0185251
0.000498099
0.018435
0.000516526
0.0183432
0.000535175
0.01825
0.00055401
0.0181554
0.000572984
0.0180595
0.000592044
0.0179624
0.00061113
0.0178641
0.000630177
0.0177646
0.000649125
0.0176639
0.000667916
0.0175618
0.000686511
0.0174581
0.000704888
0.0173525
0.000723059
0.0172447
0.000741069
0.0171344
0.000759005
0.0170212
0.00077699
0.016905
0.000795181
0.0167854
0.000813753
0.0166623
0.000832874
0.0165356
0.000852686
0.0164052
0.000873271
0.0162711
0.000894638
0.0161332
0.000916721
0.0159911
0.000939393
0.0158446
0.00096249
0.0156934
0.00098583
0.0155372
0.00100925
0.015376
0.00103263
0.0152102
0.001056
0.0150403
0.00107967
0.0148662
0.0011043
0.0146867
0.00113075
0.0144994
0.00115972
0.0143002
0.00119111
0.0140849
0.00122367
0.0138501
0.00125509
0.0135948
0.00128284
0.0133209
0.00130526
0.013032
0.0013223
0.0127322
0.00133542
0.0124248
0.00134674
0.0121113
0.00135792
0.0117915
0.00136953
0.0114645
0.00138117
0.0111293
0.00139197
0.0107852
0.00140112
0.0104314
0.00140815
0.0100678
0.00141284
0.00969386
0.00141512
0.00930939
0.00141489
0.00891404
0.00141205
0.00850752
0.00140644
0.00808952
0.00139795
0.00765978
0.00138646
0.00721808
0.00137189
0.0067642
0.00135411
0.00629803
0.00133304
0.00581952
0.00130855
0.00532882
0.00128056
0.00482633
0.00124905
0.0043128
0.00121414
0.0037894
0.00117615
0.00325776
0.00113575
0.0027199
0.00109408
0.00217805
0.00105286
0.00163437
0.0010145
0.00109089
0.000981778
0.000546798
0.000957736
0.000920682
0.0199991
1.02355e-05
0.0199964
3.0696e-05
0.0199912
5.05639e-05
0.019983
6.96613e-05
0.0199718
8.81872e-05
0.0199576
0.000106391
0.0199403
0.000124373
0.0199199
0.000142164
0.0198964
0.000159814
0.0198698
0.000177392
0.0198401
0.000194949
0.0198072
0.000212519
0.0197712
0.000230124
0.0197321
0.000247788
0.0196898
0.000265529
0.0196443
0.000283366
0.0195957
0.000301315
0.0195439
0.000319393
0.0194889
0.000337618
0.0194307
0.000356007
0.0193693
0.00037458
0.0193047
0.000393355
0.0192369
0.000412348
0.0191658
0.000431576
0.0190915
0.000451055
0.019014
0.000470795
0.0189332
0.000490809
0.0188492
0.000511101
0.0187619
0.000531676
0.0186714
0.00055253
0.0185776
0.000573654
0.0184807
0.000595031
0.0183806
0.000616636
0.0182773
0.000638438
0.018171
0.000660398
0.0180615
0.000682469
0.0179489
0.000704598
0.0178333
0.000726729
0.0177147
0.000748804
0.017593
0.000770769
0.0174684
0.000792577
0.0173407
0.000814195
0.01721
0.000835611
0.0170762
0.000856835
0.0169394
0.000877908
0.0167995
0.000898899
0.0166566
0.000919906
0.0165107
0.000941048
0.016362
0.000962454
0.0162106
0.000984245
0.0160568
0.00100652
0.0159007
0.00102935
0.0157426
0.00105274
0.0155827
0.00107666
0.015421
0.00110105
0.0152577
0.00112579
0.0150928
0.00115071
0.0149265
0.00117555
0.0147592
0.00119998
0.0145914
0.00122381
0.0144239
0.00124718
0.0142572
0.001271
0.014091
0.00129695
0.0139235
0.00132714
0.0137515
0.00136316
0.0135701
0.001405
0.0133748
0.00145043
0.0131621
0.0014955
0.0129314
0.001536
0.0126845
0.00156923
0.012425
0.00159492
0.0121568
0.00161493
0.0118828
0.00163191
0.0116043
0.00164799
0.0113214
0.0016641
0.0110333
0.00168013
0.0107389
0.00169554
0.0104372
0.00170981
0.0101273
0.00172271
0.0098083
0.00173414
0.00947911
0.00174409
0.00913863
0.00175253
0.00878564
0.00175943
0.00841885
0.00176474
0.00803688
0.00176843
0.0076383
0.00177046
0.00722166
0.00177075
0.00678552
0.00176918
0.00632853
0.00176554
0.00584953
0.00175955
0.00534774
0.00175085
0.00482286
0.00173902
0.00427532
0.00172369
0.00370637
0.00170469
0.00311817
0.00168228
0.0025137
0.00165733
0.00189652
0.00163168
0.00127052
0.00160778
0.000637846
0.00159041
0.00155853
0.0199989
1.13356e-05
0.0199956
3.4001e-05
0.0199898
5.63357e-05
0.0199813
7.81938e-05
0.0199698
9.96294e-05
0.0199555
0.000120784
0.0199381
0.000141752
0.0199177
0.000162571
0.0198942
0.000183281
0.0198677
0.000203929
0.0198381
0.000224563
0.0198054
0.000245215
0.0197696
0.000265907
0.0197307
0.000286661
0.0196887
0.000307495
0.0196437
0.000328427
0.0195955
0.000349474
0.0195443
0.000370654
0.0194899
0.000391987
0.0194324
0.00041349
0.0193718
0.000435184
0.0193081
0.000457089
0.0192412
0.000479223
0.0191712
0.000501606
0.019098
0.000524253
0.0190216
0.000547178
0.018942
0.000570395
0.0188592
0.00059391
0.0187731
0.00061773
0.0186838
0.000641854
0.0185912
0.000666277
0.0184952
0.000690986
0.0183959
0.000715962
0.0182932
0.00074118
0.0181869
0.000766609
0.0180772
0.000792211
0.0179639
0.000817945
0.0178468
0.000843764
0.017726
0.000869624
0.0176013
0.00089548
0.0174726
0.000921295
0.0173397
0.00094704
0.0172026
0.000972702
0.0170612
0.000998282
0.0169153
0.0010238
0.0167649
0.00104931
0.0166099
0.00107485
0.0164505
0.00110051
0.0162866
0.00112636
0.0161183
0.00115247
0.015946
0.00117889
0.0157697
0.00120565
0.0155897
0.00123273
0.0154062
0.00126011
0.0152196
0.00128769
0.01503
0.00131537
0.0148378
0.00134292
0.0146433
0.00137004
0.0144469
0.00139633
0.0142492
0.00142159
0.0140503
0.00144606
0.0138505
0.00147083
0.0136494
0.00149796
0.0134465
0.00153009
0.0132402
0.00156946
0.0130286
0.00161662
0.0128094
0.00166963
0.0125807
0.00172421
0.0123415
0.0017752
0.0120921
0.00181856
0.0118342
0.00185284
0.0115698
0.00187931
0.011301
0.00190076
0.011029
0.00191996
0.0107545
0.00193862
0.0104774
0.00195728
0.0101971
0.00197576
0.00991316
0.00199378
0.00962471
0.00201116
0.00933089
0.00202796
0.00903069
0.00204428
0.00872293
0.00206029
0.00840622
0.00207614
0.00807897
0.00209199
0.00773936
0.00210804
0.00738539
0.00212444
0.00701481
0.00214133
0.00662525
0.00215874
0.00621421
0.00217658
0.00577922
0.00219454
0.00531801
0.00221207
0.00482869
0.00222833
0.0043101
0.00224228
0.00376202
0.00225277
0.00318549
0.00225881
0.0025829
0.00225992
0.00195798
0.0022566
0.00131569
0.00225007
0.000660754
0.00224534
0.00221928
0.0199988
1.25428e-05
0.0199952
3.76097e-05
0.019989
6.24775e-05
0.0199802
8.70495e-05
0.0199685
0.000111328
0.0199539
0.000135386
0.0199363
0.00015929
0.0199158
0.000183083
0.0198923
0.000206795
0.0198658
0.000230464
0.0198362
0.000254129
0.0198036
0.000277819
0.019768
0.000301557
0.0197293
0.000325363
0.0196875
0.000349253
0.0196427
0.000373246
0.0195948
0.000397357
0.0195439
0.000421606
0.0194898
0.00044601
0.0194327
0.000470591
0.0193725
0.000495368
0.0193093
0.000520363
0.0192429
0.000545595
0.0191734
0.000571083
0.0191008
0.000596846
0.0190251
0.0006229
0.0189462
0.000649258
0.0188642
0.000675932
0.018779
0.000702927
0.0186906
0.000730248
0.018599
0.000757894
0.0185041
0.000785856
0.018406
0.000814125
0.0183045
0.000842681
0.0181996
0.000871505
0.0180912
0.000900569
0.0179793
0.000929846
0.0178638
0.000959306
0.0177445
0.000988918
0.0176213
0.00101866
0.0174941
0.00104849
0.0173627
0.00107842
0.017227
0.00110842
0.0170868
0.00113851
0.0169419
0.0011687
0.0167922
0.00119902
0.0166375
0.00122951
0.0164778
0.00126021
0.016313
0.00129117
0.0161431
0.00132242
0.015968
0.00135398
0.0157878
0.00138584
0.0156025
0.00141798
0.0154123
0.00145033
0.0152172
0.00148281
0.0150173
0.00151525
0.0148128
0.00154741
0.0146039
0.00157896
0.0143907
0.00160956
0.0141731
0.00163919
0.0139507
0.00166839
0.0137229
0.00169862
0.0134888
0.00173209
0.0132476
0.00177128
0.0129992
0.0018179
0.0127439
0.00187187
0.0124828
0.00193079
0.0122167
0.0019903
0.0119464
0.00204553
0.0116721
0.00209277
0.0113942
0.00213079
0.0111127
0.00216081
0.010828
0.00218546
0.0105406
0.00220738
0.0102509
0.00222828
0.00995935
0.00224884
0.00966602
0.0022691
0.00937084
0.00228896
0.00907356
0.00230844
0.00877382
0.0023277
0.00847107
0.00234702
0.00816462
0.00236674
0.00785354
0.00238722
0.00753664
0.0024089
0.00721244
0.00243223
0.00687915
0.00245773
0.00653462
0.00248585
0.00617636
0.002517
0.00580154
0.00255141
0.00540705
0.00258902
0.00498969
0.00262942
0.00454634
0.00267169
0.00407427
0.00271435
0.00357158
0.00275546
0.0030376
0.0027928
0.00247327
0.00282425
0.00188144
0.00284843
0.001267
0.00286451
0.000636096
0.00287625
0.00285538
0.0199987
1.3808e-05
0.0199949
4.13982e-05
0.0199886
6.88587e-05
0.0199795
9.61297e-05
0.0199676
0.000123202
0.0199529
0.000150112
0.0199353
0.000176906
0.0199147
0.000203621
0.0198912
0.000230287
0.0198648
0.000256932
0.0198353
0.000283588
0.0198028
0.000310283
0.0197674
0.000337036
0.0197289
0.000363866
0.0196873
0.000390787
0.0196428
0.000417815
0.0195952
0.000444968
0.0195445
0.000472264
0.0194908
0.00049972
0.019434
0.000527359
0.0193742
0.0005552
0.0193113
0.000583267
0.0192453
0.000611579
0.0191762
0.000640159
0.019104
0.000669024
0.0190288
0.000698192
0.0189503
0.000727679
0.0188688
0.000757497
0.018784
0.000787656
0.0186961
0.000818163
0.018605
0.000849019
0.0185106
0.000880222
0.018413
0.000911767
0.018312
0.000943642
0.0182077
0.000975834
0.0180999
0.00100833
0.0179887
0.0010411
0.0178738
0.00107415
0.0177553
0.00110743
0.017633
0.00114096
0.0175068
0.00117471
0.0173766
0.00120867
0.0172421
0.00124286
0.0171034
0.00127727
0.0169601
0.00131194
0.0168123
0.00134688
0.0166597
0.00138213
0.0165022
0.00141771
0.0163397
0.00145366
0.0161721
0.00149
0.0159993
0.00152673
0.0158213
0.00156384
0.015638
0.0016013
0.0154493
0.00163905
0.0152551
0.001677
0.0150554
0.00171498
0.0148501
0.00175274
0.014639
0.00178997
0.0144221
0.00182646
0.0141989
0.0018624
0.0139685
0.0018988
0.0137296
0.00193753
0.0134806
0.00198107
0.0132203
0.00203157
0.0129485
0.00208976
0.0126662
0.00215411
0.0123761
0.00222092
0.012081
0.00228537
0.0117835
0.0023431
0.0114846
0.00239163
0.0111844
0.00243097
0.0108822
0.00246304
0.0105771
0.00249051
0.0102689
0.0025156
0.0099576
0.00253958
0.00964357
0.00256286
0.00932721
0.00258546
0.0090088
0.00260737
0.00868855
0.00262869
0.00836655
0.0026497
0.00804282
0.00267076
0.00771726
0.0026923
0.00738962
0.00271487
0.00705943
0.00273908
0.00672599
0.00276567
0.00638826
0.00279546
0.00604484
0.00282928
0.00569387
0.00286797
0.00533304
0.00291223
0.00495956
0.00296251
0.00457021
0.00301877
0.00416152
0.00308038
0.00373
0.00314587
0.00327259
0.00321287
0.00278716
0.00327823
0.00227309
0.00333832
0.0017318
0.00338972
0.00116714
0.00342917
0.000585225
0.00345817
0.0034406
0.0199987
1.51074e-05
0.0199948
4.52907e-05
0.0199883
7.5383e-05
0.0199791
0.000105351
0.0199671
0.000135187
0.0199523
0.000164913
0.0199346
0.000194561
0.0199141
0.000224162
0.0198906
0.000253741
0.0198642
0.000283324
0.0198349
0.000312936
0.0198026
0.0003426
0.0197673
0.000372335
0.019729
0.000402156
0.0196877
0.000432077
0.0196434
0.000462113
0.0195961
0.00049228
0.0195457
0.000522595
0.0194924
0.000553079
0.019436
0.000583751
0.0193766
0.000614635
0.0193141
0.000645754
0.0192485
0.000677128
0.0191799
0.000708782
0.0191082
0.000740736
0.0190334
0.000773008
0.0189554
0.000805617
0.0188744
0.000838576
0.0187901
0.000871899
0.0187027
0.000905596
0.018612
0.000939671
0.0185181
0.000974127
0.0184209
0.00100896
0.0183204
0.00104417
0.0182165
0.00107975
0.0181091
0.00111569
0.0179982
0.00115199
0.0178837
0.00118862
0.0177656
0.00122559
0.0176437
0.00126289
0.0175179
0.00130052
0.017388
0.00133848
0.0172541
0.00137678
0.017116
0.00141543
0.0169735
0.00145445
0.0168265
0.00149387
0.0166749
0.0015337
0.0165186
0.00157398
0.0163576
0.00161473
0.0161916
0.00165596
0.0160206
0.00169768
0.0158446
0.00173987
0.0156634
0.0017825
0.0154769
0.00182554
0.015285
0.00186891
0.0150876
0.00191247
0.0148843
0.00195598
0.0146751
0.00199917
0.0144596
0.00204194
0.0142373
0.00208473
0.0140072
0.0021289
0.0137679
0.00217685
0.0135175
0.00223142
0.0132545
0.00229465
0.0129778
0.00236641
0.0126882
0.00244367
0.0123881
0.0025211
0.0120806
0.00259285
0.011769
0.00265466
0.0114554
0.00270523
0.0111403
0.0027461
0.010823
0.00278038
0.0105024
0.0028111
0.0101777
0.00284026
0.00984874
0.00286857
0.00951554
0.00289606
0.00917848
0.00292252
0.00883795
0.0029479
0.0084943
0.00297234
0.00814789
0.00299611
0.00779907
0.00301957
0.00744819
0.00304319
0.00709553
0.00306752
0.00674132
0.00309329
0.00638562
0.00312138
0.00602829
0.00315279
0.00566889
0.00318868
0.00530662
0.00323024
0.0049402
0.00327866
0.00456781
0.00333489
0.00418706
0.00339952
0.00379505
0.00347239
0.00338849
0.00355243
0.00296407
0.00363729
0.00251893
0.00372337
0.00205133
0.00380592
0.00156127
0.00387978
0.00105107
0.00393936
0.000525718
0.00398352
0.00396632
0.0199987
1.64258e-05
0.0199947
4.9241e-05
0.0199881
8.19885e-05
0.0199788
0.000114653
0.0199668
0.000147235
0.0199519
0.000179749
0.0199343
0.000212219
0.0199138
0.000244671
0.0198904
0.000277127
0.0198641
0.00030961
0.0198349
0.000342141
0.0198028
0.00037474
0.0197677
0.000407423
0.0197296
0.000440204
0.0196886
0.000473094
0.0196446
0.000506108
0.0195976
0.00053926
0.0195477
0.000572569
0.0194947
0.000606054
0.0194387
0.000639737
0.0193797
0.000673641
0.0193177
0.000707789
0.0192526
0.000742207
0.0191844
0.000776917
0.0191132
0.000811943
0.0190389
0.000847306
0.0189615
0.000883025
0.018881
0.000919118
0.0187973
0.000955601
0.0187104
0.000992485
0.0186203
0.00102978
0.0185269
0.0010675
0.0184302
0.00110563
0.0183302
0.00114419
0.0182268
0.00118318
0.0181199
0.00122258
0.0180095
0.00126241
0.0178954
0.00130266
0.0177777
0.00134332
0.0176562
0.00138441
0.0175308
0.00142593
0.0174014
0.00146788
0.0172679
0.00151029
0.0171301
0.00155315
0.0169881
0.0015965
0.0168416
0.00164035
0.0166906
0.00168472
0.0165349
0.00172964
0.0163745
0.00177511
0.0162094
0.00182116
0.0160393
0.00186777
0.0158642
0.00191494
0.015684
0.00196266
0.0154987
0.00201089
0.015308
0.00205958
0.0151119
0.00210861
0.0149101
0.00215779
0.0147024
0.00220686
0.0144885
0.00225582
0.014268
0.00230525
0.01404
0.00235683
0.0138035
0.0024134
0.0135567
0.0024782
0.0132979
0.00255345
0.0130257
0.00263857
0.01274
0.00272941
0.012442
0.00281911
0.0121343
0.00290052
0.01182
0.00296898
0.0115014
0.00302381
0.0111797
0.00306783
0.0108547
0.00310537
0.0105256
0.00314018
0.0101916
0.00317427
0.00985211
0.00320806
0.00950703
0.00324114
0.0091565
0.00327305
0.00880076
0.00330364
0.00844014
0.00333297
0.00807498
0.00336127
0.00770573
0.00338882
0.0073329
0.00341602
0.00695705
0.00344336
0.00657881
0.00347153
0.0061988
0.00350139
0.00581756
0.00353402
0.00543555
0.00357069
0.00505298
0.00361282
0.00466973
0.00366191
0.00428524
0.00371938
0.00389839
0.00378636
0.00350745
0.00386334
0.00311008
0.0039498
0.00270357
0.0040438
0.00228516
0.00414178
0.00185265
0.00423843
0.001405
0.00432742
0.000943021
0.00440134
0.000469967
0.00445658
0.00443629
0.0199987
1.77536e-05
0.0199947
5.32201e-05
0.019988
8.86338e-05
0.0199787
0.000123993
0.0199666
0.000159303
0.0199518
0.00019458
0.0199342
0.000229843
0.0199137
0.000265115
0.0198905
0.000300415
0.0198643
0.000335763
0.0198353
0.000371178
0.0198033
0.000406678
0.0197685
0.000442277
0.0197307
0.000477985
0.01969
0.000513813
0.0196463
0.000549775
0.0195997
0.000585884
0.0195501
0.000622159
0.0194975
0.000658618
0.019442
0.000695285
0.0193834
0.000732184
0.0193219
0.00076934
0.0192573
0.000806778
0.0191897
0.000844525
0.019119
0.000882605
0.0190453
0.000921041
0.0189685
0.000959857
0.0188885
0.000999072
0.0188054
0.00103871
0.0187191
0.00107877
0.0186296
0.00111929
0.0185369
0.00116026
0.0184408
0.0012017
0.0183414
0.00124361
0.0182385
0.00128601
0.0181322
0.00132889
0.0180224
0.00137226
0.0179089
0.00141612
0.0177918
0.00146049
0.0176708
0.00150537
0.0175459
0.00155078
0.0174171
0.00159673
0.0172841
0.00164324
0.017147
0.00169031
0.0170055
0.00173797
0.0168596
0.00178625
0.0167092
0.00183514
0.0165542
0.00188469
0.0163944
0.00193488
0.0162298
0.00198573
0.0160603
0.00203725
0.0158859
0.00208941
0.0157063
0.00214222
0.0155216
0.00219564
0.0153315
0.00224966
0.0151359
0.00230416
0.0149348
0.00235896
0.0147278
0.00241386
0.0145147
0.00246886
0.0142953
0.00252466
0.014069
0.00258317
0.0138349
0.00264752
0.0135916
0.00272141
0.0133378
0.00280731
0.0130718
0.00290457
0.0127929
0.00300836
0.0125013
0.00311067
0.0121987
0.00320311
0.0118874
0.00328027
0.0115697
0.00334151
0.0112471
0.00339046
0.01092
0.0034325
0.010588
0.00347218
0.0102504
0.00351186
0.00990659
0.00355183
0.00955628
0.00359144
0.00919935
0.00362999
0.00883584
0.00366715
0.00846589
0.00370291
0.00808973
0.00373743
0.00770768
0.00377088
0.00732019
0.00380351
0.00692784
0.0038357
0.00653137
0.003868
0.00613163
0.00390114
0.00572957
0.00393609
0.00532618
0.00397407
0.00492247
0.00401653
0.00451928
0.00406509
0.00411723
0.00412144
0.0037165
0.00418709
0.00331674
0.00426309
0.00291698
0.00434956
0.00251563
0.00444516
0.00211065
0.00454675
0.00170003
0.00464906
0.00128223
0.00474522
0.000856812
0.00482676
0.000425222
0.00488817
0.00486151
0.0199987
1.90842e-05
0.0199947
5.7208e-05
0.019988
9.52889e-05
0.0199787
0.000133335
0.0199666
0.000171358
0.0199518
0.000209374
0.0199343
0.000247403
0.0199139
0.000285464
0.0198908
0.000323576
0.0198648
0.000361756
0.0198359
0.000400023
0.0198042
0.00043839
0.0197696
0.000476871
0.0197321
0.000515474
0.0196917
0.000554209
0.0196484
0.000593087
0.0196022
0.000632123
0.019553
0.000671334
0.0195009
0.00071074
0.0194458
0.000750364
0.0193878
0.000790232
0.0193267
0.00083037
0.0192627
0.000870806
0.0191957
0.000911568
0.0191256
0.000952682
0.0190524
0.000994174
0.0189762
0.00103607
0.0188969
0.00107839
0.0188145
0.00112116
0.0187288
0.0011644
0.01864
0.00120813
0.0185479
0.00125235
0.0184525
0.00129709
0.0183538
0.00134236
0.0182516
0.00138816
0.018146
0.00143451
0.0180368
0.00148142
0.017924
0.00152891
0.0178076
0.00157698
0.0176873
0.00162565
0.0175631
0.00167495
0.017435
0.00172488
0.0173027
0.00177548
0.0171663
0.00182674
0.0170255
0.00187871
0.0168804
0.00193139
0.0167308
0.0019848
0.0165765
0.00203896
0.0164175
0.00209387
0.0162537
0.00214954
0.0160849
0.00220598
0.0159112
0.00226316
0.0157323
0.00232109
0.0155482
0.00237977
0.0153587
0.00243915
0.0151637
0.00249917
0.014963
0.00255964
0.0147565
0.00262036
0.014544
0.00268137
0.0143252
0.00274341
0.0140999
0.00280853
0.0138673
0.00288014
0.0136264
0.00296226
0.013376
0.00305769
0.0131147
0.00316588
0.0128414
0.00328167
0.0125558
0.00339623
0.0122588
0.00350013
0.011952
0.00358708
0.0116374
0.00365616
0.0113165
0.00371136
0.0109901
0.00375887
0.0106583
0.00380402
0.0103205
0.00384964
0.00997619
0.00389613
0.00962492
0.00394271
0.00926641
0.0039885
0.00890052
0.00403303
0.00852722
0.00407622
0.00814653
0.00411812
0.0077586
0.00415881
0.00736369
0.00419842
0.00696223
0.00423716
0.00655485
0.00427538
0.00614237
0.00431362
0.00572583
0.00435264
0.00530645
0.00439345
0.00488563
0.00443735
0.00446486
0.00448586
0.0040456
0.0045407
0.00362913
0.00460356
0.00321637
0.00467585
0.0028077
0.00475822
0.00240285
0.00485001
0.00200088
0.00494872
0.00160036
0.00504958
0.00119976
0.00514582
0.000797837
0.00522868
0.000394433
0.00529157
0.00525594
0.0199987
2.04128e-05
0.0199947
6.11904e-05
0.019988
0.000101932
0.0199787
0.000142653
0.0199667
0.000183371
0.019952
0.000224103
0.0199345
0.000264871
0.0199143
0.000305692
0.0198913
0.000346584
0.0198655
0.000387564
0.0198369
0.000428648
0.0198054
0.00046985
0.0197711
0.000511179
0.0197339
0.000552644
0.0196939
0.000594253
0.0196509
0.000636017
0.0196051
0.000677949
0.0195564
0.000720066
0.0195047
0.000762389
0.0194502
0.000804942
0.0193926
0.000847751
0.0193322
0.000890846
0.0192687
0.000934255
0.0192023
0.000978007
0.0191328
0.00102213
0.0190603
0.00106666
0.0189848
0.00111162
0.0189062
0.00115703
0.0188244
0.00120292
0.0187395
0.00124932
0.0186514
0.00129624
0.01856
0.00134371
0.0184654
0.00139174
0.0183674
0.00144035
0.018266
0.00148955
0.0181611
0.00153937
0.0180527
0.00158982
0.0179407
0.00164091
0.017825
0.00169268
0.0177055
0.00174514
0.0175822
0.00179831
0.0174548
0.00185221
0.0173234
0.00190688
0.0171878
0.00196233
0.017048
0.00201857
0.0169037
0.00207564
0.016755
0.00213355
0.0166016
0.00219231
0.0164436
0.00225193
0.0162807
0.00231242
0.0161129
0.00237378
0.01594
0.002436
0.015762
0.00249909
0.0155788
0.00256304
0.0153901
0.00262785
0.0151958
0.00269343
0.0149958
0.00275961
0.01479
0.00282619
0.0145782
0.00289321
0.0143601
0.00296145
0.0141356
0.00303305
0.0139041
0.00311165
0.0136648
0.00320156
0.0134166
0.00330591
0.0131582
0.00342427
0.0128885
0.00355132
0.0126071
0.00367766
0.0123143
0.00379297
0.0120112
0.00389014
0.0116996
0.00396779
0.0113809
0.00403003
0.0110562
0.00408361
0.0107256
0.00413458
0.010389
0.00418629
0.0100457
0.00423937
0.00969543
0.00429301
0.00933772
0.0043462
0.00897236
0.00439839
0.00859916
0.00444941
0.00821802
0.00449926
0.00782889
0.00454794
0.00743184
0.00459547
0.00702709
0.0046419
0.00661506
0.00468741
0.00619638
0.0047323
0.00577195
0.00477707
0.00534295
0.00482245
0.00491087
0.00486943
0.00447745
0.00491929
0.0040446
0.00497355
0.00361432
0.00503384
0.00318848
0.0051017
0.00276858
0.00517812
0.00235557
0.00526302
0.00194965
0.00535465
0.00155022
0.00544901
0.00115607
0.00553997
0.0007656
0.00561915
0.000377468
0.0056797
0.00563341
0.0199987
2.1736e-05
0.0199947
6.51566e-05
0.0199881
0.000108546
0.0199788
0.000151926
0.0199669
0.000195317
0.0199522
0.000238743
0.0199349
0.000282221
0.0199148
0.000325773
0.019892
0.000369414
0.0198664
0.000413161
0.019838
0.00045703
0.0198068
0.000501032
0.0197728
0.000545176
0.019736
0.00058947
0.0196963
0.00063392
0.0196538
0.000678536
0.0196084
0.000723331
0.0195602
0.000768323
0.019509
0.000813532
0.019455
0.000858984
0.019398
0.000904707
0.0193381
0.00095073
0.0192753
0.000997084
0.0192095
0.0010438
0.0191407
0.00109091
0.0190689
0.00113845
0.0189941
0.00118645
0.0189162
0.00123493
0.0188352
0.00128392
0.0187511
0.00133346
0.0186637
0.00138357
0.0185732
0.00143426
0.0184793
0.00148557
0.0183822
0.00153751
0.0182816
0.00159011
0.0181776
0.00164338
0.0180701
0.00169735
0.0179589
0.00175205
0.0178441
0.0018075
0.0177255
0.00186373
0.0176031
0.00192075
0.0174767
0.00197862
0.0173462
0.00203733
0.0172116
0.00209694
0.0170727
0.00215745
0.0169295
0.00221888
0.0167818
0.00228127
0.0166295
0.00234461
0.0164725
0.00240893
0.0163107
0.00247423
0.0161439
0.00254051
0.0159722
0.00260778
0.0157952
0.00267603
0.015613
0.00274528
0.0154253
0.00281552
0.0152321
0.00288669
0.0150331
0.00295861
0.0148282