# Probe 0 (0.0254 0.0253 0)
# Probe 1 (0.0508 0.0253 0)
# Probe 2 (0.0762 0.0253 0)
# Probe 3 (0.1016 0.0253 0)
# Probe 4 (0.127 0.0253 0)
# Probe 5 (0.1524 0.0253 0)
# Probe 6 (0.1778 0.0253 0)
#       Probe             0             1             2             3             4             5             6
#        Time
        1e-05   5.34775e+06   5.32811e+06   5.30853e+06   5.26954e+06   5.25014e+06   5.23083e+06   5.21159e+06
        2e-05  -2.66353e+06  -2.65381e+06  -2.64412e+06  -2.62481e+06   -2.6152e+06  -2.60563e+06  -2.59608e+06
        3e-05       -5786.5      -5688.98      -5586.96      -5396.85      -5308.27      -5224.54      -5145.47
        4e-05      -7031.44       -7073.7      -7152.61       -7313.1      -7386.64      -7455.19      -7518.73
        5e-05       5140.19       5204.36       5214.19       5236.84       5252.45       5269.21       5286.25
        6e-05       4906.33       4861.14        4749.6        4559.9       4482.27       4412.86       4349.96
        7e-05      -597.309       -511.84      -515.247      -535.668       -546.69       -557.69      -568.251
        8e-05      -1492.99      -1260.08      -1174.61      -1070.73      -1031.79      -997.231      -965.524
        9e-05        7308.7       7371.64       7330.57       7247.41       7209.32       7172.69        7137.2
       0.0001      -3678.17      -3591.87      -3598.77      -3601.64      -3600.59      -3600.12      -3600.55
      0.00011       2999.45       3117.17       3115.44       3086.42       3067.25       3046.53       3025.04
      0.00012       283.966        412.56       447.637       527.135       568.073       607.897       646.204
      0.00013      -13500.7      -13325.8      -13257.9      -13128.4      -13067.1      -13009.3      -12954.8
      0.00014       8196.49       8281.91       8239.93        8144.4       8099.65       8058.16       8020.28
      0.00015       5594.19        5725.4       5741.67       5769.52       5781.15       5790.37       5797.19
      0.00016       41.8255       140.028       145.714       169.961        184.34       198.631       212.445
      0.00017      -303.747      -172.172      -166.413      -168.404       -173.16      -180.246      -189.271
      0.00018      -7703.24       -7500.8      -7435.99       -7343.3      -7305.35      -7270.09      -7236.28
      0.00019      -10193.4      -10014.5      -9946.57      -9810.38      -9741.89       -9673.5      -9605.33
       0.0002       2638.59       2843.27       2934.43       3087.24       3150.26       3205.96       3255.42
      0.00021       2360.65       2364.25       2279.58       2124.53       2051.11       1980.93       1914.36
      0.00022       -7650.7      -7594.65      -7577.84      -7483.32      -7427.62      -7370.96      -7314.75
      0.00023         12871       12718.1       12504.1       12151.1       11996.3       11851.8       11715.7
      0.00024      -5525.13      -5353.45      -5262.71         -5046      -4931.94      -4816.33      -4699.98
      0.00025        2026.9       2194.96       2243.09       2305.63        2320.3       2326.82       2327.09
      0.00026      -2986.55      -2924.98      -2964.96      -3036.22      -3070.73      -3103.48      -3133.88
