# vtk DataFile Version 2.0
sampleSurface
ASCII
DATASET POLYDATA
POINTS 652 double
0 0 0
0.02 0 0
0.02 0 0.1
0 0 0.1
0.04 0 0
0.04 0 0.1
0.06 0 0
0.06 0 0.1
0.08 0 0
0.08 0 0.1
0.1 0 0
0.1 0 0.1
0.12 0 0
0.12 0 0.1
0.14 0 0
0.14 0 0.1
0.16 0 0
0.16 0 0.1
0.18 0 0
0.18 0 0.1
0.2 0 0
0.2 0 0.1
0.22 0 0
0.22 0 0.1
0.24 0 0
0.24 0 0.1
0.26 0 0
0.26 0 0.1
0.28 0 0
0.28 0 0.1
0.3 0 0
0.3 0 0.1
0.32 0 0
0.32 0 0.1
0.34 0 0
0.34 0 0.1
0.36 0 0
0.36 0 0.1
0.38 0 0
0.38 0 0.1
0.4 0 0
0.4 0 0.1
0.42 0 0
0.42 0 0.1
0.44 0 0
0.44 0 0.1
0.46 0 0
0.46 0 0.1
0.48 0 0
0.48 0 0.1
0.5 0 0
0.5 0 0.1
0.52 0 0
0.52 0 0.1
0.54 0 0
0.54 0 0.1
0.56 0 0
0.56 0 0.1
0.58 0 0
0.58 0 0.1
0.6 0 0
0.6 0 0.1
0.62 0 0
0.62 0 0.1
0.64 0 0
0.64 0 0.1
0.66 0 0
0.66 0 0.1
0.68 0 0
0.68 0 0.1
0.7 0 0
0.7 0 0.1
0.72 0 0
0.72 0 0.1
0.74 0 0
0.74 0 0.1
0.76 0 0
0.76 0 0.1
0.78 0 0
0.78 0 0.1
0.8 0 0
0.8 0 0.1
0.82 0 0
0.82 0 0.1
0.84 0 0
0.84 0 0.1
0.86 0 0
0.86 0 0.1
0.88 0 0
0.88 0 0.1
0.9 0 0
0.9 0 0.1
0.92 0 0
0.92 0 0.1
0.94 0 0
0.94 0 0.1
0.96 0 0
0.96 0 0.1
0.98 0 0
0.98 0 0.1
1 0 0
1 0 0.1
1.02 0 0
1.02 0 0.1
1.04 0 0
1.04 0 0.1
1.06 0 0
1.06 0 0.1
1.08 0 0
1.08 0 0.1
1.1 0 0
1.1 0 0.1
1.12 0 0
1.12 0 0.1
1.14 0 0
1.14 0 0.1
1.16 0 0
1.16 0 0.1
1.18 0 0
1.18 0 0.1
1.2 0 0
1.2 0 0.1
1.22 0 0
1.22 0 0.1
1.24 0 0
1.24 0 0.1
1.26 0 0
1.26 0 0.1
1.28 0 0
1.28 0 0.1
1.3 0 0
1.3 0 0.1
1.32 0 0
1.32 0 0.1
1.34 0 0
1.34 0 0.1
1.36 0 0
1.36 0 0.1
1.38 0 0
1.38 0 0.1
1.4 0 0
1.4 0 0.1
1.42 0 0
1.42 0 0.1
1.44 0 0
1.44 0 0.1
1.46 0 0
1.46 0 0.1
1.48 0 0
1.48 0 0.1
1.5 0 0
1.5 0 0.1
1.52 0 0
1.52 0 0.1
1.54 0 0
1.54 0 0.1
1.56 0 0
1.56 0 0.1
1.58 0 0
1.58 0 0.1
1.6 0 0
1.6 0 0.1
1.62 0 0
1.62 0 0.1
1.64 0 0
1.64 0 0.1
1.66 0 0
1.66 0 0.1
1.68 0 0
1.68 0 0.1
1.7 0 0
1.7 0 0.1
1.72 0 0
1.72 0 0.1
1.74 0 0
1.74 0 0.1
1.76 0 0
1.76 0 0.1
1.78 0 0
1.78 0 0.1
1.8 0 0
1.8 0 0.1
1.82 0 0
1.82 0 0.1
1.84 0 0
1.84 0 0.1
1.86 0 0
1.86 0 0.1
1.88 0 0
1.88 0 0.1
1.9 0 0
1.9 0 0.1
1.92 0 0
1.92 0 0.1
1.94 0 0
1.94 0 0.1
1.96 0 0
1.96 0 0.1
1.98 0 0
1.98 0 0.1
2 0 0
2 0 0.1
2 0.02 0
2 0.02 0.1
2 0.04 0
2 0.04 0.1
2 0.06 0
2 0.06 0.1
2 0.08 0
2 0.08 0.1
2 0.1 0
2 0.1 0.1
2 0.12 0
2 0.12 0.1
2 0.14 0
2 0.14 0.1
2 0.16 0
2 0.16 0.1
2 0.18 0
2 0.18 0.1
2 0.2 0
2 0.2 0.1
2 0.22 0
2 0.22 0.1
2 0.24 0
2 0.24 0.1
2 0.26 0
2 0.26 0.1
2 0.28 0
2 0.28 0.1
2 0.3 0
2 0.3 0.1
2 0.32 0
2 0.32 0.1
2 0.34 0
2 0.34 0.1
2 0.36 0
2 0.36 0.1
2 0.38 0
2 0.38 0.1
2 0.4 0
2 0.4 0.1
2 0.42 0
2 0.42 0.1
2 0.44 0
2 0.44 0.1
2 0.46 0
2 0.46 0.1
2 0.48 0
2 0.48 0.1
2 0.5 0
2 0.5 0.1
2 0.52 0
2 0.52 0.1
2 0.54 0
2 0.54 0.1
2 0.56 0
2 0.56 0.1
2 0.58 0
2 0.58 0.1
2 0.6 0
2 0.6 0.1
2 0.62 0
2 0.62 0.1
2 0.64 0
2 0.64 0.1
2 0.66 0
2 0.66 0.1
2 0.68 0
2 0.68 0.1
2 0.7 0
2 0.7 0.1
2 0.72 0
2 0.72 0.1
2 0.74 0
2 0.74 0.1
2 0.76 0
2 0.76 0.1
2 0.78 0
2 0.78 0.1
2 0.8 0
2 0.8 0.1
2 0.82 0
2 0.82 0.1
2 0.84 0
2 0.84 0.1
2 0.86 0
2 0.86 0.1
2 0.88 0
2 0.88 0.1
2 0.9 0
2 0.9 0.1
2 0.92 0
2 0.92 0.1
2 0.94 0
2 0.94 0.1
2 0.96 0
2 0.96 0.1
2 0.98 0
2 0.98 0.1
2 1 0
2 1 0.1
2.02 1 0
2.02 1 0.1
2.04 1 0
2.04 1 0.1
2.06 1 0
2.06 1 0.1
2.08 1 0
2.08 1 0.1
2.1 1 0
2.1 1 0.1
2.12 1 0
2.12 1 0.1
2.14 1 0
2.14 1 0.1
2.16 1 0
2.16 1 0.1
2.18 1 0
2.18 1 0.1
2.2 1 0
2.2 1 0.1
2.22 1 0
2.22 1 0.1
2.24 1 0
2.24 1 0.1
2.26 1 0
2.26 1 0.1
2.28 1 0
2.28 1 0.1
2.3 1 0
2.3 1 0.1
2.32 1 0
2.32 1 0.1
2.34 1 0
2.34 1 0.1
2.36 1 0
2.36 1 0.1
2.38 1 0
2.38 1 0.1
2.4 1 0
2.4 1 0.1
2.42 1 0
2.42 1 0.1
2.44 1 0
2.44 1 0.1
2.46 1 0
2.46 1 0.1
2.48 1 0
2.48 1 0.1
2.5 1 0
2.5 1 0.1
2.5 0 0
2.5 0 0.1
2.5 0.02 0.1
2.5 0.02 0
2.5 0.04 0.1
2.5 0.04 0
2.5 0.06 0.1
2.5 0.06 0
2.5 0.08 0.1
2.5 0.08 0
2.5 0.1 0.1
2.5 0.1 0
2.5 0.12 0.1
2.5 0.12 0
2.5 0.14 0.1
2.5 0.14 0
2.5 0.16 0.1
2.5 0.16 0
2.5 0.18 0.1
2.5 0.18 0
2.5 0.2 0.1
2.5 0.2 0
2.5 0.22 0.1
2.5 0.22 0
2.5 0.24 0.1
2.5 0.24 0
2.5 0.26 0.1
2.5 0.26 0
2.5 0.28 0.1
2.5 0.28 0
2.5 0.3 0.1
2.5 0.3 0
2.5 0.32 0.1
2.5 0.32 0
2.5 0.34 0.1
2.5 0.34 0
2.5 0.36 0.1
2.5 0.36 0
2.5 0.38 0.1
2.5 0.38 0
2.5 0.4 0.1
2.5 0.4 0
2.5 0.42 0.1
2.5 0.42 0
2.5 0.44 0.1
2.5 0.44 0
2.5 0.46 0.1
2.5 0.46 0
2.5 0.48 0.1
2.5 0.48 0
2.5 0.5 0.1
2.5 0.5 0
2.5 0.52 0.1
2.5 0.52 0
2.5 0.54 0.1
2.5 0.54 0
2.5 0.56 0.1
2.5 0.56 0
2.5 0.58 0.1
2.5 0.58 0
2.5 0.6 0.1
2.5 0.6 0
2.5 0.62 0.1
2.5 0.62 0
2.5 0.64 0.1
2.5 0.64 0
2.5 0.66 0.1
2.5 0.66 0
2.5 0.68 0.1
2.5 0.68 0
2.5 0.7 0.1
2.5 0.7 0
2.5 0.72 0.1
2.5 0.72 0
2.5 0.74 0.1
2.5 0.74 0
2.5 0.76 0.1
2.5 0.76 0
2.5 0.78 0.1
2.5 0.78 0
2.5 0.8 0.1
2.5 0.8 0
2.5 0.82 0.1
2.5 0.82 0
2.5 0.84 0.1
2.5 0.84 0
2.5 0.86 0.1
2.5 0.86 0
2.5 0.88 0.1
2.5 0.88 0
2.5 0.9 0.1
2.5 0.9 0
2.5 0.92 0.1
2.5 0.92 0
2.5 0.94 0.1
2.5 0.94 0
2.5 0.96 0.1
2.5 0.96 0
2.5 0.98 0.1
2.5 0.98 0
2.52 0 0
2.52 0 0.1
2.54 0 0
2.54 0 0.1
2.56 0 0
2.56 0 0.1
2.58 0 0
2.58 0 0.1
2.6 0 0
2.6 0 0.1
2.62 0 0
2.62 0 0.1
2.64 0 0
2.64 0 0.1
2.66 0 0
2.66 0 0.1
2.68 0 0
2.68 0 0.1
2.7 0 0
2.7 0 0.1
2.72 0 0
2.72 0 0.1
2.74 0 0
2.74 0 0.1
2.76 0 0
2.76 0 0.1
2.78 0 0
2.78 0 0.1
2.8 0 0
2.8 0 0.1
2.82 0 0
2.82 0 0.1
2.84 0 0
2.84 0 0.1
2.86 0 0
2.86 0 0.1
2.88 0 0
2.88 0 0.1
2.9 0 0
2.9 0 0.1
2.92 0 0
2.92 0 0.1
2.94 0 0
2.94 0 0.1
2.96 0 0
2.96 0 0.1
2.98 0 0
2.98 0 0.1
3 0 0
3 0 0.1
3.02 0 0
3.02 0 0.1
3.04 0 0
3.04 0 0.1
3.06 0 0
3.06 0 0.1
3.08 0 0
3.08 0 0.1
3.1 0 0
3.1 0 0.1
3.12 0 0
3.12 0 0.1
3.14 0 0
3.14 0 0.1
3.16 0 0
3.16 0 0.1
3.18 0 0
3.18 0 0.1
3.2 0 0
3.2 0 0.1
3.22 0 0
3.22 0 0.1
3.24 0 0
3.24 0 0.1
3.26 0 0
3.26 0 0.1
3.28 0 0
3.28 0 0.1
3.3 0 0
3.3 0 0.1
3.32 0 0
3.32 0 0.1
3.34 0 0
3.34 0 0.1
3.36 0 0
3.36 0 0.1
3.38 0 0
3.38 0 0.1
3.4 0 0
3.4 0 0.1
3.42 0 0
3.42 0 0.1
3.44 0 0
3.44 0 0.1
3.46 0 0
3.46 0 0.1
3.48 0 0
3.48 0 0.1
3.5 0 0
3.5 0 0.1
3.52 0 0
3.52 0 0.1
3.54 0 0
3.54 0 0.1
3.56 0 0
3.56 0 0.1
3.58 0 0
3.58 0 0.1
3.6 0 0
3.6 0 0.1
3.62 0 0
3.62 0 0.1
3.64 0 0
3.64 0 0.1
3.66 0 0
3.66 0 0.1
3.68 0 0
3.68 0 0.1
3.7 0 0
3.7 0 0.1
3.72 0 0
3.72 0 0.1
3.74 0 0
3.74 0 0.1
3.76 0 0
3.76 0 0.1
3.78 0 0
3.78 0 0.1
3.8 0 0
3.8 0 0.1
3.82 0 0
3.82 0 0.1
3.84 0 0
3.84 0 0.1
3.86 0 0
3.86 0 0.1
3.88 0 0
3.88 0 0.1
3.9 0 0
3.9 0 0.1
3.92 0 0
3.92 0 0.1
3.94 0 0
3.94 0 0.1
3.96 0 0
3.96 0 0.1
3.98 0 0
3.98 0 0.1
4 0 0
4 0 0.1
4.02 0 0
4.02 0 0.1
4.04 0 0
4.04 0 0.1
4.06 0 0
4.06 0 0.1
4.08 0 0
4.08 0 0.1
4.1 0 0
4.1 0 0.1
4.12 0 0
4.12 0 0.1
4.14 0 0
4.14 0 0.1
4.16 0 0
4.16 0 0.1
4.18 0 0
4.18 0 0.1
4.2 0 0
4.2 0 0.1
4.22 0 0
4.22 0 0.1
4.24 0 0
4.24 0 0.1
4.26 0 0
4.26 0 0.1
4.28 0 0
4.28 0 0.1
4.3 0 0
4.3 0 0.1
4.32 0 0
4.32 0 0.1
4.34 0 0
4.34 0 0.1
4.36 0 0
4.36 0 0.1
4.38 0 0
4.38 0 0.1
4.4 0 0
4.4 0 0.1
4.42 0 0
4.42 0 0.1
4.44 0 0
4.44 0 0.1
4.46 0 0
4.46 0 0.1
4.48 0 0
4.48 0 0.1
4.5 0 0
4.5 0 0.1

POLYGONS 325 1625
4 0 1 2 3
4 1 4 5 2
4 4 6 7 5
4 6 8 9 7
4 8 10 11 9
4 10 12 13 11
4 12 14 15 13
4 14 16 17 15
4 16 18 19 17
4 18 20 21 19
4 20 22 23 21
4 22 24 25 23
4 24 26 27 25
4 26 28 29 27
4 28 30 31 29
4 30 32 33 31
4 32 34 35 33
4 34 36 37 35
4 36 38 39 37
4 38 40 41 39
4 40 42 43 41
4 42 44 45 43
4 44 46 47 45
4 46 48 49 47
4 48 50 51 49
4 50 52 53 51
4 52 54 55 53
4 54 56 57 55
4 56 58 59 57
4 58 60 61 59
4 60 62 63 61
4 62 64 65 63
4 64 66 67 65
4 66 68 69 67
4 68 70 71 69
4 70 72 73 71
4 72 74 75 73
4 74 76 77 75
4 76 78 79 77
4 78 80 81 79
4 80 82 83 81
4 82 84 85 83
4 84 86 87 85
4 86 88 89 87
4 88 90 91 89
4 90 92 93 91
4 92 94 95 93
4 94 96 97 95
4 96 98 99 97
4 98 100 101 99
4 100 102 103 101
4 102 104 105 103
4 104 106 107 105
4 106 108 109 107
4 108 110 111 109
4 110 112 113 111
4 112 114 115 113
4 114 116 117 115
4 116 118 119 117
4 118 120 121 119
4 120 122 123 121
4 122 124 125 123
4 124 126 127 125
4 126 128 129 127
4 128 130 131 129
4 130 132 133 131
4 132 134 135 133
4 134 136 137 135
4 136 138 139 137
4 138 140 141 139
4 140 142 143 141
4 142 144 145 143
4 144 146 147 145
4 146 148 149 147
4 148 150 151 149
4 150 152 153 151
4 152 154 155 153
4 154 156 157 155
4 156 158 159 157
4 158 160 161 159
4 160 162 163 161
4 162 164 165 163
4 164 166 167 165
4 166 168 169 167
4 168 170 171 169
4 170 172 173 171
4 172 174 175 173
4 174 176 177 175
4 176 178 179 177
4 178 180 181 179
4 180 182 183 181
4 182 184 185 183
4 184 186 187 185
4 186 188 189 187
4 188 190 191 189
4 190 192 193 191
4 192 194 195 193
4 194 196 197 195
4 196 198 199 197
4 198 200 201 199
4 200 202 203 201
4 202 204 205 203
4 204 206 207 205
4 206 208 209 207
4 208 210 211 209
4 210 212 213 211
4 212 214 215 213
4 214 216 217 215
4 216 218 219 217
4 218 220 221 219
4 220 222 223 221
4 222 224 225 223
4 224 226 227 225
4 226 228 229 227
4 228 230 231 229
4 230 232 233 231
4 232 234 235 233
4 234 236 237 235
4 236 238 239 237
4 238 240 241 239
4 240 242 243 241
4 242 244 245 243
4 244 246 247 245
4 246 248 249 247
4 248 250 251 249
4 250 252 253 251
4 252 254 255 253
4 254 256 257 255
4 256 258 259 257
4 258 260 261 259
4 260 262 263 261
4 262 264 265 263
4 264 266 267 265
4 266 268 269 267
4 268 270 271 269
4 270 272 273 271
4 272 274 275 273
4 274 276 277 275
4 276 278 279 277
4 278 280 281 279
4 280 282 283 281
4 282 284 285 283
4 284 286 287 285
4 286 288 289 287
4 288 290 291 289
4 290 292 293 291
4 292 294 295 293
4 294 296 297 295
4 296 298 299 297
4 298 300 301 299
4 300 302 303 301
4 302 304 305 303
4 304 306 307 305
4 306 308 309 307
4 308 310 311 309
4 310 312 313 311
4 312 314 315 313
4 314 316 317 315
4 316 318 319 317
4 318 320 321 319
4 320 322 323 321
4 322 324 325 323
4 324 326 327 325
4 326 328 329 327
4 328 330 331 329
4 330 332 333 331
4 332 334 335 333
4 334 336 337 335
4 336 338 339 337
4 338 340 341 339
4 340 342 343 341
4 342 344 345 343
4 344 346 347 345
4 346 348 349 347
4 348 350 351 349
4 352 353 354 355
4 355 354 356 357
4 357 356 358 359
4 359 358 360 361
4 361 360 362 363
4 363 362 364 365
4 365 364 366 367
4 367 366 368 369
4 369 368 370 371
4 371 370 372 373
4 373 372 374 375
4 375 374 376 377
4 377 376 378 379
4 379 378 380 381
4 381 380 382 383
4 383 382 384 385
4 385 384 386 387
4 387 386 388 389
4 389 388 390 391
4 391 390 392 393
4 393 392 394 395
4 395 394 396 397
4 397 396 398 399
4 399 398 400 401
4 401 400 402 403
4 403 402 404 405
4 405 404 406 407
4 407 406 408 409
4 409 408 410 411
4 411 410 412 413
4 413 412 414 415
4 415 414 416 417
4 417 416 418 419
4 419 418 420 421
4 421 420 422 423
4 423 422 424 425
4 425 424 426 427
4 427 426 428 429
4 429 428 430 431
4 431 430 432 433
4 433 432 434 435
4 435 434 436 437
4 437 436 438 439
4 439 438 440 441
4 441 440 442 443
4 443 442 444 445
4 445 444 446 447
4 447 446 448 449
4 449 448 450 451
4 451 450 351 350
4 352 452 453 353
4 452 454 455 453
4 454 456 457 455
4 456 458 459 457
4 458 460 461 459
4 460 462 463 461
4 462 464 465 463
4 464 466 467 465
4 466 468 469 467
4 468 470 471 469
4 470 472 473 471
4 472 474 475 473
4 474 476 477 475
4 476 478 479 477
4 478 480 481 479
4 480 482 483 481
4 482 484 485 483
4 484 486 487 485
4 486 488 489 487
4 488 490 491 489
4 490 492 493 491
4 492 494 495 493
4 494 496 497 495
4 496 498 499 497
4 498 500 501 499
4 500 502 503 501
4 502 504 505 503
4 504 506 507 505
4 506 508 509 507
4 508 510 511 509
4 510 512 513 511
4 512 514 515 513
4 514 516 517 515
4 516 518 519 517
4 518 520 521 519
4 520 522 523 521
4 522 524 525 523
4 524 526 527 525
4 526 528 529 527
4 528 530 531 529
4 530 532 533 531
4 532 534 535 533
4 534 536 537 535
4 536 538 539 537
4 538 540 541 539
4 540 542 543 541
4 542 544 545 543
4 544 546 547 545
4 546 548 549 547
4 548 550 551 549
4 550 552 553 551
4 552 554 555 553
4 554 556 557 555
4 556 558 559 557
4 558 560 561 559
4 560 562 563 561
4 562 564 565 563
4 564 566 567 565
4 566 568 569 567
4 568 570 571 569
4 570 572 573 571
4 572 574 575 573
4 574 576 577 575
4 576 578 579 577
4 578 580 581 579
4 580 582 583 581
4 582 584 585 583
4 584 586 587 585
4 586 588 589 587
4 588 590 591 589
4 590 592 593 591
4 592 594 595 593
4 594 596 597 595
4 596 598 599 597
4 598 600 601 599
4 600 602 603 601
4 602 604 605 603
4 604 606 607 605
4 606 608 609 607
4 608 610 611 609
4 610 612 613 611
4 612 614 615 613
4 614 616 617 615
4 616 618 619 617
4 618 620 621 619
4 620 622 623 621
4 622 624 625 623
4 624 626 627 625
4 626 628 629 627
4 628 630 631 629
4 630 632 633 631
4 632 634 635 633
4 634 636 637 635
4 636 638 639 637
4 638 640 641 639
4 640 642 643 641
4 642 644 645 643
4 644 646 647 645
4 646 648 649 647
4 648 650 651 649
POINT_DATA 652
FIELD attributes 1
U 3 652 float
2.40109 -0.00208526 0.0143123
1.20103 -0.00104445 0.00715616
1.20103 -0.00104445 0.00715616
2.40109 -0.00208526 0.0143123
0.000976465 -3.73246e-06 0
0.000976465 -3.73246e-06 0
0.000981367 -2.92076e-06 0
0.000981367 -2.92076e-06 0
0.000985306 -7.21283e-07 0
0.000985306 -7.21283e-07 0
0.000987313 8.8997e-07 0
0.000987313 8.8997e-07 0
0.000988023 7.37652e-07 0
0.000988023 7.37652e-07 0
0.000987831 -2.7393e-07 0
0.000987831 -2.7393e-07 0
0.000986511 -9.38462e-07 0
0.000986511 -9.38462e-07 0
0.000984087 -8.03889e-07 0
0.000984087 -8.03889e-07 0
0.000981277 -1.04663e-07 0
0.000981277 -1.04663e-07 0
0.000979125 6.82075e-07 0
0.000979125 6.82075e-07 0
0.000978094 1.21834e-06 0
0.000978094 1.21834e-06 0
0.000977564 1.48567e-06 0
0.000977564 1.48567e-06 0
0.000976308 1.61982e-06 0
0.000976308 1.61982e-06 0
0.000973537 1.6152e-06 0
0.000973537 1.6152e-06 0
0.000969586 1.30043e-06 0
0.000969586 1.30043e-06 0
0.00096554 6.30497e-07 0
0.00096554 6.30497e-07 0
0.000962189 -6.8303e-08 0
0.000962189 -6.8303e-08 0
0.000959395 -3.15148e-07 0
0.000959395 -3.15148e-07 0
0.000956445 2.80321e-08 0
0.000956445 2.80321e-08 0
0.000952883 6.0982e-07 0
0.000952883 6.0982e-07 0
0.000948945 9.92749e-07 0
0.000948945 9.92749e-07 0
0.000945197 1.17901e-06 0
0.000945197 1.17901e-06 0
0.000941859 1.65009e-06 0
0.000941859 1.65009e-06 0
0.000938539 2.78285e-06 0
0.000938539 2.78285e-06 0
0.000934605 4.26244e-06 0
0.000934605 4.26244e-06 0
0.000929835 5.20176e-06 0
0.000929835 5.20176e-06 0
0.000924647 4.95333e-06 0
0.000924647 4.95333e-06 0
0.000919654 3.84723e-06 0
0.000919654 3.84723e-06 0
0.000914996 3.05191e-06 0
0.000914996 3.05191e-06 0
0.000910131 3.57478e-06 0
0.000910131 3.57478e-06 0
0.000904307 5.32316e-06 0
0.000904307 5.32316e-06 0
0.000897309 7.11016e-06 0
0.000897309 7.11016e-06 0
0.000889745 7.58436e-06 0
0.000889745 7.58436e-06 0
0.00088259 6.32924e-06 0
0.00088259 6.32924e-06 0
0.000876391 4.26971e-06 0
0.000876391 4.26971e-06 0
0.000870779 3.04002e-06 0
0.000870779 3.04002e-06 0
0.000864599 3.76502e-06 0
0.000864599 3.76502e-06 0
0.000856614 6.08861e-06 0
0.000856614 6.08861e-06 0
0.000846425 8.23334e-06 0
0.000846425 8.23334e-06 0
0.000834896 8.30589e-06 0
0.000834896 8.30589e-06 0
0.000823645 5.94125e-06 0
0.000823645 5.94125e-06 0
0.00081393 2.80315e-06 0
0.00081393 2.80315e-06 0
0.000805837 1.27107e-06 0
0.000805837 1.27107e-06 0
0.00079835 2.43198e-06 0
0.00079835 2.43198e-06 0
0.000790203 5.28879e-06 0
0.000790203 5.28879e-06 0
0.000780777 7.82779e-06 0
0.000780777 7.82779e-06 0
0.000770289 8.77629e-06 0
0.000770289 8.77629e-06 0
0.00075928 8.34838e-06 0
0.00075928 8.34838e-06 0
0.000748059 7.59725e-06 0
0.000748059 7.59725e-06 0
0.000736533 7.43189e-06 0
0.000736533 7.43189e-06 0
0.000724323 8.17024e-06 0
0.000724323 8.17024e-06 0
0.000710966 9.53241e-06 0
0.000710966 9.53241e-06 0
0.000696234 1.07811e-05 0
0.000696234 1.07811e-05 0
0.000680439 1.11362e-05 0
0.000680439 1.11362e-05 0
0.000664327 1.04072e-05 0
0.000664327 1.04072e-05 0
0.000648502 9.16099e-06 0
0.000648502 9.16099e-06 0
0.000632974 8.06457e-06 0
0.000632974 8.06457e-06 0
0.000617367 7.27927e-06 0
0.000617367 7.27927e-06 0
0.000601409 6.88296e-06 0
0.000601409 6.88296e-06 0
0.000584864 7.60927e-06 0
0.000584864 7.60927e-06 0
0.00056701 1.02411e-05 0
0.00056701 1.02411e-05 0
0.000546785 1.39799e-05 0
0.000546785 1.39799e-05 0
0.000523889 1.65689e-05 0
0.000523889 1.65689e-05 0
0.000499197 1.71171e-05 0
0.000499197 1.71171e-05 0
0.000473251 1.78605e-05 0
0.000473251 1.78605e-05 0
0.000444699 2.14204e-05 0
0.000444699 2.14204e-05 0
0.000411423 2.66904e-05 0
0.000411423 2.66904e-05 0
0.000373473 2.93945e-05 0
0.000373473 2.93945e-05 0
0.000333922 2.69628e-05 0
0.000333922 2.69628e-05 0
0.000296528 2.10438e-05 0
0.000296528 2.10438e-05 0
0.000263222 1.51081e-05 0
0.000263222 1.51081e-05 0
0.000233924 1.13316e-05 0
0.000233924 1.13316e-05 0
0.000207668 9.84505e-06 0
0.000207668 9.84505e-06 0
0.000183392 9.67047e-06 0
0.000183392 9.67047e-06 0
0.000160249 9.85435e-06 0
0.000160249 9.85435e-06 0
0.000137712 9.90976e-06 0
0.000137712 9.90976e-06 0
0.000115555 9.68172e-06 0
0.000115555 9.68172e-06 0
9.37767e-05 9.17278e-06 0
9.37767e-05 9.17278e-06 0
7.25271e-05 8.42695e-06 0
7.25271e-05 8.42695e-06 0
5.2041e-05 7.47559e-06 0
5.2041e-05 7.47559e-06 0
3.25914e-05 6.33684e-06 0
3.25914e-05 6.33684e-06 0
1.44625e-05 5.03012e-06 0
1.44625e-05 5.03012e-06 0
-2.09139e-06 3.59111e-06 0
-2.09139e-06 3.59111e-06 0
-1.68577e-05 2.0749e-06 0
-1.68577e-05 2.0749e-06 0
-2.96412e-05 5.31415e-07 0
-2.96412e-05 5.31415e-07 0
-4.02939e-05 -9.99819e-07 0
-4.02939e-05 -9.99819e-07 0
-4.87335e-05 -2.48115e-06 0
-4.87335e-05 -2.48115e-06 0
-5.4928e-05 -3.88455e-06 0
-5.4928e-05 -3.88455e-06 0
-5.88856e-05 -5.19115e-06 0
-5.88856e-05 -5.19115e-06 0
-6.06492e-05 -6.39821e-06 0
-6.06492e-05 -6.39821e-06 0
-6.02626e-05 -7.50681e-06 0
-6.02626e-05 -7.50681e-06 0
-5.78169e-05 -8.48908e-06 0
-5.78169e-05 -8.48908e-06 0
-5.34735e-05 -9.30709e-06 0
-5.34735e-05 -9.30709e-06 0
-4.74261e-05 -9.94914e-06 0
-4.74261e-05 -9.94914e-06 0
-3.98977e-05 -1.04271e-05 0
-3.98977e-05 -1.04271e-05 0
-3.11335e-05 -1.07814e-05 0
-3.11335e-05 -1.07814e-05 0
-2.13459e-05 -1.10819e-05 0
-2.13459e-05 -1.10819e-05 0
-1.08304e-05 -1.11837e-05 0
-1.08304e-05 -1.11837e-05 0
-5.44454e-06 -1.11388e-05 0
-5.44454e-06 -1.11388e-05 0
-2.64318e-07 -1.08914e-05 0
-2.64318e-07 -1.08914e-05 0
8.56474e-06 -7.66813e-07 0
8.56474e-06 -7.66813e-07 0
1.39627e-05 2.38744e-05 0
1.39627e-05 2.38744e-05 0
1.6223e-05 5.52888e-05 0
1.6223e-05 5.52888e-05 0
1.65019e-05 8.85494e-05 0
1.65019e-05 8.85494e-05 0
1.57041e-05 0.000120897 0
1.57041e-05 0.000120897 0
1.44894e-05 0.000151074 0
1.44894e-05 0.000151074 0
1.32459e-05 0.000178691 0
1.32459e-05 0.000178691 0
1.21756e-05 0.000203997 0
1.21756e-05 0.000203997 0
1.13578e-05 0.000227465 0
1.13578e-05 0.000227465 0
1.08025e-05 0.000249613 0
1.08025e-05 0.000249613 0
1.04824e-05 0.000270917 0
1.04824e-05 0.000270917 0
1.03544e-05 0.000291799 0
1.03544e-05 0.000291799 0
1.03734e-05 0.000312604 0
1.03734e-05 0.000312604 0
1.04988e-05 0.000333576 0
1.04988e-05 0.000333576 0
1.06974e-05 0.000354883 0
1.06974e-05 0.000354883 0
1.0944e-05 0.000376641 0
1.0944e-05 0.000376641 0
1.12213e-05 0.000398924 0
1.12213e-05 0.000398924 0
1.15179e-05 0.000421778 0
1.15179e-05 0.000421778 0
1.18275e-05 0.000445233 0
1.18275e-05 0.000445233 0
1.21474e-05 0.000469312 0
1.21474e-05 0.000469312 0
1.24778e-05 0.000494034 0
1.24778e-05 0.000494034 0
1.28199e-05 0.000519422 0
1.28199e-05 0.000519422 0
1.31777e-05 0.000545503 0
1.31777e-05 0.000545503 0
1.35539e-05 0.00057231 0
1.35539e-05 0.00057231 0
1.3955e-05 0.00059989 0
1.3955e-05 0.00059989 0
1.43834e-05 0.00062829 0
1.43834e-05 0.00062829 0
1.48497e-05 0.000657584 0
1.48497e-05 0.000657584 0
1.53523e-05 0.000687831 0
1.53523e-05 0.000687831 0
1.59125e-05 0.000719147 0
1.59125e-05 0.000719147 0
1.65139e-05 0.0007516 0
1.65139e-05 0.0007516 0
1.72119e-05 0.00078537 0
1.72119e-05 0.00078537 0
1.79407e-05 0.000820519 0
1.79407e-05 0.000820519 0
1.88389e-05 0.000857341 0
1.88389e-05 0.000857341 0
1.9736e-05 0.000895856 0
1.9736e-05 0.000895856 0
2.09448e-05 0.000936586 0
2.09448e-05 0.000936586 0
2.20423e-05 0.000979408 0
2.20423e-05 0.000979408 0
2.37785e-05 0.0010253 0
2.37785e-05 0.0010253 0
2.50973e-05 0.0010738 0
2.50973e-05 0.0010738 0
2.78101e-05 0.0011268 0
2.78101e-05 0.0011268 0
2.92812e-05 0.0011831 0
2.92812e-05 0.0011831 0
3.39678e-05 0.00124642 0
3.39678e-05 0.00124642 0
3.53991e-05 0.00131414 0
3.53991e-05 0.00131414 0
4.44179e-05 0.00139368 0
4.44179e-05 0.00139368 0
4.5669e-05 0.00148054 0
4.5669e-05 0.00148054 0
6.59382e-05 0.00158893 0
6.59382e-05 0.00158893 0
6.92673e-05 0.00171562 0
6.92673e-05 0.00171562 0
0.000125889 0.00188598 0
0.000125889 0.00188598 0
0.000153712 0.00211352 0
0.000153712 0.00211352 0
0.000145996 0.0012905 0
0.000145996 0.0012905 0
-0.000262711 -7.13793e-05 0
-0.000262711 -7.13793e-05 0
-0.000126328 -0.000551019 0
-0.000126328 -0.000551019 0
0.000266821 -0.000311383 0
0.000266821 -0.000311383 0
-0.000106954 0.000191035 0
-0.000106954 0.000191035 0
-0.000749567 0.000412803 0
-0.000749567 0.000412803 0
-0.00151193 0.000383557 0
-0.00151193 0.000383557 0
-0.00208408 0.00030247 0
-0.00208408 0.00030247 0
-0.00253954 0.00022697 0
-0.00253954 0.00022697 0
-0.00285159 0.000158029 0
-0.00285159 0.000158029 0
-0.0030635 0.000100387 0
-0.0030635 0.000100387 0
-0.0031772 5.0912e-05 0
-0.0031772 5.0912e-05 0
-0.00321175 8.57479e-06 0
-0.00321175 8.57479e-06 0
-0.00317242 -2.89705e-05 0
-0.00317242 -2.89705e-05 0
-0.00306826 -6.39596e-05 0
-0.00306826 -6.39596e-05 0
-0.00289773 -9.87965e-05 0
-0.00289773 -9.87965e-05 0
-0.00266074 -0.000133946 0
-0.00266074 -0.000133946 0
-0.00235751 -0.000167431 0
-0.00235751 -0.000167431 0
-0.00199547 -0.000195793 0
-0.00199547 -0.000195793 0
-0.00158972 -0.000214764 0
-0.00158972 -0.000214764 0
-0.00116461 -0.000220102 0
-0.00116461 -0.000220102 0
-0.000744633 -0.000209249 0
-0.000744633 -0.000209249 0
-0.000353374 -0.000179934 0
-0.000353374 -0.000179934 0
-1.47155e-05 -0.000126746 0
-1.47155e-05 -0.000126746 0
0.000246555 -8.95552e-05 0
0.000246555 -8.95552e-05 0
0.000230138 -2.08829e-05 0
0.000230138 -2.08829e-05 0
-6.13544e-06 3.58228e-06 0
-6.13544e-06 3.58228e-06 0
-7.93871e-06 1.20048e-05 0
-7.93871e-06 1.20048e-05 0
-9.76978e-06 3.0831e-05 0
-9.76978e-06 3.0831e-05 0
-9.49397e-06 5.0139e-05 0
-9.49397e-06 5.0139e-05 0
-8.94418e-06 6.78171e-05 0
-8.94418e-06 6.78171e-05 0
-8.52868e-06 8.48351e-05 0
-8.52868e-06 8.48351e-05 0
-8.22918e-06 0.000101066 0
-8.22918e-06 0.000101066 0
-7.97635e-06 0.000116815 0
-7.97635e-06 0.000116815 0
-7.72094e-06 0.000132089 0
-7.72094e-06 0.000132089 0
-7.43806e-06 0.000146836 0
-7.43806e-06 0.000146836 0
-7.11784e-06 0.000160988 0
-7.11784e-06 0.000160988 0
-6.75719e-06 0.000174466 0
-6.75719e-06 0.000174466 0
-6.35582e-06 0.000187189 0
-6.35582e-06 0.000187189 0
-5.91434e-06 0.000199075 0
-5.91434e-06 0.000199075 0
-5.43351e-06 0.000210045 0
-5.43351e-06 0.000210045 0
-4.91433e-06 0.000220022 0
-4.91433e-06 0.000220022 0
-4.35915e-06 0.000228931 0
-4.35915e-06 0.000228931 0
-3.77105e-06 0.000236703 0
-3.77105e-06 0.000236703 0
-3.15284e-06 0.000243269 0
-3.15284e-06 0.000243269 0
-2.50798e-06 0.000248571 0
-2.50798e-06 0.000248571 0
-1.83834e-06 0.000252551 0
-1.83834e-06 0.000252551 0
-1.14594e-06 0.000255169 0
-1.14594e-06 0.000255169 0
-4.20457e-07 0.000256378 0
-4.20457e-07 0.000256378 0
3.42823e-07 0.000256153 0
3.42823e-07 0.000256153 0
1.12745e-06 0.000254399 0
1.12745e-06 0.000254399 0
1.91528e-06 0.000251202 0
1.91528e-06 0.000251202 0
2.70191e-06 0.000246441 0
2.70191e-06 0.000246441 0
3.45928e-06 0.000240318 0
3.45928e-06 0.000240318 0
4.19626e-06 0.000232626 0
4.19626e-06 0.000232626 0
4.91165e-06 0.000223766 0
4.91165e-06 0.000223766 0
5.63589e-06 0.000213338 0
5.63589e-06 0.000213338 0
6.32305e-06 0.000201928 0
6.32305e-06 0.000201928 0
7.02977e-06 0.000189018 0
7.02977e-06 0.000189018 0
7.63873e-06 0.000175257 0
7.63873e-06 0.000175257 0
8.31056e-06 0.000160233 0
8.31056e-06 0.000160233 0
8.84514e-06 0.000144209 0
8.84514e-06 0.000144209 0
9.23658e-06 0.000127819 0
9.23658e-06 0.000127819 0
9.95341e-06 0.000109956 0
9.95341e-06 0.000109956 0
9.39663e-06 9.17427e-05 0
9.39663e-06 9.17427e-05 0
1.03329e-05 7.38805e-05 0
1.03329e-05 7.38805e-05 0
1.12196e-05 5.51433e-05 0
1.12196e-05 5.51433e-05 0
8.38167e-06 3.20395e-05 0
8.38167e-06 3.20395e-05 0
8.82076e-06 2.26134e-05 0
8.82076e-06 2.26134e-05 0
1.40783e-05 -3.25968e-06 0
1.40783e-05 -3.25968e-06 0
5.12654e-06 -1.71433e-05 0
5.12654e-06 -1.71433e-05 0
-3.43981e-06 -2.70565e-05 0
-3.43981e-06 -2.70565e-05 0
-1.61247e-07 -3.3101e-05 0
-1.61247e-07 -3.3101e-05 0
-2.2088e-05 -2.84601e-05 0
-2.2088e-05 -2.84601e-05 0
-4.4426e-05 1.39853e-05 0
-4.4426e-05 1.39853e-05 0
3.02708e-05 5.7543e-05 0
3.02708e-05 5.7543e-05 0
-1.19248e-05 3.63608e-06 0
-1.19248e-05 3.63608e-06 0
-2.39609e-05 3.88993e-06 0
-2.39609e-05 3.88993e-06 0
-3.66372e-05 4.33774e-06 0
-3.66372e-05 4.33774e-06 0
-4.99139e-05 4.89325e-06 0
-4.99139e-05 4.89325e-06 0
-6.40614e-05 5.55187e-06 0
-6.40614e-05 5.55187e-06 0
-7.91345e-05 6.27185e-06 0
-7.91345e-05 6.27185e-06 0
-9.5194e-05 7.01341e-06 0
-9.5194e-05 7.01341e-06 0
-0.000112251 7.74719e-06 0
-0.000112251 7.74719e-06 0
-0.000130283 8.45437e-06 0
-0.000130283 8.45437e-06 0
-0.000149269 9.13234e-06 0
-0.000149269 9.13234e-06 0
-0.000169184 9.78872e-06 0
-0.000169184 9.78872e-06 0
-0.000190021 1.04345e-05 0
-0.000190021 1.04345e-05 0
-0.000211774 1.10763e-05 0
-0.000211774 1.10763e-05 0
-0.00023444 1.17136e-05 0
-0.00023444 1.17136e-05 0
-0.000257999 1.23387e-05 0
-0.000257999 1.23387e-05 0
-0.000282422 1.29381e-05 0
-0.000282422 1.29381e-05 0
-0.00030765 1.34924e-05 0
-0.00030765 1.34924e-05 0
-0.000333603 1.39792e-05 0
-0.000333603 1.39792e-05 0
-0.000360172 1.43781e-05 0
-0.000360172 1.43781e-05 0
-0.000387215 1.46768e-05 0
-0.000387215 1.46768e-05 0
-0.000414542 1.48618e-05 0
-0.000414542 1.48618e-05 0
-0.000441933 1.49108e-05 0
-0.000441933 1.49108e-05 0
-0.000469138 1.47999e-05 0
-0.000469138 1.47999e-05 0
-0.00049587 1.45069e-05 0
-0.00049587 1.45069e-05 0
-0.000521809 1.40131e-05 0
-0.000521809 1.40131e-05 0
-0.000546605 1.3304e-05 0
-0.000546605 1.3304e-05 0
-0.000569885 1.23695e-05 0
-0.000569885 1.23695e-05 0
-0.000591254 1.12052e-05 0
-0.000591254 1.12052e-05 0
-0.000610308 9.81198e-06 0
-0.000610308 9.81198e-06 0
-0.000626641 8.19758e-06 0
-0.000626641 8.19758e-06 0
-0.000639866 6.38304e-06 0
-0.000639866 6.38304e-06 0
-0.000649637 4.40332e-06 0
-0.000649637 4.40332e-06 0
-0.000655666 2.30726e-06 0
-0.000655666 2.30726e-06 0
-0.000657686 1.80715e-07 0
-0.000657686 1.80715e-07 0
-0.000655665 -1.90101e-06 0
-0.000655665 -1.90101e-06 0
-0.00064964 -3.93415e-06 0
-0.00064964 -3.93415e-06 0
-0.00063959 -5.92331e-06 0
-0.00063959 -5.92331e-06 0
-0.000625602 -7.84978e-06 0
-0.000625602 -7.84978e-06 0
-0.000607822 -9.68827e-06 0
-0.000607822 -9.68827e-06 0
-0.000586465 -1.14076e-05 0
-0.000586465 -1.14076e-05 0
-0.000561802 -1.29812e-05 0
-0.000561802 -1.29812e-05 0
-0.00053415 -1.43882e-05 0
-0.00053415 -1.43882e-05 0
-0.000503863 -1.56142e-05 0
-0.000503863 -1.56142e-05 0
-0.000471315 -1.66512e-05 0
-0.000471315 -1.66512e-05 0
-0.000436892 -1.74972e-05 0
-0.000436892 -1.74972e-05 0
-0.000400975 -1.81554e-05 0
-0.000400975 -1.81554e-05 0
-0.000363935 -1.86337e-05 0
-0.000363935 -1.86337e-05 0
-0.000326123 -1.89434e-05 0
-0.000326123 -1.89434e-05 0
-0.000287869 -1.90982e-05 0
-0.000287869 -1.90982e-05 0
-0.000249471 -1.91135e-05 0
-0.000249471 -1.91135e-05 0
-0.000211176 -1.9007e-05 0
-0.000211176 -1.9007e-05 0
-0.000173198 -1.87939e-05 0
-0.000173198 -1.87939e-05 0
-0.000135731 -1.84916e-05 0
-0.000135731 -1.84916e-05 0
-9.894e-05 -1.81171e-05 0
-9.894e-05 -1.81171e-05 0
-6.29486e-05 -1.7685e-05 0
-6.29486e-05 -1.7685e-05 0
-2.78724e-05 -1.72093e-05 0
-2.78724e-05 -1.72093e-05 0
6.18155e-06 -1.67038e-05 0
6.18155e-06 -1.67038e-05 0
3.91743e-05 -1.61792e-05 0
3.91743e-05 -1.61792e-05 0
7.1104e-05 -1.5643e-05 0
7.1104e-05 -1.5643e-05 0
0.000101961 -1.5104e-05 0
0.000101961 -1.5104e-05 0
0.000131742 -1.45685e-05 0
0.000131742 -1.45685e-05 0
0.00016046 -1.40416e-05 0
0.00016046 -1.40416e-05 0
0.000188136 -1.35273e-05 0
0.000188136 -1.35273e-05 0
0.000214799 -1.30285e-05 0
0.000214799 -1.30285e-05 0
0.000240481 -1.25471e-05 0
0.000240481 -1.25471e-05 0
0.000265219 -1.20847e-05 0
0.000265219 -1.20847e-05 0
0.000289052 -1.16418e-05 0
0.000289052 -1.16418e-05 0
0.000312019 -1.12188e-05 0
0.000312019 -1.12188e-05 0
0.000334161 -1.08155e-05 0
0.000334161 -1.08155e-05 0
0.000355515 -1.04317e-05 0
0.000355515 -1.04317e-05 0
0.000376121 -1.00668e-05 0
0.000376121 -1.00668e-05 0
0.000396015 -9.72021e-06 0
0.000396015 -9.72021e-06 0
0.000415234 -9.39123e-06 0
0.000415234 -9.39123e-06 0
0.000433812 -9.07915e-06 0
0.000433812 -9.07915e-06 0
0.000451782 -8.78327e-06 0
0.000451782 -8.78327e-06 0
0.000469175 -8.50291e-06 0
0.000469175 -8.50291e-06 0
0.000486023 -8.23742e-06 0
0.000486023 -8.23742e-06 0
0.000502353 -7.98617e-06 0
0.000502353 -7.98617e-06 0
0.000518194 -7.74858e-06 0
0.000518194 -7.74858e-06 0
0.000533572 -7.52412e-06 0
0.000533572 -7.52412e-06 0
0.000548515 -7.31227e-06 0
0.000548515 -7.31227e-06 0
0.000563044 -7.11262e-06 0
0.000563044 -7.11262e-06 0
0.000577188 -6.92474e-06 0
0.000577188 -6.92474e-06 0
0.000590962 -6.74826e-06 0
0.000590962 -6.74826e-06 0
0.000604402 -6.58278e-06 0
0.000604402 -6.58278e-06 0
0.000617509 -6.42802e-06 0
0.000617509 -6.42802e-06 0
0.000630334 -6.28354e-06 0
0.000630334 -6.28354e-06 0
0.000642851 -6.14919e-06 0
0.000642851 -6.14919e-06 0
0.000655151 -6.02448e-06 0
0.000655151 -6.02448e-06 0
0.000667146 -5.9095e-06 0
0.000667146 -5.9095e-06 0
0.000679017 -5.80359e-06 0
0.000679017 -5.80359e-06 0
0.000690536 -5.70723e-06 0
0.000690536 -5.70723e-06 0
0.000702094 -5.61932e-06 0
0.000702094 -5.61932e-06 0
0.000713146 -5.54117e-06 0
0.000713146 -5.54117e-06 0
0.000724559 -5.47068e-06 0
0.000724559 -5.47068e-06 0
0.000735072 -5.41073e-06 0
0.000735072 -5.41073e-06 0
0.000746613 -5.35709e-06 0
0.000746613 -5.35709e-06 0
0.000756346 -5.3158e-06 0
0.000756346 -5.3158e-06 0
0.973489 -0.00657112 0
0.973489 -0.00657112 0
1.94622 -0.0131369 0
1.94622 -0.0131369 0
