# vtk DataFile Version 2.0
sampleSurface
ASCII
DATASET POLYDATA
POINTS 652 double
0 0 0
0.02 0 0
0.02 0 0.1
0 0 0.1
0.04 0 0
0.04 0 0.1
0.06 0 0
0.06 0 0.1
0.08 0 0
0.08 0 0.1
0.1 0 0
0.1 0 0.1
0.12 0 0
0.12 0 0.1
0.14 0 0
0.14 0 0.1
0.16 0 0
0.16 0 0.1
0.18 0 0
0.18 0 0.1
0.2 0 0
0.2 0 0.1
0.22 0 0
0.22 0 0.1
0.24 0 0
0.24 0 0.1
0.26 0 0
0.26 0 0.1
0.28 0 0
0.28 0 0.1
0.3 0 0
0.3 0 0.1
0.32 0 0
0.32 0 0.1
0.34 0 0
0.34 0 0.1
0.36 0 0
0.36 0 0.1
0.38 0 0
0.38 0 0.1
0.4 0 0
0.4 0 0.1
0.42 0 0
0.42 0 0.1
0.44 0 0
0.44 0 0.1
0.46 0 0
0.46 0 0.1
0.48 0 0
0.48 0 0.1
0.5 0 0
0.5 0 0.1
0.52 0 0
0.52 0 0.1
0.54 0 0
0.54 0 0.1
0.56 0 0
0.56 0 0.1
0.58 0 0
0.58 0 0.1
0.6 0 0
0.6 0 0.1
0.62 0 0
0.62 0 0.1
0.64 0 0
0.64 0 0.1
0.66 0 0
0.66 0 0.1
0.68 0 0
0.68 0 0.1
0.7 0 0
0.7 0 0.1
0.72 0 0
0.72 0 0.1
0.74 0 0
0.74 0 0.1
0.76 0 0
0.76 0 0.1
0.78 0 0
0.78 0 0.1
0.8 0 0
0.8 0 0.1
0.82 0 0
0.82 0 0.1
0.84 0 0
0.84 0 0.1
0.86 0 0
0.86 0 0.1
0.88 0 0
0.88 0 0.1
0.9 0 0
0.9 0 0.1
0.92 0 0
0.92 0 0.1
0.94 0 0
0.94 0 0.1
0.96 0 0
0.96 0 0.1
0.98 0 0
0.98 0 0.1
1 0 0
1 0 0.1
1.02 0 0
1.02 0 0.1
1.04 0 0
1.04 0 0.1
1.06 0 0
1.06 0 0.1
1.08 0 0
1.08 0 0.1
1.1 0 0
1.1 0 0.1
1.12 0 0
1.12 0 0.1
1.14 0 0
1.14 0 0.1
1.16 0 0
1.16 0 0.1
1.18 0 0
1.18 0 0.1
1.2 0 0
1.2 0 0.1
1.22 0 0
1.22 0 0.1
1.24 0 0
1.24 0 0.1
1.26 0 0
1.26 0 0.1
1.28 0 0
1.28 0 0.1
1.3 0 0
1.3 0 0.1
1.32 0 0
1.32 0 0.1
1.34 0 0
1.34 0 0.1
1.36 0 0
1.36 0 0.1
1.38 0 0
1.38 0 0.1
1.4 0 0
1.4 0 0.1
1.42 0 0
1.42 0 0.1
1.44 0 0
1.44 0 0.1
1.46 0 0
1.46 0 0.1
1.48 0 0
1.48 0 0.1
1.5 0 0
1.5 0 0.1
1.52 0 0
1.52 0 0.1
1.54 0 0
1.54 0 0.1
1.56 0 0
1.56 0 0.1
1.58 0 0
1.58 0 0.1
1.6 0 0
1.6 0 0.1
1.62 0 0
1.62 0 0.1
1.64 0 0
1.64 0 0.1
1.66 0 0
1.66 0 0.1
1.68 0 0
1.68 0 0.1
1.7 0 0
1.7 0 0.1
1.72 0 0
1.72 0 0.1
1.74 0 0
1.74 0 0.1
1.76 0 0
1.76 0 0.1
1.78 0 0
1.78 0 0.1
1.8 0 0
1.8 0 0.1
1.82 0 0
1.82 0 0.1
1.84 0 0
1.84 0 0.1
1.86 0 0
1.86 0 0.1
1.88 0 0
1.88 0 0.1
1.9 0 0
1.9 0 0.1
1.92 0 0
1.92 0 0.1
1.94 0 0
1.94 0 0.1
1.96 0 0
1.96 0 0.1
1.98 0 0
1.98 0 0.1
2 0 0
2 0 0.1
2 0.02 0
2 0.02 0.1
2 0.04 0
2 0.04 0.1
2 0.06 0
2 0.06 0.1
2 0.08 0
2 0.08 0.1
2 0.1 0
2 0.1 0.1
2 0.12 0
2 0.12 0.1
2 0.14 0
2 0.14 0.1
2 0.16 0
2 0.16 0.1
2 0.18 0
2 0.18 0.1
2 0.2 0
2 0.2 0.1
2 0.22 0
2 0.22 0.1
2 0.24 0
2 0.24 0.1
2 0.26 0
2 0.26 0.1
2 0.28 0
2 0.28 0.1
2 0.3 0
2 0.3 0.1
2 0.32 0
2 0.32 0.1
2 0.34 0
2 0.34 0.1
2 0.36 0
2 0.36 0.1
2 0.38 0
2 0.38 0.1
2 0.4 0
2 0.4 0.1
2 0.42 0
2 0.42 0.1
2 0.44 0
2 0.44 0.1
2 0.46 0
2 0.46 0.1
2 0.48 0
2 0.48 0.1
2 0.5 0
2 0.5 0.1
2 0.52 0
2 0.52 0.1
2 0.54 0
2 0.54 0.1
2 0.56 0
2 0.56 0.1
2 0.58 0
2 0.58 0.1
2 0.6 0
2 0.6 0.1
2 0.62 0
2 0.62 0.1
2 0.64 0
2 0.64 0.1
2 0.66 0
2 0.66 0.1
2 0.68 0
2 0.68 0.1
2 0.7 0
2 0.7 0.1
2 0.72 0
2 0.72 0.1
2 0.74 0
2 0.74 0.1
2 0.76 0
2 0.76 0.1
2 0.78 0
2 0.78 0.1
2 0.8 0
2 0.8 0.1
2 0.82 0
2 0.82 0.1
2 0.84 0
2 0.84 0.1
2 0.86 0
2 0.86 0.1
2 0.88 0
2 0.88 0.1
2 0.9 0
2 0.9 0.1
2 0.92 0
2 0.92 0.1
2 0.94 0
2 0.94 0.1
2 0.96 0
2 0.96 0.1
2 0.98 0
2 0.98 0.1
2 1 0
2 1 0.1
2.02 1 0
2.02 1 0.1
2.04 1 0
2.04 1 0.1
2.06 1 0
2.06 1 0.1
2.08 1 0
2.08 1 0.1
2.1 1 0
2.1 1 0.1
2.12 1 0
2.12 1 0.1
2.14 1 0
2.14 1 0.1
2.16 1 0
2.16 1 0.1
2.18 1 0
2.18 1 0.1
2.2 1 0
2.2 1 0.1
2.22 1 0
2.22 1 0.1
2.24 1 0
2.24 1 0.1
2.26 1 0
2.26 1 0.1
2.28 1 0
2.28 1 0.1
2.3 1 0
2.3 1 0.1
2.32 1 0
2.32 1 0.1
2.34 1 0
2.34 1 0.1
2.36 1 0
2.36 1 0.1
2.38 1 0
2.38 1 0.1
2.4 1 0
2.4 1 0.1
2.42 1 0
2.42 1 0.1
2.44 1 0
2.44 1 0.1
2.46 1 0
2.46 1 0.1
2.48 1 0
2.48 1 0.1
2.5 1 0
2.5 1 0.1
2.5 0 0
2.5 0 0.1
2.5 0.02 0.1
2.5 0.02 0
2.5 0.04 0.1
2.5 0.04 0
2.5 0.06 0.1
2.5 0.06 0
2.5 0.08 0.1
2.5 0.08 0
2.5 0.1 0.1
2.5 0.1 0
2.5 0.12 0.1
2.5 0.12 0
2.5 0.14 0.1
2.5 0.14 0
2.5 0.16 0.1
2.5 0.16 0
2.5 0.18 0.1
2.5 0.18 0
2.5 0.2 0.1
2.5 0.2 0
2.5 0.22 0.1
2.5 0.22 0
2.5 0.24 0.1
2.5 0.24 0
2.5 0.26 0.1
2.5 0.26 0
2.5 0.28 0.1
2.5 0.28 0
2.5 0.3 0.1
2.5 0.3 0
2.5 0.32 0.1
2.5 0.32 0
2.5 0.34 0.1
2.5 0.34 0
2.5 0.36 0.1
2.5 0.36 0
2.5 0.38 0.1
2.5 0.38 0
2.5 0.4 0.1
2.5 0.4 0
2.5 0.42 0.1
2.5 0.42 0
2.5 0.44 0.1
2.5 0.44 0
2.5 0.46 0.1
2.5 0.46 0
2.5 0.48 0.1
2.5 0.48 0
2.5 0.5 0.1
2.5 0.5 0
2.5 0.52 0.1
2.5 0.52 0
2.5 0.54 0.1
2.5 0.54 0
2.5 0.56 0.1
2.5 0.56 0
2.5 0.58 0.1
2.5 0.58 0
2.5 0.6 0.1
2.5 0.6 0
2.5 0.62 0.1
2.5 0.62 0
2.5 0.64 0.1
2.5 0.64 0
2.5 0.66 0.1
2.5 0.66 0
2.5 0.68 0.1
2.5 0.68 0
2.5 0.7 0.1
2.5 0.7 0
2.5 0.72 0.1
2.5 0.72 0
2.5 0.74 0.1
2.5 0.74 0
2.5 0.76 0.1
2.5 0.76 0
2.5 0.78 0.1
2.5 0.78 0
2.5 0.8 0.1
2.5 0.8 0
2.5 0.82 0.1
2.5 0.82 0
2.5 0.84 0.1
2.5 0.84 0
2.5 0.86 0.1
2.5 0.86 0
2.5 0.88 0.1
2.5 0.88 0
2.5 0.9 0.1
2.5 0.9 0
2.5 0.92 0.1
2.5 0.92 0
2.5 0.94 0.1
2.5 0.94 0
2.5 0.96 0.1
2.5 0.96 0
2.5 0.98 0.1
2.5 0.98 0
2.52 0 0
2.52 0 0.1
2.54 0 0
2.54 0 0.1
2.56 0 0
2.56 0 0.1
2.58 0 0
2.58 0 0.1
2.6 0 0
2.6 0 0.1
2.62 0 0
2.62 0 0.1
2.64 0 0
2.64 0 0.1
2.66 0 0
2.66 0 0.1
2.68 0 0
2.68 0 0.1
2.7 0 0
2.7 0 0.1
2.72 0 0
2.72 0 0.1
2.74 0 0
2.74 0 0.1
2.76 0 0
2.76 0 0.1
2.78 0 0
2.78 0 0.1
2.8 0 0
2.8 0 0.1
2.82 0 0
2.82 0 0.1
2.84 0 0
2.84 0 0.1
2.86 0 0
2.86 0 0.1
2.88 0 0
2.88 0 0.1
2.9 0 0
2.9 0 0.1
2.92 0 0
2.92 0 0.1
2.94 0 0
2.94 0 0.1
2.96 0 0
2.96 0 0.1
2.98 0 0
2.98 0 0.1
3 0 0
3 0 0.1
3.02 0 0
3.02 0 0.1
3.04 0 0
3.04 0 0.1
3.06 0 0
3.06 0 0.1
3.08 0 0
3.08 0 0.1
3.1 0 0
3.1 0 0.1
3.12 0 0
3.12 0 0.1
3.14 0 0
3.14 0 0.1
3.16 0 0
3.16 0 0.1
3.18 0 0
3.18 0 0.1
3.2 0 0
3.2 0 0.1
3.22 0 0
3.22 0 0.1
3.24 0 0
3.24 0 0.1
3.26 0 0
3.26 0 0.1
3.28 0 0
3.28 0 0.1
3.3 0 0
3.3 0 0.1
3.32 0 0
3.32 0 0.1
3.34 0 0
3.34 0 0.1
3.36 0 0
3.36 0 0.1
3.38 0 0
3.38 0 0.1
3.4 0 0
3.4 0 0.1
3.42 0 0
3.42 0 0.1
3.44 0 0
3.44 0 0.1
3.46 0 0
3.46 0 0.1
3.48 0 0
3.48 0 0.1
3.5 0 0
3.5 0 0.1
3.52 0 0
3.52 0 0.1
3.54 0 0
3.54 0 0.1
3.56 0 0
3.56 0 0.1
3.58 0 0
3.58 0 0.1
3.6 0 0
3.6 0 0.1
3.62 0 0
3.62 0 0.1
3.64 0 0
3.64 0 0.1
3.66 0 0
3.66 0 0.1
3.68 0 0
3.68 0 0.1
3.7 0 0
3.7 0 0.1
3.72 0 0
3.72 0 0.1
3.74 0 0
3.74 0 0.1
3.76 0 0
3.76 0 0.1
3.78 0 0
3.78 0 0.1
3.8 0 0
3.8 0 0.1
3.82 0 0
3.82 0 0.1
3.84 0 0
3.84 0 0.1
3.86 0 0
3.86 0 0.1
3.88 0 0
3.88 0 0.1
3.9 0 0
3.9 0 0.1
3.92 0 0
3.92 0 0.1
3.94 0 0
3.94 0 0.1
3.96 0 0
3.96 0 0.1
3.98 0 0
3.98 0 0.1
4 0 0
4 0 0.1
4.02 0 0
4.02 0 0.1
4.04 0 0
4.04 0 0.1
4.06 0 0
4.06 0 0.1
4.08 0 0
4.08 0 0.1
4.1 0 0
4.1 0 0.1
4.12 0 0
4.12 0 0.1
4.14 0 0
4.14 0 0.1
4.16 0 0
4.16 0 0.1
4.18 0 0
4.18 0 0.1
4.2 0 0
4.2 0 0.1
4.22 0 0
4.22 0 0.1
4.24 0 0
4.24 0 0.1
4.26 0 0
4.26 0 0.1
4.28 0 0
4.28 0 0.1
4.3 0 0
4.3 0 0.1
4.32 0 0
4.32 0 0.1
4.34 0 0
4.34 0 0.1
4.36 0 0
4.36 0 0.1
4.38 0 0
4.38 0 0.1
4.4 0 0
4.4 0 0.1
4.42 0 0
4.42 0 0.1
4.44 0 0
4.44 0 0.1
4.46 0 0
4.46 0 0.1
4.48 0 0
4.48 0 0.1
4.5 0 0
4.5 0 0.1

POLYGONS 325 1625
4 0 1 2 3
4 1 4 5 2
4 4 6 7 5
4 6 8 9 7
4 8 10 11 9
4 10 12 13 11
4 12 14 15 13
4 14 16 17 15
4 16 18 19 17
4 18 20 21 19
4 20 22 23 21
4 22 24 25 23
4 24 26 27 25
4 26 28 29 27
4 28 30 31 29
4 30 32 33 31
4 32 34 35 33
4 34 36 37 35
4 36 38 39 37
4 38 40 41 39
4 40 42 43 41
4 42 44 45 43
4 44 46 47 45
4 46 48 49 47
4 48 50 51 49
4 50 52 53 51
4 52 54 55 53
4 54 56 57 55
4 56 58 59 57
4 58 60 61 59
4 60 62 63 61
4 62 64 65 63
4 64 66 67 65
4 66 68 69 67
4 68 70 71 69
4 70 72 73 71
4 72 74 75 73
4 74 76 77 75
4 76 78 79 77
4 78 80 81 79
4 80 82 83 81
4 82 84 85 83
4 84 86 87 85
4 86 88 89 87
4 88 90 91 89
4 90 92 93 91
4 92 94 95 93
4 94 96 97 95
4 96 98 99 97
4 98 100 101 99
4 100 102 103 101
4 102 104 105 103
4 104 106 107 105
4 106 108 109 107
4 108 110 111 109
4 110 112 113 111
4 112 114 115 113
4 114 116 117 115
4 116 118 119 117
4 118 120 121 119
4 120 122 123 121
4 122 124 125 123
4 124 126 127 125
4 126 128 129 127
4 128 130 131 129
4 130 132 133 131
4 132 134 135 133
4 134 136 137 135
4 136 138 139 137
4 138 140 141 139
4 140 142 143 141
4 142 144 145 143
4 144 146 147 145
4 146 148 149 147
4 148 150 151 149
4 150 152 153 151
4 152 154 155 153
4 154 156 157 155
4 156 158 159 157
4 158 160 161 159
4 160 162 163 161
4 162 164 165 163
4 164 166 167 165
4 166 168 169 167
4 168 170 171 169
4 170 172 173 171
4 172 174 175 173
4 174 176 177 175
4 176 178 179 177
4 178 180 181 179
4 180 182 183 181
4 182 184 185 183
4 184 186 187 185
4 186 188 189 187
4 188 190 191 189
4 190 192 193 191
4 192 194 195 193
4 194 196 197 195
4 196 198 199 197
4 198 200 201 199
4 200 202 203 201
4 202 204 205 203
4 204 206 207 205
4 206 208 209 207
4 208 210 211 209
4 210 212 213 211
4 212 214 215 213
4 214 216 217 215
4 216 218 219 217
4 218 220 221 219
4 220 222 223 221
4 222 224 225 223
4 224 226 227 225
4 226 228 229 227
4 228 230 231 229
4 230 232 233 231
4 232 234 235 233
4 234 236 237 235
4 236 238 239 237
4 238 240 241 239
4 240 242 243 241
4 242 244 245 243
4 244 246 247 245
4 246 248 249 247
4 248 250 251 249
4 250 252 253 251
4 252 254 255 253
4 254 256 257 255
4 256 258 259 257
4 258 260 261 259
4 260 262 263 261
4 262 264 265 263
4 264 266 267 265
4 266 268 269 267
4 268 270 271 269
4 270 272 273 271
4 272 274 275 273
4 274 276 277 275
4 276 278 279 277
4 278 280 281 279
4 280 282 283 281
4 282 284 285 283
4 284 286 287 285
4 286 288 289 287
4 288 290 291 289
4 290 292 293 291
4 292 294 295 293
4 294 296 297 295
4 296 298 299 297
4 298 300 301 299
4 300 302 303 301
4 302 304 305 303
4 304 306 307 305
4 306 308 309 307
4 308 310 311 309
4 310 312 313 311
4 312 314 315 313
4 314 316 317 315
4 316 318 319 317
4 318 320 321 319
4 320 322 323 321
4 322 324 325 323
4 324 326 327 325
4 326 328 329 327
4 328 330 331 329
4 330 332 333 331
4 332 334 335 333
4 334 336 337 335
4 336 338 339 337
4 338 340 341 339
4 340 342 343 341
4 342 344 345 343
4 344 346 347 345
4 346 348 349 347
4 348 350 351 349
4 352 353 354 355
4 355 354 356 357
4 357 356 358 359
4 359 358 360 361
4 361 360 362 363
4 363 362 364 365
4 365 364 366 367
4 367 366 368 369
4 369 368 370 371
4 371 370 372 373
4 373 372 374 375
4 375 374 376 377
4 377 376 378 379
4 379 378 380 381
4 381 380 382 383
4 383 382 384 385
4 385 384 386 387
4 387 386 388 389
4 389 388 390 391
4 391 390 392 393
4 393 392 394 395
4 395 394 396 397
4 397 396 398 399
4 399 398 400 401
4 401 400 402 403
4 403 402 404 405
4 405 404 406 407
4 407 406 408 409
4 409 408 410 411
4 411 410 412 413
4 413 412 414 415
4 415 414 416 417
4 417 416 418 419
4 419 418 420 421
4 421 420 422 423
4 423 422 424 425
4 425 424 426 427
4 427 426 428 429
4 429 428 430 431
4 431 430 432 433
4 433 432 434 435
4 435 434 436 437
4 437 436 438 439
4 439 438 440 441
4 441 440 442 443
4 443 442 444 445
4 445 444 446 447
4 447 446 448 449
4 449 448 450 451
4 451 450 351 350
4 352 452 453 353
4 452 454 455 453
4 454 456 457 455
4 456 458 459 457
4 458 460 461 459
4 460 462 463 461
4 462 464 465 463
4 464 466 467 465
4 466 468 469 467
4 468 470 471 469
4 470 472 473 471
4 472 474 475 473
4 474 476 477 475
4 476 478 479 477
4 478 480 481 479
4 480 482 483 481
4 482 484 485 483
4 484 486 487 485
4 486 488 489 487
4 488 490 491 489
4 490 492 493 491
4 492 494 495 493
4 494 496 497 495
4 496 498 499 497
4 498 500 501 499
4 500 502 503 501
4 502 504 505 503
4 504 506 507 505
4 506 508 509 507
4 508 510 511 509
4 510 512 513 511
4 512 514 515 513
4 514 516 517 515
4 516 518 519 517
4 518 520 521 519
4 520 522 523 521
4 522 524 525 523
4 524 526 527 525
4 526 528 529 527
4 528 530 531 529
4 530 532 533 531
4 532 534 535 533
4 534 536 537 535
4 536 538 539 537
4 538 540 541 539
4 540 542 543 541
4 542 544 545 543
4 544 546 547 545
4 546 548 549 547
4 548 550 551 549
4 550 552 553 551
4 552 554 555 553
4 554 556 557 555
4 556 558 559 557
4 558 560 561 559
4 560 562 563 561
4 562 564 565 563
4 564 566 567 565
4 566 568 569 567
4 568 570 571 569
4 570 572 573 571
4 572 574 575 573
4 574 576 577 575
4 576 578 579 577
4 578 580 581 579
4 580 582 583 581
4 582 584 585 583
4 584 586 587 585
4 586 588 589 587
4 588 590 591 589
4 590 592 593 591
4 592 594 595 593
4 594 596 597 595
4 596 598 599 597
4 598 600 601 599
4 600 602 603 601
4 602 604 605 603
4 604 606 607 605
4 606 608 609 607
4 608 610 611 609
4 610 612 613 611
4 612 614 615 613
4 614 616 617 615
4 616 618 619 617
4 618 620 621 619
4 620 622 623 621
4 622 624 625 623
4 624 626 627 625
4 626 628 629 627
4 628 630 631 629
4 630 632 633 631
4 632 634 635 633
4 634 636 637 635
4 636 638 639 637
4 638 640 641 639
4 640 642 643 641
4 642 644 645 643
4 644 646 647 645
4 646 648 649 647
4 648 650 651 649
POINT_DATA 652
FIELD attributes 1
U 3 652 float
2.48177 -0.0341101 -0.018384
1.24138 -0.0170549 -0.00919201
1.24138 -0.0170549 -0.00919201
2.48177 -0.0341101 -0.018384
0.000988751 6.23044e-07 0
0.000988751 6.23044e-07 0
0.000990542 2.99155e-07 0
0.000990542 2.99155e-07 0
0.000992005 -1.03639e-06 0
0.000992005 -1.03639e-06 0
0.000991836 -1.65594e-06 0
0.000991836 -1.65594e-06 0
0.000990061 -8.9629e-07 0
0.000990061 -8.9629e-07 0
0.000987542 4.65072e-08 0
0.000987542 4.65072e-08 0
0.000985568 -1.47819e-07 0
0.000985568 -1.47819e-07 0
0.000984748 -1.14938e-06 0
0.000984748 -1.14938e-06 0
0.000984447 -1.56253e-06 0
0.000984447 -1.56253e-06 0
0.000983463 -6.80861e-07 0
0.000983463 -6.80861e-07 0
0.00098133 7.88058e-07 0
0.00098133 7.88058e-07 0
0.000978764 1.67816e-06 0
0.000978764 1.67816e-06 0
0.000976741 1.7499e-06 0
0.000976741 1.7499e-06 0
0.000975396 1.82273e-06 0
0.000975396 1.82273e-06 0
0.000973943 2.59115e-06 0
0.000973943 2.59115e-06 0
0.000971566 3.67755e-06 0
0.000971566 3.67755e-06 0
0.000968247 4.0461e-06 0
0.000968247 4.0461e-06 0
0.000964701 3.23581e-06 0
0.000964701 3.23581e-06 0
0.000961573 2.02865e-06 0
0.000961573 2.02865e-06 0
0.000958795 1.78266e-06 0
0.000958795 1.78266e-06 0
0.00095568 3.07983e-06 0
0.00095568 3.07983e-06 0
0.000951592 5.09996e-06 0
0.000951592 5.09996e-06 0
0.000946545 6.31076e-06 0
0.000946545 6.31076e-06 0
0.000941196 5.76504e-06 0
0.000941196 5.76504e-06 0
0.000936277 3.86314e-06 0
0.000936277 3.86314e-06 0
0.000932012 1.99294e-06 0
0.000932012 1.99294e-06 0
0.00092794 1.44284e-06 0
0.00092794 1.44284e-06 0
0.000923184 2.55591e-06 0
0.000923184 2.55591e-06 0
0.000916961 4.68078e-06 0
0.000916961 4.68078e-06 0
0.000908998 6.74749e-06 0
0.000908998 6.74749e-06 0
0.00089961 7.94821e-06 0
0.00089961 7.94821e-06 0
0.000889449 8.07896e-06 0
0.000889449 8.07896e-06 0
0.00087915 7.44161e-06 0
0.00087915 7.44161e-06 0
0.000869111 6.51745e-06 0
0.000869111 6.51745e-06 0
0.000859444 5.68542e-06 0
0.000859444 5.68542e-06 0
0.000850074 5.11674e-06 0
0.000850074 5.11674e-06 0
0.000840859 4.81528e-06 0
0.000840859 4.81528e-06 0
0.000831669 4.70701e-06 0
0.000831669 4.70701e-06 0
0.000822417 4.70977e-06 0
0.000822417 4.70977e-06 0
0.000813056 4.7648e-06 0
0.000813056 4.7648e-06 0
0.000803565 4.8401e-06 0
0.000803565 4.8401e-06 0
0.000793935 4.92197e-06 0
0.000793935 4.92197e-06 0
0.000784163 5.00606e-06 0
0.000784163 5.00606e-06 0
0.000774244 5.09159e-06 0
0.000774244 5.09159e-06 0
0.000764176 5.17867e-06 0
0.000764176 5.17867e-06 0
0.000753954 5.2675e-06 0
0.000753954 5.2675e-06 0
0.000743574 5.35812e-06 0
0.000743574 5.35812e-06 0
0.000733033 5.45053e-06 0
0.000733033 5.45053e-06 0
0.000722325 5.54464e-06 0
0.000722325 5.54464e-06 0
0.000711447 5.64039e-06 0
0.000711447 5.64039e-06 0
0.000700394 5.73766e-06 0
0.000700394 5.73766e-06 0
0.000689163 5.83633e-06 0
0.000689163 5.83633e-06 0
0.00067775 5.93627e-06 0
0.00067775 5.93627e-06 0
0.000666151 6.03732e-06 0
0.000666151 6.03732e-06 0
0.000654362 6.13929e-06 0
0.000654362 6.13929e-06 0
0.00064238 6.24196e-06 0
0.00064238 6.24196e-06 0
0.000630202 6.34509e-06 0
0.000630202 6.34509e-06 0
0.000617825 6.44842e-06 0
0.000617825 6.44842e-06 0
0.000605248 6.55166e-06 0
0.000605248 6.55166e-06 0
0.000592467 6.65449e-06 0
0.000592467 6.65449e-06 0
0.000579481 6.75661e-06 0
0.000579481 6.75661e-06 0
0.000566289 6.85771e-06 0
0.000566289 6.85771e-06 0
0.000552891 6.95751e-06 0
0.000552891 6.95751e-06 0
0.000539287 7.05574e-06 0
0.000539287 7.05574e-06 0
0.000525479 7.15178e-06 0
0.000525479 7.15178e-06 0
0.000511468 7.24435e-06 0
0.000511468 7.24435e-06 0
0.000497256 7.33197e-06 0
0.000497256 7.33197e-06 0
0.000482847 7.41352e-06 0
0.000482847 7.41352e-06 0
0.000468245 7.48812e-06 0
0.000468245 7.48812e-06 0
0.000453455 7.55495e-06 0
0.000453455 7.55495e-06 0
0.000438485 7.61324e-06 0
0.000438485 7.61324e-06 0
0.000423341 7.66216e-06 0
0.000423341 7.66216e-06 0
0.000408032 7.70086e-06 0
0.000408032 7.70086e-06 0
0.000392571 7.72846e-06 0
0.000392571 7.72846e-06 0
0.000376967 7.74412e-06 0
0.000376967 7.74412e-06 0
0.000361235 7.74698e-06 0
0.000361235 7.74698e-06 0
0.000345389 7.7363e-06 0
0.000345389 7.7363e-06 0
0.000329445 7.71137e-06 0
0.000329445 7.71137e-06 0
0.000313419 7.67165e-06 0
0.000313419 7.67165e-06 0
0.000297329 7.61678e-06 0
0.000297329 7.61678e-06 0
0.000281195 7.54665e-06 0
0.000281195 7.54665e-06 0
0.000265035 7.46142e-06 0
0.000265035 7.46142e-06 0
0.000248871 7.36159e-06 0
0.000248871 7.36159e-06 0
0.00023272 7.24801e-06 0
0.00023272 7.24801e-06 0
0.000216602 7.1219e-06 0
0.000216602 7.1219e-06 0
0.000200536 6.98493e-06 0
0.000200536 6.98493e-06 0
0.000184537 6.83915e-06 0
0.000184537 6.83915e-06 0
0.000168621 6.68705e-06 0
0.000168621 6.68705e-06 0
0.0001528 6.5315e-06 0
0.0001528 6.5315e-06 0
0.000137083 6.37568e-06 0
0.000137083 6.37568e-06 0
0.000121475 6.22303e-06 0
0.000121475 6.22303e-06 0
0.000105978 6.07714e-06 0
0.000105978 6.07714e-06 0
9.05915e-05 5.94167e-06 0
9.05915e-05 5.94167e-06 0
7.53081e-05 5.82009e-06 0
7.53081e-05 5.82009e-06 0
6.01186e-05 5.71575e-06 0
6.01186e-05 5.71575e-06 0
4.50089e-05 5.63087e-06 0
4.50089e-05 5.63087e-06 0
2.99645e-05 5.56568e-06 0
2.99645e-05 5.56568e-06 0
1.49636e-05 5.52844e-06 0
1.49636e-05 5.52844e-06 0
7.47035e-06 5.51895e-06 0
7.47035e-06 5.51895e-06 0
8.94161e-06 1.50663e-05 0
8.94161e-06 1.50663e-05 0
1.03279e-05 3.56994e-05 0
1.03279e-05 3.56994e-05 0
1.00326e-05 5.64656e-05 0
1.00326e-05 5.64656e-05 0
9.72047e-06 7.59462e-05 0
9.72047e-06 7.59462e-05 0
9.59612e-06 9.53525e-05 0
9.59612e-06 9.53525e-05 0
9.58634e-06 0.000114549 0
9.58634e-06 0.000114549 0
9.62548e-06 0.000133782 0
9.62548e-06 0.000133782 0
9.68381e-06 0.000153131 0
9.68381e-06 0.000153131 0
9.75186e-06 0.00017261 0
9.75186e-06 0.00017261 0
9.82779e-06 0.000192232 0
9.82779e-06 0.000192232 0
9.91194e-06 0.000212013 0
9.91194e-06 0.000212013 0
1.0005e-05 0.000231971 0
1.0005e-05 0.000231971 0
1.01078e-05 0.000252124 0
1.01078e-05 0.000252124 0
1.0221e-05 0.000272493 0
1.0221e-05 0.000272493 0
1.03453e-05 0.000293099 0
1.03453e-05 0.000293099 0
1.04815e-05 0.000313965 0
1.04815e-05 0.000313965 0
1.06305e-05 0.000335115 0
1.06305e-05 0.000335115 0
1.07933e-05 0.000356577 0
1.07933e-05 0.000356577 0
1.0971e-05 0.000378378 0
1.0971e-05 0.000378378 0
1.11652e-05 0.00040055 0
1.11652e-05 0.00040055 0
1.13764e-05 0.000423126 0
1.13764e-05 0.000423126 0
1.16079e-05 0.000446145 0
1.16079e-05 0.000446145 0
1.18601e-05 0.000469644 0
1.18601e-05 0.000469644 0
1.21355e-05 0.000493671 0
1.21355e-05 0.000493671 0
1.24375e-05 0.000518274 0
1.24375e-05 0.000518274 0
1.27699e-05 0.000543508 0
1.27699e-05 0.000543508 0
1.31298e-05 0.000569431 0
1.31298e-05 0.000569431 0
1.35334e-05 0.000596121 0
1.35334e-05 0.000596121 0
1.39718e-05 0.00062364 0
1.39718e-05 0.00062364 0
1.44654e-05 0.000652097 0
1.44654e-05 0.000652097 0
1.49972e-05 0.000681563 0
1.49972e-05 0.000681563 0
1.56192e-05 0.000712203 0
1.56192e-05 0.000712203 0
1.62773e-05 0.000744073 0
1.62773e-05 0.000744073 0
1.70734e-05 0.000777442 0
1.70734e-05 0.000777442 0
1.78759e-05 0.000812331 0
1.78759e-05 0.000812331 0
1.897e-05 0.000849199 0
1.897e-05 0.000849199 0
1.99629e-05 0.00088799 0
1.99629e-05 0.00088799 0
2.149e-05 0.000929455 0
2.149e-05 0.000929455 0
2.27198e-05 0.000973397 0
2.27198e-05 0.000973397 0
2.50373e-05 0.00102117 0
2.50373e-05 0.00102117 0
2.65634e-05 0.00107222 0
2.65634e-05 0.00107222 0
3.04779e-05 0.00112914 0
3.04779e-05 0.00112914 0
3.2141e-05 0.00119066 0
3.2141e-05 0.00119066 0
3.95494e-05 0.00126178 0
3.95494e-05 0.00126178 0
4.14683e-05 0.00134066 0
4.14683e-05 0.00134066 0
5.78758e-05 0.00143685 0
5.78758e-05 0.00143685 0
6.24244e-05 0.00155121 0
6.24244e-05 0.00155121 0
0.000107475 0.00170079 0
0.000107475 0.00170079 0
0.000134164 0.00190218 0
0.000134164 0.00190218 0
6.99068e-05 0.00113319 0
6.99068e-05 0.00113319 0
-0.000402034 -4.51383e-05 0
-0.000402034 -4.51383e-05 0
-0.000290238 -0.000474981 0
-0.000290238 -0.000474981 0
0.000447523 -0.000443633 0
0.000447523 -0.000443633 0
0.000657204 -0.000207018 0
0.000657204 -0.000207018 0
0.000586745 -4.82687e-05 0
0.000586745 -4.82687e-05 0
0.00010591 0.000247476 0
0.00010591 0.000247476 0
-0.000769869 0.000489035 0
-0.000769869 0.000489035 0
-0.00165636 0.000470921 0
-0.00165636 0.000470921 0
-0.00237743 0.000377355 0
-0.00237743 0.000377355 0
-0.00293825 0.000275323 0
-0.00293825 0.000275323 0
-0.00330968 0.000168439 0
-0.00330968 0.000168439 0
-0.00349339 6.60828e-05 0
-0.00349339 6.60828e-05 0
-0.00349586 -2.52455e-05 0
-0.00349586 -2.52455e-05 0
-0.00334978 -0.000100153 0
-0.00334978 -0.000100153 0
-0.00308175 -0.000158115 0
-0.00308175 -0.000158115 0
-0.00272103 -0.000198293 0
-0.00272103 -0.000198293 0
-0.00230199 -0.000222191 0
-0.00230199 -0.000222191 0
-0.00185284 -0.000232886 0
-0.00185284 -0.000232886 0
-0.00139737 -0.000233012 0
-0.00139737 -0.000233012 0
-0.00095198 -0.000224831 0
-0.00095198 -0.000224831 0
-0.00052809 -0.000207237 0
-0.00052809 -0.000207237 0
-0.000143489 -0.000181476 0
-0.000143489 -0.000181476 0
0.000205171 -0.000180662 0
0.000205171 -0.000180662 0
0.000522904 -0.000160315 0
0.000522904 -0.000160315 0
0.000426797 -8.88605e-05 0
0.000426797 -8.88605e-05 0
-2.95669e-06 2.22177e-06 0
-2.95669e-06 2.22177e-06 0
-2.97889e-06 4.45126e-06 0
-2.97889e-06 4.45126e-06 0
-3.03615e-06 8.9709e-06 0
-3.03615e-06 8.9709e-06 0
-3.12842e-06 1.36519e-05 0
-3.12842e-06 1.36519e-05 0
-3.26327e-06 1.8576e-05 0
-3.26327e-06 1.8576e-05 0
-3.43899e-06 2.38289e-05 0
-3.43899e-06 2.38289e-05 0
-3.65743e-06 2.94993e-05 0
-3.65743e-06 2.94993e-05 0
-3.9198e-06 3.56789e-05 0
-3.9198e-06 3.56789e-05 0
-4.2285e-06 4.24651e-05 0
-4.2285e-06 4.24651e-05 0
-4.5858e-06 4.99605e-05 0
-4.5858e-06 4.99605e-05 0
-4.99438e-06 5.82757e-05 0
-4.99438e-06 5.82757e-05 0
-5.45868e-06 6.7528e-05 0
-5.45868e-06 6.7528e-05 0
-5.98198e-06 7.78431e-05 0
-5.98198e-06 7.78431e-05 0
-6.5691e-06 8.93585e-05 0
-6.5691e-06 8.93585e-05 0
-7.22529e-06 0.00010222 0
-7.22529e-06 0.00010222 0
-7.95561e-06 0.000116586 0
-7.95561e-06 0.000116586 0
-8.76603e-06 0.000132627 0
-8.76603e-06 0.000132627 0
-9.66165e-06 0.000150522 0
-9.66165e-06 0.000150522 0
-1.0647e-05 0.000170466 0
-1.0647e-05 0.000170466 0
-1.17262e-05 0.000192651 0
-1.17262e-05 0.000192651 0
-1.28996e-05 0.00021729 0
-1.28996e-05 0.00021729 0
-1.41656e-05 0.000244566 0
-1.41656e-05 0.000244566 0
-1.5514e-05 0.000274693 0
-1.5514e-05 0.000274693 0
-1.69356e-05 0.000307789 0
-1.69356e-05 0.000307789 0
-1.83918e-05 0.000344033 0
-1.83918e-05 0.000344033 0
-1.98775e-05 0.000383395 0
-1.98775e-05 0.000383395 0
-2.12788e-05 0.000425923 0
-2.12788e-05 0.000425923 0
-2.2578e-05 0.000471315 0
-2.2578e-05 0.000471315 0
-2.36994e-05 0.000519277 0
-2.36994e-05 0.000519277 0
-2.43728e-05 0.000569336 0
-2.43728e-05 0.000569336 0
-2.45747e-05 0.000620496 0
-2.45747e-05 0.000620496 0
-2.42846e-05 0.000671752 0
-2.42846e-05 0.000671752 0
-2.31752e-05 0.0007219 0
-2.31752e-05 0.0007219 0
-2.09016e-05 0.000768761 0
-2.09016e-05 0.000768761 0
-1.74478e-05 0.000810159 0
-1.74478e-05 0.000810159 0
-1.28361e-05 0.000843569 0
-1.28361e-05 0.000843569 0
-7.01659e-06 0.000866731 0
-7.01659e-06 0.000866731 0
3.27851e-07 0.000876694 0
3.27851e-07 0.000876694 0
9.63211e-06 0.000871596 0
9.63211e-06 0.000871596 0
2.03802e-05 0.000847025 0
2.03802e-05 0.000847025 0
3.2118e-05 0.000804305 0
3.2118e-05 0.000804305 0
4.36057e-05 0.000738444 0
4.36057e-05 0.000738444 0
5.54362e-05 0.000656429 0
5.54362e-05 0.000656429 0
6.67552e-05 0.000546795 0
6.67552e-05 0.000546795 0
8.08264e-05 0.00043117 0
8.08264e-05 0.00043117 0
8.52435e-05 0.000274111 0
8.52435e-05 0.000274111 0
8.8398e-05 0.000146408 0
8.8398e-05 0.000146408 0
-1.83556e-05 -3.32812e-05 0
-1.83556e-05 -3.32812e-05 0
-0.000147406 4.78146e-06 0
-0.000147406 4.78146e-06 0
1.03962e-05 7.71512e-05 0
1.03962e-05 7.71512e-05 0
-4.4469e-06 1.82753e-06 0
-4.4469e-06 1.82753e-06 0
-7.31296e-06 1.49776e-06 0
-7.31296e-06 1.49776e-06 0
-1.04095e-05 1.54612e-06 0
-1.04095e-05 1.54612e-06 0
-1.34852e-05 1.45281e-06 0
-1.34852e-05 1.45281e-06 0
-1.62032e-05 1.27329e-06 0
-1.62032e-05 1.27329e-06 0
-1.85573e-05 1.04757e-06 0
-1.85573e-05 1.04757e-06 0
-2.03728e-05 7.85642e-07 0
-2.03728e-05 7.85642e-07 0
-2.16682e-05 4.91477e-07 0
-2.16682e-05 4.91477e-07 0
-2.23149e-05 1.67008e-07 0
-2.23149e-05 1.67008e-07 0
-2.22987e-05 -1.83653e-07 0
-2.22987e-05 -1.83653e-07 0
-2.15465e-05 -5.57407e-07 0
-2.15465e-05 -5.57407e-07 0
-2.00282e-05 -9.49697e-07 0
-2.00282e-05 -9.49697e-07 0
-1.77032e-05 -1.35737e-06 0
-1.77032e-05 -1.35737e-06 0
-1.45494e-05 -1.77609e-06 0
-1.45494e-05 -1.77609e-06 0
-1.05501e-05 -2.20088e-06 0
-1.05501e-05 -2.20088e-06 0
-5.69313e-06 -2.62747e-06 0
-5.69313e-06 -2.62747e-06 0
3.05667e-08 -3.05382e-06 0
3.05667e-08 -3.05382e-06 0
6.61573e-06 -3.47552e-06 0
6.61573e-06 -3.47552e-06 0
1.40365e-05 -3.88742e-06 0
1.40365e-05 -3.88742e-06 0
2.22672e-05 -4.2869e-06 0
2.22672e-05 -4.2869e-06 0
3.12831e-05 -4.67059e-06 0
3.12831e-05 -4.67059e-06 0
4.10496e-05 -5.03573e-06 0
4.10496e-05 -5.03573e-06 0
5.15269e-05 -5.37995e-06 0
5.15269e-05 -5.37995e-06 0
6.26707e-05 -5.70126e-06 0
6.26707e-05 -5.70126e-06 0
7.44331e-05 -5.99808e-06 0
7.44331e-05 -5.99808e-06 0
8.67635e-05 -6.26922e-06 0
8.67635e-05 -6.26922e-06 0
9.96093e-05 -6.51388e-06 0
9.96093e-05 -6.51388e-06 0
0.000112917 -6.73162e-06 0
0.000112917 -6.73162e-06 0
0.000126631 -6.92234e-06 0
0.000126631 -6.92234e-06 0
0.0001407 -7.08626e-06 0
0.0001407 -7.08626e-06 0
0.000155068 -7.22386e-06 0
0.000155068 -7.22386e-06 0
0.000169685 -7.33586e-06 0
0.000169685 -7.33586e-06 0
0.0001845 -7.42318e-06 0
0.0001845 -7.42318e-06 0
0.000199465 -7.48691e-06 0
0.000199465 -7.48691e-06 0
0.000214534 -7.52828e-06 0
0.000214534 -7.52828e-06 0
0.000229665 -7.54861e-06 0
0.000229665 -7.54861e-06 0
0.000244816 -7.54929e-06 0
0.000244816 -7.54929e-06 0
0.000259951 -7.53179e-06 0
0.000259951 -7.53179e-06 0
0.000275032 -7.49755e-06 0
0.000275032 -7.49755e-06 0
0.00029003 -7.44804e-06 0
0.00029003 -7.44804e-06 0
0.000304914 -7.3847e-06 0
0.000304914 -7.3847e-06 0
0.000319657 -7.30892e-06 0
0.000319657 -7.30892e-06 0
0.000334238 -7.22206e-06 0
0.000334238 -7.22206e-06 0
0.000348633 -7.1254e-06 0
0.000348633 -7.1254e-06 0
0.000362826 -7.02018e-06 0
0.000362826 -7.02018e-06 0
0.0003768 -6.90754e-06 0
0.0003768 -6.90754e-06 0
0.000390541 -6.78859e-06 0
0.000390541 -6.78859e-06 0
0.000404038 -6.66431e-06 0
0.000404038 -6.66431e-06 0
0.000417282 -6.53563e-06 0
0.000417282 -6.53563e-06 0
0.000430263 -6.40343e-06 0
0.000430263 -6.40343e-06 0
0.000442976 -6.26847e-06 0
0.000442976 -6.26847e-06 0
0.000455417 -6.13146e-06 0
0.000455417 -6.13146e-06 0
0.000467581 -5.99306e-06 0
0.000467581 -5.99306e-06 0
0.000479466 -5.85384e-06 0
0.000479466 -5.85384e-06 0
0.000491072 -5.71431e-06 0
0.000491072 -5.71431e-06 0
0.000502398 -5.57493e-06 0
0.000502398 -5.57493e-06 0
0.000513445 -5.43612e-06 0
0.000513445 -5.43612e-06 0
0.000524215 -5.29822e-06 0
0.000524215 -5.29822e-06 0
0.000534709 -5.16155e-06 0
0.000534709 -5.16155e-06 0
0.000544931 -5.02638e-06 0
0.000544931 -5.02638e-06 0
0.000554883 -4.89294e-06 0
0.000554883 -4.89294e-06 0
0.00056457 -4.76142e-06 0
0.00056457 -4.76142e-06 0
0.000573995 -4.63199e-06 0
0.000573995 -4.63199e-06 0
0.000583163 -4.50479e-06 0
0.000583163 -4.50479e-06 0
0.000592078 -4.37992e-06 0
0.000592078 -4.37992e-06 0
0.000600744 -4.25747e-06 0
0.000600744 -4.25747e-06 0
0.000609168 -4.13752e-06 0
0.000609168 -4.13752e-06 0
0.000617354 -4.0201e-06 0
0.000617354 -4.0201e-06 0
0.000625307 -3.90525e-06 0
0.000625307 -3.90525e-06 0
0.000633033 -3.79299e-06 0
0.000633033 -3.79299e-06 0
0.000640535 -3.68332e-06 0
0.000640535 -3.68332e-06 0
0.000647821 -3.57624e-06 0
0.000647821 -3.57624e-06 0
0.000654894 -3.47173e-06 0
0.000654894 -3.47173e-06 0
0.000661761 -3.36977e-06 0
0.000661761 -3.36977e-06 0
0.000668425 -3.27033e-06 0
0.000668425 -3.27033e-06 0
0.000674892 -3.17336e-06 0
0.000674892 -3.17336e-06 0
0.000681168 -3.07884e-06 0
0.000681168 -3.07884e-06 0
0.000687256 -2.9867e-06 0
0.000687256 -2.9867e-06 0
0.000693162 -2.89691e-06 0
0.000693162 -2.89691e-06 0
0.00069889 -2.80941e-06 0
0.00069889 -2.80941e-06 0
0.000704445 -2.72412e-06 0
0.000704445 -2.72412e-06 0
0.00070983 -2.64103e-06 0
0.00070983 -2.64103e-06 0
0.000715052 -2.56003e-06 0
0.000715052 -2.56003e-06 0
0.000720113 -2.4811e-06 0
0.000720113 -2.4811e-06 0
0.000725018 -2.40413e-06 0
0.000725018 -2.40413e-06 0
0.000729769 -2.32913e-06 0
0.000729769 -2.32913e-06 0
0.000734374 -2.25592e-06 0
0.000734374 -2.25592e-06 0
0.00073883 -2.18463e-06 0
0.00073883 -2.18463e-06 0
0.000743152 -2.11489e-06 0
0.000743152 -2.11489e-06 0
0.000747323 -2.0471e-06 0
0.000747323 -2.0471e-06 0
0.00075138 -1.98049e-06 0
0.00075138 -1.98049e-06 0
0.000755273 -1.91609e-06 0
0.000755273 -1.91609e-06 0
0.000759088 -1.85216e-06 0
0.000759088 -1.85216e-06 0
0.000762699 -1.79118e-06 0
0.000762699 -1.79118e-06 0
0.000766309 -1.72923e-06 0
0.000766309 -1.72923e-06 0
0.000769608 -1.67214e-06 0
0.000769608 -1.67214e-06 0
0.000773084 -1.61082e-06 0
0.000773084 -1.61082e-06 0
0.000775982 -1.55902e-06 0
0.000775982 -1.55902e-06 0
0.978377 -0.00180847 0
0.978377 -0.00180847 0
1.95598 -0.0036154 0
1.95598 -0.0036154 0
