# vtk DataFile Version 2.0
sampleSurface
ASCII
DATASET POLYDATA
POINTS 652 double
0 0 0
0.02 0 0
0.02 0 0.1
0 0 0.1
0.04 0 0
0.04 0 0.1
0.06 0 0
0.06 0 0.1
0.08 0 0
0.08 0 0.1
0.1 0 0
0.1 0 0.1
0.12 0 0
0.12 0 0.1
0.14 0 0
0.14 0 0.1
0.16 0 0
0.16 0 0.1
0.18 0 0
0.18 0 0.1
0.2 0 0
0.2 0 0.1
0.22 0 0
0.22 0 0.1
0.24 0 0
0.24 0 0.1
0.26 0 0
0.26 0 0.1
0.28 0 0
0.28 0 0.1
0.3 0 0
0.3 0 0.1
0.32 0 0
0.32 0 0.1
0.34 0 0
0.34 0 0.1
0.36 0 0
0.36 0 0.1
0.38 0 0
0.38 0 0.1
0.4 0 0
0.4 0 0.1
0.42 0 0
0.42 0 0.1
0.44 0 0
0.44 0 0.1
0.46 0 0
0.46 0 0.1
0.48 0 0
0.48 0 0.1
0.5 0 0
0.5 0 0.1
0.52 0 0
0.52 0 0.1
0.54 0 0
0.54 0 0.1
0.56 0 0
0.56 0 0.1
0.58 0 0
0.58 0 0.1
0.6 0 0
0.6 0 0.1
0.62 0 0
0.62 0 0.1
0.64 0 0
0.64 0 0.1
0.66 0 0
0.66 0 0.1
0.68 0 0
0.68 0 0.1
0.7 0 0
0.7 0 0.1
0.72 0 0
0.72 0 0.1
0.74 0 0
0.74 0 0.1
0.76 0 0
0.76 0 0.1
0.78 0 0
0.78 0 0.1
0.8 0 0
0.8 0 0.1
0.82 0 0
0.82 0 0.1
0.84 0 0
0.84 0 0.1
0.86 0 0
0.86 0 0.1
0.88 0 0
0.88 0 0.1
0.9 0 0
0.9 0 0.1
0.92 0 0
0.92 0 0.1
0.94 0 0
0.94 0 0.1
0.96 0 0
0.96 0 0.1
0.98 0 0
0.98 0 0.1
1 0 0
1 0 0.1
1.02 0 0
1.02 0 0.1
1.04 0 0
1.04 0 0.1
1.06 0 0
1.06 0 0.1
1.08 0 0
1.08 0 0.1
1.1 0 0
1.1 0 0.1
1.12 0 0
1.12 0 0.1
1.14 0 0
1.14 0 0.1
1.16 0 0
1.16 0 0.1
1.18 0 0
1.18 0 0.1
1.2 0 0
1.2 0 0.1
1.22 0 0
1.22 0 0.1
1.24 0 0
1.24 0 0.1
1.26 0 0
1.26 0 0.1
1.28 0 0
1.28 0 0.1
1.3 0 0
1.3 0 0.1
1.32 0 0
1.32 0 0.1
1.34 0 0
1.34 0 0.1
1.36 0 0
1.36 0 0.1
1.38 0 0
1.38 0 0.1
1.4 0 0
1.4 0 0.1
1.42 0 0
1.42 0 0.1
1.44 0 0
1.44 0 0.1
1.46 0 0
1.46 0 0.1
1.48 0 0
1.48 0 0.1
1.5 0 0
1.5 0 0.1
1.52 0 0
1.52 0 0.1
1.54 0 0
1.54 0 0.1
1.56 0 0
1.56 0 0.1
1.58 0 0
1.58 0 0.1
1.6 0 0
1.6 0 0.1
1.62 0 0
1.62 0 0.1
1.64 0 0
1.64 0 0.1
1.66 0 0
1.66 0 0.1
1.68 0 0
1.68 0 0.1
1.7 0 0
1.7 0 0.1
1.72 0 0
1.72 0 0.1
1.74 0 0
1.74 0 0.1
1.76 0 0
1.76 0 0.1
1.78 0 0
1.78 0 0.1
1.8 0 0
1.8 0 0.1
1.82 0 0
1.82 0 0.1
1.84 0 0
1.84 0 0.1
1.86 0 0
1.86 0 0.1
1.88 0 0
1.88 0 0.1
1.9 0 0
1.9 0 0.1
1.92 0 0
1.92 0 0.1
1.94 0 0
1.94 0 0.1
1.96 0 0
1.96 0 0.1
1.98 0 0
1.98 0 0.1
2 0 0
2 0 0.1
2 0.02 0
2 0.02 0.1
2 0.04 0
2 0.04 0.1
2 0.06 0
2 0.06 0.1
2 0.08 0
2 0.08 0.1
2 0.1 0
2 0.1 0.1
2 0.12 0
2 0.12 0.1
2 0.14 0
2 0.14 0.1
2 0.16 0
2 0.16 0.1
2 0.18 0
2 0.18 0.1
2 0.2 0
2 0.2 0.1
2 0.22 0
2 0.22 0.1
2 0.24 0
2 0.24 0.1
2 0.26 0
2 0.26 0.1
2 0.28 0
2 0.28 0.1
2 0.3 0
2 0.3 0.1
2 0.32 0
2 0.32 0.1
2 0.34 0
2 0.34 0.1
2 0.36 0
2 0.36 0.1
2 0.38 0
2 0.38 0.1
2 0.4 0
2 0.4 0.1
2 0.42 0
2 0.42 0.1
2 0.44 0
2 0.44 0.1
2 0.46 0
2 0.46 0.1
2 0.48 0
2 0.48 0.1
2 0.5 0
2 0.5 0.1
2 0.52 0
2 0.52 0.1
2 0.54 0
2 0.54 0.1
2 0.56 0
2 0.56 0.1
2 0.58 0
2 0.58 0.1
2 0.6 0
2 0.6 0.1
2 0.62 0
2 0.62 0.1
2 0.64 0
2 0.64 0.1
2 0.66 0
2 0.66 0.1
2 0.68 0
2 0.68 0.1
2 0.7 0
2 0.7 0.1
2 0.72 0
2 0.72 0.1
2 0.74 0
2 0.74 0.1
2 0.76 0
2 0.76 0.1
2 0.78 0
2 0.78 0.1
2 0.8 0
2 0.8 0.1
2 0.82 0
2 0.82 0.1
2 0.84 0
2 0.84 0.1
2 0.86 0
2 0.86 0.1
2 0.88 0
2 0.88 0.1
2 0.9 0
2 0.9 0.1
2 0.92 0
2 0.92 0.1
2 0.94 0
2 0.94 0.1
2 0.96 0
2 0.96 0.1
2 0.98 0
2 0.98 0.1
2 1 0
2 1 0.1
2.02 1 0
2.02 1 0.1
2.04 1 0
2.04 1 0.1
2.06 1 0
2.06 1 0.1
2.08 1 0
2.08 1 0.1
2.1 1 0
2.1 1 0.1
2.12 1 0
2.12 1 0.1
2.14 1 0
2.14 1 0.1
2.16 1 0
2.16 1 0.1
2.18 1 0
2.18 1 0.1
2.2 1 0
2.2 1 0.1
2.22 1 0
2.22 1 0.1
2.24 1 0
2.24 1 0.1
2.26 1 0
2.26 1 0.1
2.28 1 0
2.28 1 0.1
2.3 1 0
2.3 1 0.1
2.32 1 0
2.32 1 0.1
2.34 1 0
2.34 1 0.1
2.36 1 0
2.36 1 0.1
2.38 1 0
2.38 1 0.1
2.4 1 0
2.4 1 0.1
2.42 1 0
2.42 1 0.1
2.44 1 0
2.44 1 0.1
2.46 1 0
2.46 1 0.1
2.48 1 0
2.48 1 0.1
2.5 1 0
2.5 1 0.1
2.5 0 0
2.5 0 0.1
2.5 0.02 0.1
2.5 0.02 0
2.5 0.04 0.1
2.5 0.04 0
2.5 0.06 0.1
2.5 0.06 0
2.5 0.08 0.1
2.5 0.08 0
2.5 0.1 0.1
2.5 0.1 0
2.5 0.12 0.1
2.5 0.12 0
2.5 0.14 0.1
2.5 0.14 0
2.5 0.16 0.1
2.5 0.16 0
2.5 0.18 0.1
2.5 0.18 0
2.5 0.2 0.1
2.5 0.2 0
2.5 0.22 0.1
2.5 0.22 0
2.5 0.24 0.1
2.5 0.24 0
2.5 0.26 0.1
2.5 0.26 0
2.5 0.28 0.1
2.5 0.28 0
2.5 0.3 0.1
2.5 0.3 0
2.5 0.32 0.1
2.5 0.32 0
2.5 0.34 0.1
2.5 0.34 0
2.5 0.36 0.1
2.5 0.36 0
2.5 0.38 0.1
2.5 0.38 0
2.5 0.4 0.1
2.5 0.4 0
2.5 0.42 0.1
2.5 0.42 0
2.5 0.44 0.1
2.5 0.44 0
2.5 0.46 0.1
2.5 0.46 0
2.5 0.48 0.1
2.5 0.48 0
2.5 0.5 0.1
2.5 0.5 0
2.5 0.52 0.1
2.5 0.52 0
2.5 0.54 0.1
2.5 0.54 0
2.5 0.56 0.1
2.5 0.56 0
2.5 0.58 0.1
2.5 0.58 0
2.5 0.6 0.1
2.5 0.6 0
2.5 0.62 0.1
2.5 0.62 0
2.5 0.64 0.1
2.5 0.64 0
2.5 0.66 0.1
2.5 0.66 0
2.5 0.68 0.1
2.5 0.68 0
2.5 0.7 0.1
2.5 0.7 0
2.5 0.72 0.1
2.5 0.72 0
2.5 0.74 0.1
2.5 0.74 0
2.5 0.76 0.1
2.5 0.76 0
2.5 0.78 0.1
2.5 0.78 0
2.5 0.8 0.1
2.5 0.8 0
2.5 0.82 0.1
2.5 0.82 0
2.5 0.84 0.1
2.5 0.84 0
2.5 0.86 0.1
2.5 0.86 0
2.5 0.88 0.1
2.5 0.88 0
2.5 0.9 0.1
2.5 0.9 0
2.5 0.92 0.1
2.5 0.92 0
2.5 0.94 0.1
2.5 0.94 0
2.5 0.96 0.1
2.5 0.96 0
2.5 0.98 0.1
2.5 0.98 0
2.52 0 0
2.52 0 0.1
2.54 0 0
2.54 0 0.1
2.56 0 0
2.56 0 0.1
2.58 0 0
2.58 0 0.1
2.6 0 0
2.6 0 0.1
2.62 0 0
2.62 0 0.1
2.64 0 0
2.64 0 0.1
2.66 0 0
2.66 0 0.1
2.68 0 0
2.68 0 0.1
2.7 0 0
2.7 0 0.1
2.72 0 0
2.72 0 0.1
2.74 0 0
2.74 0 0.1
2.76 0 0
2.76 0 0.1
2.78 0 0
2.78 0 0.1
2.8 0 0
2.8 0 0.1
2.82 0 0
2.82 0 0.1
2.84 0 0
2.84 0 0.1
2.86 0 0
2.86 0 0.1
2.88 0 0
2.88 0 0.1
2.9 0 0
2.9 0 0.1
2.92 0 0
2.92 0 0.1
2.94 0 0
2.94 0 0.1
2.96 0 0
2.96 0 0.1
2.98 0 0
2.98 0 0.1
3 0 0
3 0 0.1
3.02 0 0
3.02 0 0.1
3.04 0 0
3.04 0 0.1
3.06 0 0
3.06 0 0.1
3.08 0 0
3.08 0 0.1
3.1 0 0
3.1 0 0.1
3.12 0 0
3.12 0 0.1
3.14 0 0
3.14 0 0.1
3.16 0 0
3.16 0 0.1
3.18 0 0
3.18 0 0.1
3.2 0 0
3.2 0 0.1
3.22 0 0
3.22 0 0.1
3.24 0 0
3.24 0 0.1
3.26 0 0
3.26 0 0.1
3.28 0 0
3.28 0 0.1
3.3 0 0
3.3 0 0.1
3.32 0 0
3.32 0 0.1
3.34 0 0
3.34 0 0.1
3.36 0 0
3.36 0 0.1
3.38 0 0
3.38 0 0.1
3.4 0 0
3.4 0 0.1
3.42 0 0
3.42 0 0.1
3.44 0 0
3.44 0 0.1
3.46 0 0
3.46 0 0.1
3.48 0 0
3.48 0 0.1
3.5 0 0
3.5 0 0.1
3.52 0 0
3.52 0 0.1
3.54 0 0
3.54 0 0.1
3.56 0 0
3.56 0 0.1
3.58 0 0
3.58 0 0.1
3.6 0 0
3.6 0 0.1
3.62 0 0
3.62 0 0.1
3.64 0 0
3.64 0 0.1
3.66 0 0
3.66 0 0.1
3.68 0 0
3.68 0 0.1
3.7 0 0
3.7 0 0.1
3.72 0 0
3.72 0 0.1
3.74 0 0
3.74 0 0.1
3.76 0 0
3.76 0 0.1
3.78 0 0
3.78 0 0.1
3.8 0 0
3.8 0 0.1
3.82 0 0
3.82 0 0.1
3.84 0 0
3.84 0 0.1
3.86 0 0
3.86 0 0.1
3.88 0 0
3.88 0 0.1
3.9 0 0
3.9 0 0.1
3.92 0 0
3.92 0 0.1
3.94 0 0
3.94 0 0.1
3.96 0 0
3.96 0 0.1
3.98 0 0
3.98 0 0.1
4 0 0
4 0 0.1
4.02 0 0
4.02 0 0.1
4.04 0 0
4.04 0 0.1
4.06 0 0
4.06 0 0.1
4.08 0 0
4.08 0 0.1
4.1 0 0
4.1 0 0.1
4.12 0 0
4.12 0 0.1
4.14 0 0
4.14 0 0.1
4.16 0 0
4.16 0 0.1
4.18 0 0
4.18 0 0.1
4.2 0 0
4.2 0 0.1
4.22 0 0
4.22 0 0.1
4.24 0 0
4.24 0 0.1
4.26 0 0
4.26 0 0.1
4.28 0 0
4.28 0 0.1
4.3 0 0
4.3 0 0.1
4.32 0 0
4.32 0 0.1
4.34 0 0
4.34 0 0.1
4.36 0 0
4.36 0 0.1
4.38 0 0
4.38 0 0.1
4.4 0 0
4.4 0 0.1
4.42 0 0
4.42 0 0.1
4.44 0 0
4.44 0 0.1
4.46 0 0
4.46 0 0.1
4.48 0 0
4.48 0 0.1
4.5 0 0
4.5 0 0.1

POLYGONS 325 1625
4 0 1 2 3
4 1 4 5 2
4 4 6 7 5
4 6 8 9 7
4 8 10 11 9
4 10 12 13 11
4 12 14 15 13
4 14 16 17 15
4 16 18 19 17
4 18 20 21 19
4 20 22 23 21
4 22 24 25 23
4 24 26 27 25
4 26 28 29 27
4 28 30 31 29
4 30 32 33 31
4 32 34 35 33
4 34 36 37 35
4 36 38 39 37
4 38 40 41 39
4 40 42 43 41
4 42 44 45 43
4 44 46 47 45
4 46 48 49 47
4 48 50 51 49
4 50 52 53 51
4 52 54 55 53
4 54 56 57 55
4 56 58 59 57
4 58 60 61 59
4 60 62 63 61
4 62 64 65 63
4 64 66 67 65
4 66 68 69 67
4 68 70 71 69
4 70 72 73 71
4 72 74 75 73
4 74 76 77 75
4 76 78 79 77
4 78 80 81 79
4 80 82 83 81
4 82 84 85 83
4 84 86 87 85
4 86 88 89 87
4 88 90 91 89
4 90 92 93 91
4 92 94 95 93
4 94 96 97 95
4 96 98 99 97
4 98 100 101 99
4 100 102 103 101
4 102 104 105 103
4 104 106 107 105
4 106 108 109 107
4 108 110 111 109
4 110 112 113 111
4 112 114 115 113
4 114 116 117 115
4 116 118 119 117
4 118 120 121 119
4 120 122 123 121
4 122 124 125 123
4 124 126 127 125
4 126 128 129 127
4 128 130 131 129
4 130 132 133 131
4 132 134 135 133
4 134 136 137 135
4 136 138 139 137
4 138 140 141 139
4 140 142 143 141
4 142 144 145 143
4 144 146 147 145
4 146 148 149 147
4 148 150 151 149
4 150 152 153 151
4 152 154 155 153
4 154 156 157 155
4 156 158 159 157
4 158 160 161 159
4 160 162 163 161
4 162 164 165 163
4 164 166 167 165
4 166 168 169 167
4 168 170 171 169
4 170 172 173 171
4 172 174 175 173
4 174 176 177 175
4 176 178 179 177
4 178 180 181 179
4 180 182 183 181
4 182 184 185 183
4 184 186 187 185
4 186 188 189 187
4 188 190 191 189
4 190 192 193 191
4 192 194 195 193
4 194 196 197 195
4 196 198 199 197
4 198 200 201 199
4 200 202 203 201
4 202 204 205 203
4 204 206 207 205
4 206 208 209 207
4 208 210 211 209
4 210 212 213 211
4 212 214 215 213
4 214 216 217 215
4 216 218 219 217
4 218 220 221 219
4 220 222 223 221
4 222 224 225 223
4 224 226 227 225
4 226 228 229 227
4 228 230 231 229
4 230 232 233 231
4 232 234 235 233
4 234 236 237 235
4 236 238 239 237
4 238 240 241 239
4 240 242 243 241
4 242 244 245 243
4 244 246 247 245
4 246 248 249 247
4 248 250 251 249
4 250 252 253 251
4 252 254 255 253
4 254 256 257 255
4 256 258 259 257
4 258 260 261 259
4 260 262 263 261
4 262 264 265 263
4 264 266 267 265
4 266 268 269 267
4 268 270 271 269
4 270 272 273 271
4 272 274 275 273
4 274 276 277 275
4 276 278 279 277
4 278 280 281 279
4 280 282 283 281
4 282 284 285 283
4 284 286 287 285
4 286 288 289 287
4 288 290 291 289
4 290 292 293 291
4 292 294 295 293
4 294 296 297 295
4 296 298 299 297
4 298 300 301 299
4 300 302 303 301
4 302 304 305 303
4 304 306 307 305
4 306 308 309 307
4 308 310 311 309
4 310 312 313 311
4 312 314 315 313
4 314 316 317 315
4 316 318 319 317
4 318 320 321 319
4 320 322 323 321
4 322 324 325 323
4 324 326 327 325
4 326 328 329 327
4 328 330 331 329
4 330 332 333 331
4 332 334 335 333
4 334 336 337 335
4 336 338 339 337
4 338 340 341 339
4 340 342 343 341
4 342 344 345 343
4 344 346 347 345
4 346 348 349 347
4 348 350 351 349
4 352 353 354 355
4 355 354 356 357
4 357 356 358 359
4 359 358 360 361
4 361 360 362 363
4 363 362 364 365
4 365 364 366 367
4 367 366 368 369
4 369 368 370 371
4 371 370 372 373
4 373 372 374 375
4 375 374 376 377
4 377 376 378 379
4 379 378 380 381
4 381 380 382 383
4 383 382 384 385
4 385 384 386 387
4 387 386 388 389
4 389 388 390 391
4 391 390 392 393
4 393 392 394 395
4 395 394 396 397
4 397 396 398 399
4 399 398 400 401
4 401 400 402 403
4 403 402 404 405
4 405 404 406 407
4 407 406 408 409
4 409 408 410 411
4 411 410 412 413
4 413 412 414 415
4 415 414 416 417
4 417 416 418 419
4 419 418 420 421
4 421 420 422 423
4 423 422 424 425
4 425 424 426 427
4 427 426 428 429
4 429 428 430 431
4 431 430 432 433
4 433 432 434 435
4 435 434 436 437
4 437 436 438 439
4 439 438 440 441
4 441 440 442 443
4 443 442 444 445
4 445 444 446 447
4 447 446 448 449
4 449 448 450 451
4 451 450 351 350
4 352 452 453 353
4 452 454 455 453
4 454 456 457 455
4 456 458 459 457
4 458 460 461 459
4 460 462 463 461
4 462 464 465 463
4 464 466 467 465
4 466 468 469 467
4 468 470 471 469
4 470 472 473 471
4 472 474 475 473
4 474 476 477 475
4 476 478 479 477
4 478 480 481 479
4 480 482 483 481
4 482 484 485 483
4 484 486 487 485
4 486 488 489 487
4 488 490 491 489
4 490 492 493 491
4 492 494 495 493
4 494 496 497 495
4 496 498 499 497
4 498 500 501 499
4 500 502 503 501
4 502 504 505 503
4 504 506 507 505
4 506 508 509 507
4 508 510 511 509
4 510 512 513 511
4 512 514 515 513
4 514 516 517 515
4 516 518 519 517
4 518 520 521 519
4 520 522 523 521
4 522 524 525 523
4 524 526 527 525
4 526 528 529 527
4 528 530 531 529
4 530 532 533 531
4 532 534 535 533
4 534 536 537 535
4 536 538 539 537
4 538 540 541 539
4 540 542 543 541
4 542 544 545 543
4 544 546 547 545
4 546 548 549 547
4 548 550 551 549
4 550 552 553 551
4 552 554 555 553
4 554 556 557 555
4 556 558 559 557
4 558 560 561 559
4 560 562 563 561
4 562 564 565 563
4 564 566 567 565
4 566 568 569 567
4 568 570 571 569
4 570 572 573 571
4 572 574 575 573
4 574 576 577 575
4 576 578 579 577
4 578 580 581 579
4 580 582 583 581
4 582 584 585 583
4 584 586 587 585
4 586 588 589 587
4 588 590 591 589
4 590 592 593 591
4 592 594 595 593
4 594 596 597 595
4 596 598 599 597
4 598 600 601 599
4 600 602 603 601
4 602 604 605 603
4 604 606 607 605
4 606 608 609 607
4 608 610 611 609
4 610 612 613 611
4 612 614 615 613
4 614 616 617 615
4 616 618 619 617
4 618 620 621 619
4 620 622 623 621
4 622 624 625 623
4 624 626 627 625
4 626 628 629 627
4 628 630 631 629
4 630 632 633 631
4 632 634 635 633
4 634 636 637 635
4 636 638 639 637
4 638 640 641 639
4 640 642 643 641
4 642 644 645 643
4 644 646 647 645
4 646 648 649 647
4 648 650 651 649
POINT_DATA 652
FIELD attributes 1
U 3 652 float
2.49672 -0.0111224 0.0699715
1.24886 -0.00556629 0.0349858
1.24886 -0.00556629 0.0349858
2.49672 -0.0111224 0.0699715
0.0010049 -8.4479e-06 0
0.0010049 -8.4479e-06 0
0.00100458 -6.11827e-06 0
0.00100458 -6.11827e-06 0
0.00100365 -4.53081e-06 0
0.00100365 -4.53081e-06 0
0.00100145 -2.32678e-06 0
0.00100145 -2.32678e-06 0
0.00099866 -2.59432e-07 0
0.00099866 -2.59432e-07 0
0.000996393 1.09423e-06 0
0.000996393 1.09423e-06 0
0.000995285 1.54728e-06 0
0.000995285 1.54728e-06 0
0.00099501 1.29199e-06 0
0.00099501 1.29199e-06 0
0.000994394 8.59445e-07 0
0.000994394 8.59445e-07 0
0.000992308 7.07198e-07 0
0.000992308 7.07198e-07 0
0.000988721 7.64123e-07 0
0.000988721 7.64123e-07 0
0.000984715 5.62472e-07 0
0.000984715 5.62472e-07 0
0.000981429 -4.08114e-08 0
0.000981429 -4.08114e-08 0
0.00097905 -5.56145e-07 0
0.00097905 -5.56145e-07 0
0.00097683 -4.3571e-07 0
0.00097683 -4.3571e-07 0
0.000973987 2.75252e-07 0
0.000973987 2.75252e-07 0
0.000970487 1.01943e-06 0
0.000970487 1.01943e-06 0
0.000966958 1.40276e-06 0
0.000966958 1.40276e-06 0
0.000963924 1.65621e-06 0
0.000963924 1.65621e-06 0
0.000961229 2.32879e-06 0
0.000961229 2.32879e-06 0
0.0009582 3.53435e-06 0
0.0009582 3.53435e-06 0
0.000954325 4.63862e-06 0
0.000954325 4.63862e-06 0
0.000949755 4.8001e-06 0
0.000949755 4.8001e-06 0
0.000945135 3.86945e-06 0
0.000945135 3.86945e-06 0
0.000940934 2.73501e-06 0
0.000940934 2.73501e-06 0
0.000936935 2.63959e-06 0
0.000936935 2.63959e-06 0
0.000932389 4.03442e-06 0
0.000932389 4.03442e-06 0
0.000926703 6.07965e-06 0
0.000926703 6.07965e-06 0
0.000920058 7.27099e-06 0
0.000920058 7.27099e-06 0
0.000913329 6.64587e-06 0
0.000913329 6.64587e-06 0
0.000907368 4.58412e-06 0
0.000907368 4.58412e-06 0
0.000902312 2.56908e-06 0
0.000902312 2.56908e-06 0
0.000897412 2.11467e-06 0
0.000897412 2.11467e-06 0
0.000891444 3.66569e-06 0
0.000891444 3.66569e-06 0
0.000883496 6.1871e-06 0
0.000883496 6.1871e-06 0
0.000873639 7.7799e-06 0
0.000873639 7.7799e-06 0
0.000863 7.05725e-06 0
0.000863 7.05725e-06 0
0.000853087 4.33889e-06 0
0.000853087 4.33889e-06 0
0.000844842 1.58689e-06 0
0.000844842 1.58689e-06 0
0.000838069 8.9307e-07 0
0.000838069 8.9307e-07 0
0.000831628 2.77502e-06 0
0.000831628 2.77502e-06 0
0.000824302 5.81324e-06 0
0.000824302 5.81324e-06 0
0.000815631 7.9514e-06 0
0.000815631 7.9514e-06 0
0.000806008 8.22422e-06 0
0.000806008 8.22422e-06 0
0.000796058 7.26534e-06 0
0.000796058 7.26534e-06 0
0.000786039 6.36543e-06 0
0.000786039 6.36543e-06 0
0.000775753 6.32439e-06 0
0.000775753 6.32439e-06 0
0.000764821 7.1506e-06 0
0.000764821 7.1506e-06 0
0.000752901 8.42163e-06 0
0.000752901 8.42163e-06 0
0.000739826 9.57855e-06 0
0.000739826 9.57855e-06 0
0.000725768 1.00323e-05 0
0.000725768 1.00323e-05 0
0.000711302 9.44994e-06 0
0.000711302 9.44994e-06 0
0.000697088 8.11921e-06 0
0.000697088 8.11921e-06 0
0.000683346 6.80038e-06 0
0.000683346 6.80038e-06 0
0.000669709 6.04889e-06 0
0.000669709 6.04889e-06 0
0.000655678 5.87016e-06 0
0.000655678 5.87016e-06 0
0.000641085 6.22496e-06 0
0.000641085 6.22496e-06 0
0.00062588 7.56291e-06 0
0.00062588 7.56291e-06 0
0.000609554 1.02501e-05 0
0.000609554 1.02501e-05 0
0.000591252 1.34362e-05 0
0.000591252 1.34362e-05 0
0.000570707 1.53532e-05 0
0.000570707 1.53532e-05 0
0.000548668 1.54322e-05 0
0.000548668 1.54322e-05 0
0.000525806 1.55655e-05 0
0.000525806 1.55655e-05 0
0.000501284 1.8171e-05 0
0.000501284 1.8171e-05 0
0.000473159 2.29529e-05 0
0.000473159 2.29529e-05 0
0.000440595 2.6598e-05 0
0.000440595 2.6598e-05 0
0.000405285 2.61513e-05 0
0.000405285 2.61513e-05 0
0.00037036 2.18896e-05 0
0.00037036 2.18896e-05 0
0.000338204 1.64667e-05 0
0.000338204 1.64667e-05 0
0.000309513 1.22892e-05 0
0.000309513 1.22892e-05 0
0.000283813 1.01721e-05 0
0.000283813 1.01721e-05 0
0.000260203 9.63131e-06 0
0.000260203 9.63131e-06 0
0.000237798 9.80729e-06 0
0.000237798 9.80729e-06 0
0.000215936 1.0096e-05 0
0.000215936 1.0096e-05 0
0.000194236 1.0227e-05 0
0.000194236 1.0227e-05 0
0.000172559 1.01318e-05 0
0.000172559 1.01318e-05 0
0.000150935 9.82951e-06 0
0.000150935 9.82951e-06 0
0.000129497 9.35001e-06 0
0.000129497 9.35001e-06 0
0.000108437 8.70899e-06 0
0.000108437 8.70899e-06 0
8.79806e-05 7.91059e-06 0
8.79806e-05 7.91059e-06 0
6.83628e-05 6.95529e-06 0
6.83628e-05 6.95529e-06 0
4.98235e-05 5.84715e-06 0
4.98235e-05 5.84715e-06 0
3.25961e-05 4.60068e-06 0
3.25961e-05 4.60068e-06 0
1.6896e-05 3.25138e-06 0
1.6896e-05 3.25138e-06 0
2.91072e-06 1.84277e-06 0
2.91072e-06 1.84277e-06 0
-9.20778e-06 4.11426e-07 0
-9.20778e-06 4.11426e-07 0
-1.9347e-05 -1.00607e-06 0
-1.9347e-05 -1.00607e-06 0
-2.74351e-05 -2.37729e-06 0
-2.74351e-05 -2.37729e-06 0
-3.34463e-05 -3.6768e-06 0
-3.34463e-05 -3.6768e-06 0
-3.73982e-05 -4.88437e-06 0
-3.73982e-05 -4.88437e-06 0
-3.93484e-05 -5.98934e-06 0
-3.93484e-05 -5.98934e-06 0
-3.93704e-05 -6.97996e-06 0
-3.93704e-05 -6.97996e-06 0
-3.7565e-05 -7.83365e-06 0
-3.7565e-05 -7.83365e-06 0
-3.40994e-05 -8.52875e-06 0
-3.40994e-05 -8.52875e-06 0
-2.918e-05 -9.06015e-06 0
-2.918e-05 -9.06015e-06 0
-2.30478e-05 -9.45417e-06 0
-2.30478e-05 -9.45417e-06 0
-1.59329e-05 -9.76391e-06 0
-1.59329e-05 -9.76391e-06 0
-8.12552e-06 -9.90318e-06 0
-8.12552e-06 -9.90318e-06 0
-4.09771e-06 -9.90107e-06 0
-4.09771e-06 -9.90107e-06 0
1.07465e-06 -8.12345e-06 0
1.07465e-06 -8.12345e-06 0
9.54131e-06 4.60098e-06 0
9.54131e-06 4.60098e-06 0
1.42479e-05 3.04143e-05 0
1.42479e-05 3.04143e-05 0
1.59279e-05 6.16198e-05 0
1.59279e-05 6.16198e-05 0
1.58444e-05 9.38826e-05 0
1.58444e-05 9.38826e-05 0
1.49061e-05 0.00012473 0
1.49061e-05 0.00012473 0
1.3713e-05 0.000153321 0
1.3713e-05 0.000153321 0
1.25912e-05 0.000179525 0
1.25912e-05 0.000179525 0
1.16894e-05 0.000203725 0
1.16894e-05 0.000203725 0
1.10502e-05 0.000226439 0
1.10502e-05 0.000226439 0
1.06599e-05 0.000248162 0
1.06599e-05 0.000248162 0
1.04779e-05 0.000269335 0
1.04779e-05 0.000269335 0
1.04563e-05 0.00029033 0
1.04563e-05 0.00029033 0
1.05505e-05 0.000311423 0
1.05505e-05 0.000311423 0
1.07237e-05 0.000332797 0
1.07237e-05 0.000332797 0
1.0948e-05 0.000354576 0
1.0948e-05 0.000354576 0
1.12041e-05 0.000376836 0
1.12041e-05 0.000376836 0
1.14796e-05 0.000399627 0
1.14796e-05 0.000399627 0
1.17678e-05 0.000422977 0
1.17678e-05 0.000422977 0
1.20657e-05 0.000446909 0
1.20657e-05 0.000446909 0
1.23731e-05 0.00047144 0
1.23731e-05 0.00047144 0
1.26918e-05 0.000496591 0
1.26918e-05 0.000496591 0
1.30246e-05 0.000522387 0
1.30246e-05 0.000522387 0
1.33759e-05 0.000548862 0
1.33759e-05 0.000548862 0
1.37488e-05 0.000576055 0
1.37488e-05 0.000576055 0
1.415e-05 0.000604018 0
1.415e-05 0.000604018 0
1.4582e-05 0.000632806 0
1.4582e-05 0.000632806 0
1.50552e-05 0.000662498 0
1.50552e-05 0.000662498 0
1.55685e-05 0.000693164 0
1.55685e-05 0.000693164 0
1.61422e-05 0.000724921 0
1.61422e-05 0.000724921 0
1.67642e-05 0.000757852 0
1.67642e-05 0.000757852 0
1.7478e-05 0.000792135 0
1.7478e-05 0.000792135 0
1.8243e-05 0.00082785 0
1.8243e-05 0.00082785 0
1.91664e-05 0.000865297 0
1.91664e-05 0.000865297 0
2.01036e-05 0.00090451 0
2.01036e-05 0.00090451 0
2.13673e-05 0.000946021 0
2.13673e-05 0.000946021 0
2.25142e-05 0.00098974 0
2.25142e-05 0.00098974 0
2.43384e-05 0.00103665 0
2.43384e-05 0.00103665 0
2.57253e-05 0.00108633 0
2.57253e-05 0.00108633 0
2.85967e-05 0.00114073 0
2.85967e-05 0.00114073 0
3.01607e-05 0.00119866 0
3.01607e-05 0.00119866 0
3.5145e-05 0.001264 0
3.5145e-05 0.001264 0
3.67008e-05 0.00133408 0
3.67008e-05 0.00133408 0
4.6442e-05 0.00141687 0
4.6442e-05 0.00141687 0
4.77606e-05 0.00150748 0
4.77606e-05 0.00150748 0
7.02234e-05 0.00162172 0
7.02234e-05 0.00162172 0
7.38632e-05 0.00175596 0
7.38632e-05 0.00175596 0
0.000138108 0.00193885 0
0.000138108 0.00193885 0
0.000168586 0.00218542 0
0.000168586 0.00218542 0
0.000208392 0.00138928 0
0.000208392 0.00138928 0
-0.000247518 1.86177e-05 0
-0.000247518 1.86177e-05 0
-0.000177514 -0.000437876 0
-0.000177514 -0.000437876 0
7.26812e-05 -0.000116059 0
7.26812e-05 -0.000116059 0
-0.000470772 0.000291848 0
-0.000470772 0.000291848 0
-0.0010477 0.000377965 0
-0.0010477 0.000377965 0
-0.00169664 0.00034578 0
-0.00169664 0.00034578 0
-0.00216225 0.000264921 0
-0.00216225 0.000264921 0
-0.00251627 0.000184263 0
-0.00251627 0.000184263 0
-0.00273335 0.000113445 0
-0.00273335 0.000113445 0
-0.00285801 5.4501e-05 0
-0.00285801 5.4501e-05 0
-0.00288608 4.49226e-06 0
-0.00288608 4.49226e-06 0
-0.00283846 -3.96145e-05 0
-0.00283846 -3.96145e-05 0
-0.00271581 -8.03039e-05 0
-0.00271581 -8.03039e-05 0
-0.00252234 -0.000119245 0
-0.00252234 -0.000119245 0
-0.00225567 -0.000156051 0
-0.00225567 -0.000156051 0
-0.00192072 -0.000187039 0
-0.00192072 -0.000187039 0
-0.00152766 -0.000206257 0
-0.00152766 -0.000206257 0
-0.00109965 -0.000203946 0
-0.00109965 -0.000203946 0
-0.000670305 -0.00017312 0
-0.000670305 -0.00017312 0
-0.000288716 -0.000143118 0
-0.000288716 -0.000143118 0
2.1649e-05 -0.000149443 0
2.1649e-05 -0.000149443 0
0.000269453 -0.000117683 0
0.000269453 -0.000117683 0
0.000453697 -6.23863e-05 0
0.000453697 -6.23863e-05 0
0.000602201 -0.000119948 0
0.000602201 -0.000119948 0
0.000380489 -0.000164982 0
0.000380489 -0.000164982 0
-6.9473e-06 4.69773e-06 0
-6.9473e-06 4.69773e-06 0
-8.50564e-06 1.35721e-05 0
-8.50564e-06 1.35721e-05 0
-1.00117e-05 3.29545e-05 0
-1.00117e-05 3.29545e-05 0
-9.6829e-06 5.25289e-05 0
-9.6829e-06 5.25289e-05 0
-9.20753e-06 7.05858e-05 0
-9.20753e-06 7.05858e-05 0
-8.87727e-06 8.81598e-05 0
-8.87727e-06 8.81598e-05 0
-8.64092e-06 0.000105121 0
-8.64092e-06 0.000105121 0
-8.43059e-06 0.000121689 0
-8.43059e-06 0.000121689 0
-8.20674e-06 0.000137854 0
-8.20674e-06 0.000137854 0
-7.95195e-06 0.000153553 0
-7.95195e-06 0.000153553 0
-7.65995e-06 0.000168716 0
-7.65995e-06 0.000168716 0
-7.32877e-06 0.000183268 0
-7.32877e-06 0.000183268 0
-6.95802e-06 0.000197128 0
-6.95802e-06 0.000197128 0
-6.54748e-06 0.000210219 0
-6.54748e-06 0.000210219 0
-6.09704e-06 0.00022246 0
-6.09704e-06 0.00022246 0
-5.60715e-06 0.000233772 0
-5.60715e-06 0.000233772 0
-5.07928e-06 0.000244079 0
-5.07928e-06 0.000244079 0
-4.51567e-06 0.000253307 0
-4.51567e-06 0.000253307 0
-3.91945e-06 0.000261383 0
-3.91945e-06 0.000261383 0
-3.29434e-06 0.000268243 0
-3.29434e-06 0.000268243 0
-2.64375e-06 0.000273826 0
-2.64375e-06 0.000273826 0
-1.97244e-06 0.000278088 0
-1.97244e-06 0.000278088 0
-1.28065e-06 0.000280974 0
-1.28065e-06 0.000280974 0
-5.67063e-07 0.000282479 0
-5.67063e-07 0.000282479 0
1.67107e-07 0.000282533 0
1.67107e-07 0.000282533 0
9.2041e-07 0.000281181 0
9.2041e-07 0.000281181 0
1.68136e-06 0.000278289 0
1.68136e-06 0.000278289 0
2.41976e-06 0.000274076 0
2.41976e-06 0.000274076 0
3.159e-06 0.000268298 0
3.159e-06 0.000268298 0
3.88785e-06 0.000261414 0
3.88785e-06 0.000261414 0
4.61864e-06 0.000252899 0
4.61864e-06 0.000252899 0
5.3028e-06 0.000243579 0
5.3028e-06 0.000243579 0
5.99071e-06 0.000232645 0
5.99071e-06 0.000232645 0
6.5817e-06 0.000221158 0
6.5817e-06 0.000221158 0
7.22606e-06 0.000208221 0
7.22606e-06 0.000208221 0
7.67985e-06 0.000194809 0
7.67985e-06 0.000194809 0
8.02698e-06 0.000180321 0
8.02698e-06 0.000180321 0
8.77044e-06 0.000165791 0
8.77044e-06 0.000165791 0
8.04469e-06 0.000148996 0
8.04469e-06 0.000148996 0
9.58179e-06 0.000135173 0
9.58179e-06 0.000135173 0
1.02921e-05 0.000116594 0
1.02921e-05 0.000116594 0
7.36372e-06 9.57806e-05 0
7.36372e-06 9.57806e-05 0
9.84173e-06 8.88569e-05 0
9.84173e-06 8.88569e-05 0
1.6855e-05 5.62979e-05 0
1.6855e-05 5.62979e-05 0
9.49609e-06 4.25693e-05 0
9.49609e-06 4.25693e-05 0
4.18834e-06 1.88208e-05 0
4.18834e-06 1.88208e-05 0
1.54951e-05 -8.34096e-07 0
1.54951e-05 -8.34096e-07 0
4.60834e-06 -3.09346e-05 0
4.60834e-06 -3.09346e-05 0
-3.26013e-06 -1.87673e-05 0
-3.26013e-06 -1.87673e-05 0
4.52884e-05 -4.92744e-05 0
4.52884e-05 -4.92744e-05 0
-1.34897e-05 4.7361e-06 0
-1.34897e-05 4.7361e-06 0
-2.70204e-05 4.95573e-06 0
-2.70204e-05 4.95573e-06 0
-4.11434e-05 5.35509e-06 0
-4.11434e-05 5.35509e-06 0
-5.576e-05 5.84453e-06 0
-5.576e-05 5.84453e-06 0
-7.11195e-05 6.4266e-06 0
-7.11195e-05 6.4266e-06 0
-8.72735e-05 7.06566e-06 0
-8.72735e-05 7.06566e-06 0
-0.000104275 7.72688e-06 0
-0.000104275 7.72688e-06 0
-0.000122139 8.38321e-06 0
-0.000122139 8.38321e-06 0
-0.000140843 9.01386e-06 0
-0.000140843 9.01386e-06 0
-0.000160361 9.61022e-06 0
-0.000160361 9.61022e-06 0
-0.000180653 1.01725e-05 0
-0.000180653 1.01725e-05 0
-0.000201691 1.07059e-05 0
-0.000201691 1.07059e-05 0
-0.000223443 1.12142e-05 0
-0.000223443 1.12142e-05 0
-0.000245879 1.16963e-05 0
-0.000245879 1.16963e-05 0
-0.000268954 1.21449e-05 0
-0.000268954 1.21449e-05 0
-0.000292612 1.25474e-05 0
-0.000292612 1.25474e-05 0
-0.000316776 1.28884e-05 0
-0.000316776 1.28884e-05 0
-0.000341349 1.31549e-05 0
-0.000341349 1.31549e-05 0
-0.000366201 1.33379e-05 0
-0.000366201 1.33379e-05 0
-0.000391168 1.34239e-05 0
-0.000391168 1.34239e-05 0
-0.000416057 1.33929e-05 0
-0.000416057 1.33929e-05 0
-0.000440647 1.32249e-05 0
-0.000440647 1.32249e-05 0
-0.00046469 1.29015e-05 0
-0.00046469 1.29015e-05 0
-0.000487908 1.24063e-05 0
-0.000487908 1.24063e-05 0
-0.000509995 1.17258e-05 0
-0.000509995 1.17258e-05 0
-0.000530626 1.08508e-05 0
-0.000530626 1.08508e-05 0
-0.000549459 9.77678e-06 0
-0.000549459 9.77678e-06 0
-0.000566144 8.50526e-06 0
-0.000566144 8.50526e-06 0
-0.000580333 7.04403e-06 0
-0.000580333 7.04403e-06 0
-0.000591697 5.41178e-06 0
-0.000591697 5.41178e-06 0
-0.000599942 3.64353e-06 0
-0.000599942 3.64353e-06 0
-0.000604826 1.78287e-06 0
-0.000604826 1.78287e-06 0
-0.000606131 -1.0635e-07 0
-0.000606131 -1.0635e-07 0
-0.000603827 -1.95893e-06 0
-0.000603827 -1.95893e-06 0
-0.000597944 -3.77177e-06 0
-0.000597944 -3.77177e-06 0
-0.000588451 -5.55473e-06 0
-0.000588451 -5.55473e-06 0
-0.000575422 -7.288e-06 0
-0.000575422 -7.288e-06 0
-0.000558976 -8.94807e-06 0
-0.000558976 -8.94807e-06 0
-0.000539292 -1.05085e-05 0
-0.000539292 -1.05085e-05 0
-0.000516596 -1.19462e-05 0
-0.000516596 -1.19462e-05 0
-0.000491157 -1.32427e-05 0
-0.000491157 -1.32427e-05 0
-0.000463277 -1.43849e-05 0
-0.000463277 -1.43849e-05 0
-0.000433275 -1.53648e-05 0
-0.000433275 -1.53648e-05 0
-0.000401483 -1.61797e-05 0
-0.000401483 -1.61797e-05 0
-0.000368233 -1.6831e-05 0
-0.000368233 -1.6831e-05 0
-0.000333847 -1.73243e-05 0
-0.000333847 -1.73243e-05 0
-0.000298636 -1.76679e-05 0
-0.000298636 -1.76679e-05 0
-0.000262891 -1.78733e-05 0
-0.000262891 -1.78733e-05 0
-0.000226882 -1.7953e-05 0
-0.000226882 -1.7953e-05 0
-0.000190842 -1.79189e-05 0
-0.000190842 -1.79189e-05 0
-0.00015497 -1.77869e-05 0
-0.00015497 -1.77869e-05 0
-0.000119441 -1.75701e-05 0
-0.000119441 -1.75701e-05 0
-8.44139e-05 -1.72814e-05 0
-8.44139e-05 -1.72814e-05 0
-5.00106e-05 -1.69349e-05 0
-5.00106e-05 -1.69349e-05 0
-1.63643e-05 -1.6542e-05 0
-1.63643e-05 -1.6542e-05 0
1.64157e-05 -1.6115e-05 0
1.64157e-05 -1.6115e-05 0
4.83046e-05 -1.56629e-05 0
4.83046e-05 -1.56629e-05 0
7.92785e-05 -1.51941e-05 0
7.92785e-05 -1.51941e-05 0
0.000109302 -1.4716e-05 0
0.000109302 -1.4716e-05 0
0.000138364 -1.42348e-05 0
0.000138364 -1.42348e-05 0
0.000166465 -1.37556e-05 0
0.000166465 -1.37556e-05 0
0.000193612 -1.32826e-05 0
0.000193612 -1.32826e-05 0
0.000219821 -1.2819e-05 0
0.000219821 -1.2819e-05 0
0.000245114 -1.23674e-05 0
0.000245114 -1.23674e-05 0
0.000269518 -1.19295e-05 0
0.000269518 -1.19295e-05 0
0.00029306 -1.15067e-05 0
0.00029306 -1.15067e-05 0
0.000315772 -1.10996e-05 0
0.000315772 -1.10996e-05 0
0.000337686 -1.07087e-05 0
0.000337686 -1.07087e-05 0
0.000358834 -1.03342e-05 0
0.000358834 -1.03342e-05 0
0.00037925 -9.97599e-06 0
0.00037925 -9.97599e-06 0
0.000398965 -9.63381e-06 0
0.000398965 -9.63381e-06 0
0.00041801 -9.30736e-06 0
0.00041801 -9.30736e-06 0
0.000436419 -8.99626e-06 0
0.000436419 -8.99626e-06 0
0.000454219 -8.70006e-06 0
0.000454219 -8.70006e-06 0
0.000471441 -8.41828e-06 0
0.000471441 -8.41828e-06 0
0.000488113 -8.15043e-06 0
0.000488113 -8.15043e-06 0
0.000504263 -7.89602e-06 0
0.000504263 -7.89602e-06 0
0.000519916 -7.65458e-06 0
0.000519916 -7.65458e-06 0
0.000535098 -7.42567e-06 0
0.000535098 -7.42567e-06 0
0.000549834 -7.20887e-06 0
0.000549834 -7.20887e-06 0
0.000564149 -7.00379e-06 0
0.000564149 -7.00379e-06 0
0.000578062 -6.81006e-06 0
0.000578062 -6.81006e-06 0
0.000591601 -6.62727e-06 0
0.000591601 -6.62727e-06 0
0.00060478 -6.45506e-06 0
0.00060478 -6.45506e-06 0
0.000617631 -6.29304e-06 0
0.000617631 -6.29304e-06 0
0.000630157 -6.14093e-06 0
0.000630157 -6.14093e-06 0
0.000642403 -5.99832e-06 0
0.000642403 -5.99832e-06 0
0.000654348 -5.86512e-06 0
0.000654348 -5.86512e-06 0
0.000666073 -5.74079e-06 0
0.000666073 -5.74079e-06 0
0.000677498 -5.62551e-06 0
0.000677498 -5.62551e-06 0
0.000688791 -5.51851e-06 0
0.000688791 -5.51851e-06 0
0.00069974 -5.42046e-06 0
0.00069974 -5.42046e-06 0
0.000710707 -5.32998e-06 0
0.000710707 -5.32998e-06 0
0.000721187 -5.24877e-06 0
0.000721187 -5.24877e-06 0
0.000731984 -5.17404e-06 0
0.000731984 -5.17404e-06 0
0.000741926 -5.10961e-06 0
0.000741926 -5.10961e-06 0
0.000752808 -5.04969e-06 0
0.000752808 -5.04969e-06 0
0.000761979 -5.00257e-06 0
0.000761979 -5.00257e-06 0
0.978862 -0.00615841 0
0.978862 -0.00615841 0
1.95696 -0.0123118 0
1.95696 -0.0123118 0
