# Probe 0 (0.0254 0.0253 0)
# Probe 1 (0.0508 0.0253 0)
# Probe 2 (0.0762 0.0253 0)
# Probe 3 (0.1016 0.0253 0)
# Probe 4 (0.127 0.0253 0)
# Probe 5 (0.1524 0.0253 0)
# Probe 6 (0.1778 0.0253 0)
#       Probe             0             1             2             3             4             5             6
#        Time
      0.10001      -10921.3      -10571.6      -10281.7      -9827.28      -9643.54      -9480.41      -9333.71
      0.10002       11320.2       11136.6       10961.9       10659.7       10528.3       10407.2       10295.1
      0.10003      -6351.46      -6253.41      -6143.85      -5933.63      -5837.47      -5746.84      -5661.68
      0.10004      -7897.48      -7959.45      -8029.69      -8169.08       -8234.3      -8295.72      -8352.96
      0.10005       4463.57       4478.89        4498.8       4546.36       4571.18       4595.86       4619.78
      0.10006       4384.85       4264.03       4156.24       3981.57        3909.8       3845.45       3786.99
      0.10007      -1028.85      -1034.73      -1036.96       -1046.8      -1053.51      -1060.53      -1067.42
      0.10008      -1861.75      -1731.54      -1643.44      -1526.45      -1482.25      -1443.04      -1407.04
      0.10009       7012.13       6958.36       6917.36       6847.69       6813.64       6781.24       6749.26
       0.1001      -3948.53      -3973.44      -3976.11      -3963.16      -3956.36      -3951.06      -3947.35
      0.10011       2800.19       2798.04       2794.48        2771.6       2755.44       2737.41       2718.46
      0.10012       121.422       129.562       162.943       248.372       291.875       333.899       374.241
      0.10013      -13623.3      -13566.2      -13498.4      -13363.1      -13299.5      -13239.8      -13183.7
      0.10014        8101.1       8061.25        8016.5       7923.36       7880.31       7840.44       7804.16
      0.10015       5481.53        5501.6       5521.54        5558.8       5574.23       5586.73       5596.43
      0.10016        1.6163      -12.6102      -8.22503       15.6117       29.8292        44.048       57.8832
      0.10017      -353.865      -339.123      -332.309      -327.495      -329.367       -333.94       -340.82
      0.10018      -7758.29      -7656.48      -7585.08      -7483.19       -7442.3      -7404.79      -7369.24
      0.10019      -10197.4      -10123.5      -10056.9      -9920.01      -9850.91      -9781.87      -9713.11
       0.1002       2640.55       2744.46       2833.16       2984.28       3047.22       3103.15       3152.99
      0.10021       2360.81       2274.56        2195.7       2044.67       1972.65        1903.5       1837.69
      0.10022      -7673.49      -7689.33      -7664.85      -7566.94      -7510.02      -7452.24      -7395.15
      0.10023       12874.3       12638.3       12427.1       12072.1       11917.3         11773       11637.1
      0.10024      -5542.42      -5447.96      -5346.03      -5125.85      -5008.64      -4890.31      -4771.68
      0.10025        2045.8       2133.83       2190.32       2252.71       2268.46       2276.39       2277.84
      0.10026      -2937.68      -2953.92      -2990.02      -3068.92      -3105.91      -3140.31      -3171.96
      0.10027       9248.12       9190.69       9150.79       9084.86        9055.2       9026.37       8997.94
      0.10028       -7683.7      -7510.95      -7367.17      -7129.33       -7027.7      -6934.71      -6848.75
      0.10029       6077.41       5861.61       5671.82       5358.76       5229.39       5113.69        5009.1
       0.1003      -9391.45       -9168.1       -8975.8      -8675.13      -8557.45      -8455.68      -8367.15
      0.10031       997.972       990.817       972.409       917.864       887.121       855.759        824.66
      0.10032        222.47       302.936       359.849       454.682       500.158       545.594       591.075
      0.10033      -897.796      -1200.18      -1443.39      -1821.43      -1973.77      -2108.32      -2228.31
      0.10034      -6985.24      -6827.21      -6672.21      -6376.73      -6238.55      -6107.36      -5983.22
      0.10035       738.167       601.969       459.162       215.258        113.87       24.0478      -56.1256
      0.10036       192.173       290.648       370.801       497.376       550.363        597.89       640.834
      0.10037      -3321.23      -3308.35       -3298.4      -3277.16      -3265.19      -3253.46      -3242.55
      0.10038      -3371.92      -3294.01      -3258.07      -3234.42      -3231.67      -3230.65      -3229.89
      0.10039       8113.31       7995.77       7895.27       7705.38       7612.42       7520.16       7428.41
       0.1004       4792.36       4892.56          4971        5080.8       5120.24       5152.56       5179.17
      0.10041      -1335.99       -1472.7      -1585.56      -1758.45      -1824.53      -1880.32      -1927.81
      0.10042       42.8848       -11.333       -35.495      -40.9634      -34.1381        -24.67      -14.1143
      0.10043      -3324.95      -3177.39      -3054.46      -2869.67      -2798.57      -2736.69       -2681.6
      0.10044       5615.12       5467.72       5357.08       5196.97       5136.61       5084.45       5038.06
      0.10045       9627.19       9422.32       9242.85       8932.29       8794.96       8667.24       8547.91
      0.10046       -3086.3       -3155.2       -3218.6       -3328.6      -3374.56      -3414.67      -3449.29
      0.10047         10528       10581.5         10609       10621.6       10614.5       10601.2       10583.5
      0.10048      -2954.23      -3006.62      -3024.32      -3016.52      -3002.59      -2985.73      -2967.19
      0.10049      -1725.78      -1798.25      -1853.16       -1933.7       -1962.1      -1983.59      -1999.01
       0.1005      -10779.6      -10549.5      -10340.6      -9968.12      -9799.16      -9639.73      -9488.86
      0.10051       5305.21       5342.86       5361.58       5350.42       5330.32       5305.39       5277.83
      0.10052       9159.56       9027.83        8913.8       8713.41       8623.25       8538.54       8458.64
      0.10053      -4724.73      -4787.06      -4801.02      -4764.04      -4730.56      -4692.78      -4652.86
      0.10054       -8058.8      -7802.17      -7597.81      -7287.98      -7167.87      -7064.09      -6972.93
      0.10055      -1912.32      -2027.62      -2093.43      -2132.97      -2126.61      -2109.67      -2085.39
      0.10056      -4204.98      -4273.42      -4351.33      -4501.78      -4569.73      -4631.47      -4686.87
      0.10057       2782.31        2960.2       3110.63       3356.85       3456.47       3543.08       3618.46
      0.10058       6598.86       6524.15       6444.94       6302.99       6238.72       6177.76       6119.59
      0.10059       -5591.6      -5549.46      -5523.82      -5492.94      -5480.88      -5469.33      -5457.87
       0.1006         -3977         -3972      -3940.81      -3855.83      -3812.57       -3771.2      -3732.16
      0.10061       -3883.5      -3832.78      -3804.26      -3769.76      -3754.38      -3737.89       -3719.7
      0.10062       2070.06       2023.02       2005.78        1998.1       1997.04       1995.08        1991.4
      0.10063      -4779.57      -4755.51      -4718.32      -4638.41      -4599.52      -4562.23       -4526.7
      0.10064       8733.71       8672.77       8610.87       8469.45       8392.97       8314.48       8234.82
      0.10065       5423.75       5393.38       5390.29       5424.72       5450.68       5478.92       5507.82
      0.10066      -6209.07       -6284.6      -6362.01      -6483.54      -6526.03      -6558.56      -6582.93
      0.10067       14674.4       14670.6       14668.7         14641       14613.8       14578.7       14536.5
      0.10068      -10277.4      -10211.9      -10147.8      -10021.3      -9955.89      -9888.48      -9819.33
      0.10069       7498.18       7416.07       7328.31       7156.43        7072.1       6988.54       6905.62
       0.1007       3159.07       3162.29       3174.49       3193.72        3198.9       3201.56       3202.05
      0.10071      -5739.45      -5879.86      -6002.89      -6207.88      -6294.24      -6371.99      -6442.31
      0.10072       -3267.9      -3176.46      -3100.45      -2961.54      -2896.66      -2834.62       -2775.4
      0.10073       11791.5       11638.4       11511.3       11306.7       11220.7       11142.1       11069.1
      0.10074      -6080.55      -5863.88      -5698.13      -5458.98      -5369.44      -5293.05      -5226.64
      0.10075       4038.47        4001.5       3972.46       3938.73       3929.09       3921.87       3915.95
      0.10076      -12784.9      -12663.6      -12577.4      -12451.8      -12401.2      -12355.2      -12312.7
      0.10077       1661.44       1595.78       1534.38       1440.88       1407.37       1381.05       1360.76
      0.10078      -2203.57      -2127.34      -2068.78      -1978.92      -1941.98       -1908.5      -1877.87
      0.10079       5721.72       5709.58       5702.64       5691.47        5685.7       5679.66       5673.27
       0.1008       3477.22       3402.97       3315.19       3135.89       3050.69        2969.8       2893.31
      0.10081       62.9503       5.83675      -32.0015      -83.3634      -103.641      -122.279      -139.989
      0.10082       1987.51       1853.89       1743.36       1564.65       1491.23       1426.16       1368.06
      0.10083      -3634.15      -3670.81      -3692.38      -3715.46      -3722.16      -3726.97      -3730.38
      0.10084      -6661.84      -6548.85       -6447.7      -6259.39      -6170.17      -6083.57      -5999.57
      0.10085       759.744       922.356        1052.7        1250.9       1329.32       1398.41       1460.13
      0.10086      -1375.99      -1237.22      -1126.73      -953.581      -882.664      -819.121      -761.587
      0.10087        -803.9      -727.257      -671.298      -594.694      -567.218      -544.255      -524.546
      0.10088       734.137        856.29       944.103       1067.57       1113.28       1151.65       1184.44
      0.10089      -10758.2      -10619.6        -10492      -10275.5      -10176.3      -10080.4      -9987.49
       0.1009       15448.7       15156.1       14898.7       14453.4       14257.9       14076.3       13906.4
      0.10091      -3031.91      -3013.77      -2984.98      -2927.47      -2899.78      -2872.58      -2845.85
      0.10092      -9997.64      -9941.72      -9875.63      -9730.62      -9656.94       -9584.1      -9512.49
      0.10093       3756.01       3675.88       3603.95       3494.42       3452.36       3416.37       3385.55
      0.10094      -3916.88      -3815.67      -3730.83      -3600.27      -3550.35      -3508.16      -3472.15
      0.10095      -23.4594      -81.1695      -140.119      -232.137      -264.166       -288.08      -304.987
      0.10096       3222.99       3317.57       3401.62       3522.09       3562.68       3593.41       3616.14
      0.10097       512.039        495.36       483.503       463.421       453.742        444.39        435.35
      0.10098      -1574.51      -1589.57      -1602.76      -1618.12      -1624.07      -1629.28      -1633.98
      0.10099       10825.6       10618.2       10446.6       10168.7       10052.7       9947.67        9851.4
        0.101      -10317.6        -10175      -10047.8      -9814.08      -9705.23      -9601.14      -9501.54
      0.10101       7073.71       6969.68       6862.65       6644.69       6536.83       6430.97       6327.49
      0.10102         -5514      -5552.41       -5556.7      -5509.57      -5470.42      -5425.41      -5376.52
      0.10103      -1620.33      -1680.18       -1738.1      -1870.25      -1941.36       -2013.4      -2085.36
      0.10104      -5081.94      -4919.14      -4759.79      -4464.51       -4327.7      -4197.13      -4072.43
      0.10105       5140.79        4957.2       4791.73       4506.11       4382.21       4268.64       4164.01
      0.10106       11316.3       11350.7       11372.5       11379.1       11370.6       11357.2       11340.3
      0.10107      -841.852      -770.585      -713.044      -630.181      -598.961      -571.895      -547.752
      0.10108      -32.9232      -88.8945      -119.872      -154.114      -166.481      -178.196      -190.089
      0.10109       -3158.2      -3220.05      -3276.56      -3369.07      -3406.31      -3438.08      -3464.84
       0.1011       9308.83       9305.65       9286.03       9242.43       9221.64       9201.77       9182.64
      0.10111       6750.18       6824.74       6870.19       6907.21       6908.29       6902.03       6890.49
      0.10112       6106.73       6120.15       6139.41       6174.55       6185.27       6191.11       6192.57
      0.10113      -5086.92      -4963.78      -4867.73      -4709.49      -4640.46      -4575.89      -4514.79
      0.10114       -5379.8      -5262.96       -5159.7      -4977.99      -4894.28      -4814.66      -4738.69
      0.10115       4037.94       3905.45       3798.81       3629.59       3558.41       3492.42       3430.53
      0.10116       -486.19      -436.479      -396.588      -344.816      -329.822      -319.972      -314.002
      0.10117       -9817.2      -9803.06      -9754.07      -9609.65      -9527.62      -9443.42       -9358.9
      0.10118       12084.9       12026.9       11958.5       11801.3       11716.6       11629.9       11542.1
      0.10119      -1588.04      -1565.47      -1528.62      -1440.26      -1391.75      -1341.25      -1289.38
       0.1012      -3335.11      -3538.08      -3694.59       -3919.4      -4002.56         -4072      -4130.52
      0.10121      -5074.91       -5015.5       -4945.5      -4794.76      -4719.46      -4645.69      -4573.77
      0.10122      -605.486      -573.269      -545.167      -495.568      -472.842      -451.149      -430.367
      0.10123      -9791.84      -9670.32      -9578.46      -9443.81      -9392.49      -9348.38      -9309.75
      0.10124       3256.36       3386.11       3482.96       3619.71       3669.09       3709.38       3742.44
      0.10125      -6764.67      -6608.49      -6475.02      -6249.82      -6150.67      -6057.57       -5969.3
      0.10126       9067.58       8942.79       8817.34       8598.91       8501.91       8410.58       8323.64
      0.10127      -9766.89      -9809.63      -9828.79      -9825.61      -9808.66      -9783.95      -9752.88
      0.10128       7379.38          7413       7418.28       7385.52       7357.51        7324.8       7288.78
      0.10129      -4940.28      -4980.82      -5019.78      -5088.33       -5119.9      -5150.35      -5179.88
       0.1013       6692.83        6782.3       6852.93       6976.15       7033.05       7087.52       7139.58
      0.10131      -5592.06      -5612.84      -5637.75      -5676.15      -5689.58      -5699.88      -5707.44
      0.10132      -921.069      -787.528        -678.9       -513.69      -448.034      -390.403      -339.163
      0.10133       13105.8         13000       12894.4       12685.1       12582.1       12480.1       12379.3
      0.10134       2049.49       1929.54       1838.24       1701.93       1647.47       1598.92       1554.93
      0.10135      -7342.05      -7211.07      -7093.23      -6878.26      -6778.63      -6683.26      -6591.79
      0.10136      -6325.27      -6282.05      -6250.65      -6190.93      -6158.86      -6125.95       -6092.7
      0.10137       11485.4       11339.6       11184.3         10885       10745.5       10612.6         10486
      0.10138       1138.94       1151.59       1144.36        1109.4       1087.07       1063.97       1040.87
      0.10139      -4062.63      -4031.83       -4000.7      -3957.04      -3941.69      -3929.28      -3919.18
       0.1014      -5100.83      -5171.62      -5223.83      -5318.91      -5359.46      -5395.48      -5427.14
      0.10141        276.22       280.618       296.212       347.303       380.021       416.491       455.953
      0.10142       6347.18       6383.63       6397.55       6385.06       6364.22       6337.22       6305.61
      0.10143      -5017.84      -4972.28      -4928.11      -4833.89       -4785.5      -4738.06      -4692.11
      0.10144       2803.73       2703.26       2626.72       2508.57       2461.57       2420.51       2384.54
      0.10145       3077.15       2999.44       2927.21       2801.34       2744.22       2691.02       2640.85
      0.10146      -2741.31      -2514.29      -2315.24      -1986.39      -1852.32      -1733.16      -1626.24
      0.10147          9238       8984.25       8777.42       8445.16       8306.58       8179.82       8062.78
      0.10148      -3294.59      -3193.63      -3123.42      -3039.62       -3015.7      -2999.34      -2988.39
      0.10149       10499.9       10304.1       10136.9       9864.01       9747.51        9641.1       9543.13
       0.1015      -2317.46      -2254.41         -2217      -2179.83      -2171.61      -2167.31      -2165.47
      0.10151       2322.18       2206.14       2121.02       2002.06       1957.98       1920.67       1888.54
      0.10152       1546.63       1391.17       1270.88       1097.18       1034.17       982.757       940.808
      0.10153         -1929      -1745.83      -1584.05      -1321.36      -1213.16      -1117.84      -1033.14
      0.10154        -10314      -10351.6      -10366.9      -10369.2      -10360.9      -10347.7      -10330.4
      0.10155      -2652.03      -2724.36      -2763.61       -2817.5      -2839.65      -2859.79      -2878.27
      0.10156       533.083       635.751       737.819       902.826       969.195       1027.85       1080.24
      0.10157       194.828       291.187       380.999       531.423       592.544       646.148       693.489
      0.10158       920.762       888.267       858.298       811.004       789.723       769.823       751.247
      0.10159      -3291.25      -3392.97      -3471.65      -3585.73      -3630.63      -3669.57      -3703.37
       0.1016       11281.1       11251.2       11211.2         11152       11124.8       11097.1       11068.4
      0.10161      -6534.13      -6509.35      -6488.53      -6450.62       -6433.9      -6419.03      -6405.88
      0.10162       5578.46       5500.25        5423.6       5276.24       5206.59       5139.35       5074.62
      0.10163       2562.35       2470.63       2381.57          2216       2139.47       2066.18       1995.85
      0.10164      -3551.15      -3528.88      -3493.22       -3392.3      -3332.12      -3268.59      -3203.07
      0.10165      -1987.24      -1893.85      -1809.21      -1663.27      -1599.21      -1540.19      -1485.67
      0.10166        3798.2       3813.12       3806.17       3764.73       3739.02       3712.75       3686.89
      0.10167       1367.14       1368.91       1345.15        1277.8       1240.04       1200.66        1160.2
      0.10168       1389.99       1397.66       1423.38       1485.74       1520.66       1556.22        1591.4
      0.10169      -345.232      -283.192      -239.089      -182.274      -162.844      -148.227      -137.604
       0.1017       3141.49        3153.9       3184.53       3261.29       3300.56       3338.19       3373.46
      0.10171      -6149.34      -6093.24      -6065.25       -6038.3      -6029.51       -6020.7      -6011.09
      0.10172       2202.63       2117.88       2059.44       1984.55        1961.7       1944.96       1932.34
      0.10173      -2965.75      -2962.63      -2960.04      -2966.35      -2972.46      -2979.13      -2986.14
      0.10174       849.514       954.043       1027.65       1123.87        1155.2        1178.7       1195.82
      0.10175       576.779        644.08       705.022       804.884       847.436       885.521       919.351
      0.10176      -9396.45      -9434.97      -9453.61      -9451.34      -9437.43      -9417.83      -9394.12
      0.10177       2463.07       2270.31       2103.73       1820.23       1696.91       1583.74       1479.28
      0.10178      -4922.26      -4729.05      -4563.89      -4263.55      -4125.84         -3996      -3873.79
      0.10179       -3595.1      -3506.06      -3421.24      -3261.82      -3186.18      -3113.24      -3042.12
       0.1018      -2091.49      -2210.07       -2318.4      -2492.37      -2561.53      -2619.99      -2669.88
      0.10181       3558.21       3606.65       3668.05        3792.2       3850.96       3905.82       3955.96
      0.10182      -1876.08      -2045.25      -2183.98      -2413.52      -2508.52      -2593.73      -2670.57
      0.10183      -2820.74      -2748.23      -2664.04      -2499.79      -2424.24      -2352.29      -2283.93
      0.10184       3792.97       3622.91       3479.99       3241.13       3138.11       3043.75       2956.66
      0.10185       4721.75       4730.02        4734.1       4750.84       4763.58       4778.86       4795.24
      0.10186      -10768.8      -10897.3      -11000.1      -11150.3      -11205.1        -11249      -11283.7
      0.10187       5753.69       5859.89       5953.52       6106.11       6166.71       6218.14       6261.62
      0.10188      -3433.34      -3304.46      -3198.87      -3028.56      -2958.95      -2897.54      -2842.91
      0.10189       7784.16       7550.96       7358.32       7050.78       6923.01       6807.58       6702.09
       0.1019       1728.12       1813.05       1873.86       1958.46       1990.74       2019.11       2044.77
      0.10191      -2170.51      -2000.42       -1877.4      -1711.96      -1655.18      -1610.27      -1574.54
      0.10192       3131.98       3069.96       3007.75       2905.04       2863.14       2826.51       2793.96
      0.10193      -2851.22      -2961.62      -3065.56      -3240.84      -3311.75      -3372.65       -3424.8
      0.10194        294.42       268.033       240.474       189.965       166.006       143.379       121.797
      0.10195       5489.87       5482.94       5494.69       5529.73       5546.24       5560.26       5571.55
      0.10196      -2673.05      -2605.16       -2549.2      -2469.42      -2440.75      -2417.21      -2397.37
      0.10197       5237.16       5103.73       4986.02       4787.02       4701.13       4621.76       4547.68
      0.10198      -3315.92       -3363.4      -3377.82      -3365.15      -3348.49      -3328.25      -3305.57
      0.10199       2125.76        2090.5       2052.53       1982.89       1952.87       1925.91       1901.95
        0.102      -1017.56      -904.587       -834.01      -762.609      -746.624      -738.539      -735.879
      0.10201       5032.82       4950.49       4899.98       4845.01       4831.76       4824.66       4822.05
      0.10202       -1115.4      -1177.99      -1238.76      -1338.78      -1379.99      -1416.91       -1450.2
      0.10203       -473.37      -276.373      -122.335       101.586       186.799       259.968       323.902
      0.10204        2175.4       2133.54       2085.13       1984.57       1933.29       1882.06       1831.22
      0.10205       1669.34       1678.95       1685.57       1679.41       1668.61       1654.42       1637.52
      0.10206       617.783        556.12       517.867       486.198       483.914        487.45       494.754
      0.10207      -5386.92      -5334.68      -5275.55      -5165.62      -5115.57      -5068.54      -5024.13
      0.10208       13892.8       13707.9       13546.8       13270.2       13148.3       13034.2       12926.7
      0.10209      -14650.5      -14355.5      -14113.1      -13721.4        -13555      -13402.2      -13260.5
       0.1021      -4300.02      -4244.47      -4199.65       -4129.1      -4098.62      -4069.44       -4041.1
      0.10211        1418.6       1392.88       1357.01       1285.62       1254.61       1226.67       1201.39
      0.10212       5516.96       5387.84       5271.72        5076.2       4995.14       4923.18          4859
      0.10213      -6882.85      -6753.93      -6628.37      -6407.39      -6313.13      -6228.83      -6153.36
      0.10214       6630.13       6560.67       6495.27       6378.87       6327.43       6279.64       6234.99
      0.10215       661.348       624.445       598.873       572.695       567.259       564.637       563.697
      0.10216      -5472.46      -5205.79      -4987.71      -4652.29      -4518.56       -4400.7      -4295.27
      0.10217      -3732.17      -3611.09      -3500.46      -3306.77      -3219.16      -3135.85      -3056.81
      0.10218        7135.9       7020.56       6926.87       6758.62        6679.5       6602.65       6527.93
      0.10219      -7504.01      -7538.99      -7551.86       -7555.7      -7552.37      -7546.59      -7538.62
       0.1022      -3842.23      -3902.46      -3960.15      -4060.85       -4101.2       -4134.6      -4161.37
      0.10221       9481.85       9286.67       9121.81       8841.07       8717.74       8603.18       8495.74
      0.10222      -2950.23      -2689.81      -2486.03      -2200.76      -2100.81      -2020.09      -1954.22
      0.10223       4962.97       4828.83       4743.27       4654.17        4632.3       4619.94       4614.56
      0.10224       331.104       462.958        572.83       745.624       814.285       873.908       926.088
      0.10225       12171.8       12048.6       11932.2       11739.8       11660.5       11589.1       11523.7
      0.10226        -15869      -15777.8      -15684.8      -15500.5      -15407.9      -15314.1      -15219.6
      0.10227      -8.14604      -127.165      -231.191      -408.749      -486.884      -559.676      -627.867
      0.10228       6297.69       6290.71       6279.88       6260.83       6252.33       6244.14       6236.29
      0.10229      -3483.84      -3418.32      -3379.25      -3331.64      -3314.39      -3299.09      -3284.76
       0.1023      -1446.25      -1470.33      -1478.07      -1469.41      -1460.23      -1450.45      -1440.93
      0.10231       1942.41       1917.11       1884.44       1818.38       1788.65       1761.89       1738.23
      0.10232       7728.15       7607.59       7490.28       7264.93       7157.74       7054.25       6954.32
      0.10233      -3005.07       -2853.3      -2709.55       -2447.2      -2327.62      -2215.12      -2109.23
      0.10234       8915.49       8832.22        8763.9       8630.44       8561.41       8491.02       8419.85
      0.10235      -6669.96      -6708.53      -6744.52      -6807.34      -6830.12      -6846.23      -6855.79
      0.10236       2816.93        2690.2       2597.61       2453.44       2392.55       2336.75       2285.23
      0.10237      -3371.88       -3203.8      -3069.17       -2871.1      -2796.88      -2734.45      -2681.34
      0.10238      -1057.89      -1071.97      -1069.49      -1044.27      -1027.12      -1008.95      -990.536
      0.10239       1639.81       1613.89       1603.75       1600.85       1605.74        1614.1       1625.35
       0.1024      -3468.78      -3323.43      -3184.69      -2936.77      -2829.26      -2731.75      -2643.08
      0.10241       7134.38       6922.99       6746.29       6463.69       6346.46       6240.73       6144.46
      0.10242       8848.13       8883.01       8896.18       8902.32       8898.26       8890.32       8879.12
      0.10243      -34.1031       78.2195       158.134        275.59       320.783       359.418       392.629
      0.10244      -1551.22      -1569.92      -1610.05      -1707.98      -1759.35      -1810.45       -1860.6
      0.10245       1167.99       1167.62       1157.29       1135.16       1123.68       1111.93          1100
      0.10246       813.848       815.961       834.713       897.402       933.909       970.858       1007.03
      0.10247       -9774.2      -9728.18      -9667.22      -9531.16      -9460.88      -9390.49      -9320.52
      0.10248       2008.49       2046.56       2080.61       2136.17        2158.8       2178.61       2195.98
      0.10249       7121.98       6919.18       6728.54       6391.26       6242.29       6104.34       5975.96
       0.1025      -4194.09      -4031.26      -3894.05      -3682.04      -3597.57      -3523.32      -3457.31
      0.10251       5080.64       4908.06       4777.75       4588.82       4518.81       4460.75       4412.44
      0.10252      -7350.02      -7137.64      -6961.46      -6686.07      -6576.82      -6481.89      -6398.77
      0.10253      -1018.31       -1095.9      -1171.74      -1289.27      -1330.72      -1362.34      -1385.62
      0.10254       4104.85       3894.73       3707.91       3384.91       3243.29       3112.59       2991.52
      0.10255      -4101.58      -3870.54      -3670.15      -3343.29      -3208.96      -3089.69      -2982.93
      0.10256      -4814.45      -4804.03      -4780.61      -4717.06      -4681.66      -4645.45      -4609.17
      0.10257       1084.63       1004.77         932.3       791.757       721.965       653.073       585.592
      0.10258      -14660.9      -14418.9      -14202.4      -13822.5        -13652      -13491.5      -13339.8
      0.10259       1030.82       947.076        883.71       790.874        754.14       721.439       691.793
       0.1026       3514.71        3620.9       3698.51       3815.44       3863.03       3905.65       3944.08
      0.10261       7312.46       7050.83       6830.67       6475.72       6328.92       6197.21       6077.77
      0.10262      -8690.03      -8701.38      -8696.03      -8672.46      -8659.98      -8648.09      -8636.76
      0.10263      -9121.23      -8937.66      -8779.21      -8519.31      -8409.93      -8310.77      -8220.05
      0.10264       -1110.8       -1185.5      -1265.67      -1400.68      -1454.24      -1499.76      -1538.21