/*--------------------------------*- C++ -*----------------------------------*\
| =========                 |                                                 |
| \\      /  F ield         | OpenFOAM: The Open Source CFD Toolbox           |
|  \\    /   O peration     | Version:  4.1                                   |
|   \\  /    A nd           | Web:      www.OpenFOAM.org                      |
|    \\/     M anipulation  |                                                 |
\*---------------------------------------------------------------------------*/
FoamFile
{
    version     2.0;
    format      ascii;
    class       volScalarField;
    location    "0.5";
    object      k;
}
// * * * * * * * * * * * * * * * * * * * * * * * * * * * * * * * * * * * * * //

dimensions      [0 2 -2 0 0 0 0];

internalField   nonuniform List<scalar> 
43750
(
0.384095
0.392927
0.401473
0.409717
0.417644
0.425244
0.432505
0.439414
0.445958
0.452123
0.457894
0.463259
0.468203
0.472712
0.476771
0.480367
0.483484
0.48611
0.488227
0.489823
0.49088
0.491383
0.491314
0.490655
0.489388
0.487491
0.484943
0.481719
0.477793
0.473138
0.467721
0.46151
0.454469
0.446559
0.437743
0.427981
0.41724
0.405495
0.392735
0.378982
0.364303
0.348839
0.332845
0.31674
0.301184
0.287161
0.276076
0.269823
0.270724
0.281172
0.30288
0.341873
0.393667
0.439526
0.472485
0.49056
0.494905
0.488213
0.473283
0.452372
0.428043
0.402109
0.376449
0.353114
0.334054
0.3206
0.313977
0.310241
0.301885
0.287676
0.267789
0.242912
0.214071
0.181942
0.148427
0.125171
0.132749
0.154658
0.185
0.217714
0.248929
0.276969
0.301489
0.32278
0.341395
0.357963
0.373136
0.387605
0.402158
0.417102
0.431978
0.446745
0.461004
0.473642
0.482233
0.481791
0.462508
0.406329
0.259298
0.112882
0.349413
0.327144
0.30777
0.290866
0.276087
0.26315
0.251817
0.241893
0.233215
0.225647
0.219073
0.213397
0.208536
0.204422
0.200996
0.198211
0.196028
0.194415
0.19335
0.192816
0.192805
0.193315
0.194352
0.195933
0.198081
0.200833
0.204235
0.208353
0.213266
0.219079
0.225921
0.233958
0.243397
0.254499
0.267593
0.283092
0.301521
0.323535
0.349957
0.381804
0.420309
0.466937
0.523356
0.591359
0.672718
0.768926
0.880856
1.00829
1.14936
1.29993
1.45294
1.59829
1.72308
1.81277
1.85577
1.84822
1.79577
1.71047
1.60353
1.47906
1.35781
1.23942
1.12556
1.01959
0.926521
0.849482
0.781676
0.71925
0.667394
0.616476
0.563595
0.508878
0.457932
0.419589
0.404072
0.396234
0.386188
0.376528
0.363496
0.350496
0.342399
0.342051
0.349895
0.364803
0.384967
0.408597
0.434356
0.461521
0.48989
0.520128
0.554044
0.59207
0.634208
0.679001
0.72176
0.751306
0.74739
0.682353
0.515665
0.114969
0.349122
0.326223
0.305919
0.287812
0.271581
0.256965
0.24375
0.231761
0.220849
0.210892
0.201787
0.193447
0.185798
0.178777
0.172332
0.166416
0.160992
0.156026
0.151491
0.147364
0.143627
0.140263
0.137263
0.134618
0.132325
0.130385
0.128802
0.127587
0.126756
0.126336
0.126361
0.12688
0.127957
0.129682
0.13217
0.135579
0.140115
0.146052
0.15375
0.163683
0.176468
0.192902
0.214002
0.241044
0.275596
0.31953
0.375019
0.44448
0.530477
0.635535
0.761811
0.910563
1.08119
1.26977
1.46758
1.66036
1.82949
1.95574
2.02473
2.03116
1.98292
1.89313
1.77505
1.63806
1.49398
1.36961
1.26342
1.16716
1.07359
0.987387
0.901423
0.80474
0.702762
0.601225
0.508571
0.442863
0.40507
0.385573
0.377537
0.379474
0.39037
0.40721
0.425768
0.442558
0.456117
0.467016
0.476972
0.487785
0.500642
0.515677
0.532579
0.551302
0.571602
0.593171
0.615495
0.636952
0.652335
0.647498
0.57034
0.168628
0.349121
0.326216
0.305897
0.287765
0.271496
0.256823
0.243531
0.231439
0.220395
0.210273
0.200966
0.192383
0.184445
0.177086
0.170249
0.163883
0.157947
0.152402
0.147216
0.142363
0.137819
0.133562
0.129577
0.125849
0.122367
0.119124
0.116114
0.113333
0.110785
0.108472
0.106403
0.104593
0.10306
0.101832
0.100946
0.100452
0.100417
0.100932
0.102117
0.104136
0.107209
0.111632
0.117801
0.12624
0.137637
0.152875
0.173076
0.199635
0.234271
0.279076
0.336574
0.409754
0.502018
0.616908
0.757489
0.925243
1.11845
1.33028
1.54728
1.74948
1.91417
2.02172
2.06173
2.03609
1.95903
1.85619
1.74867
1.6453
1.55466
1.47247
1.38329
1.27684
1.13814
0.971049
0.801002
0.660449
0.56807
0.520192
0.503212
0.504528
0.514061
0.524252
0.530624
0.531848
0.529046
0.524566
0.520743
0.519191
0.520767
0.525236
0.53164
0.539573
0.548159
0.556266
0.563352
0.570567
0.5803
0.591491
0.571475
0.239088
0.349121
0.326216
0.305896
0.287762
0.27149
0.256815
0.24352
0.231423
0.220374
0.210244
0.200928
0.192332
0.184378
0.176998
0.170133
0.163733
0.157752
0.152153
0.146901
0.141966
0.137322
0.132945
0.128815
0.124914
0.121227
0.117739
0.114439
0.111317
0.108365
0.105578
0.102952
0.100484
0.0981754
0.0960312
0.0940593
0.0922731
0.090693
0.0893485
0.0882817
0.087552
0.0872421
0.0874667
0.0883833
0.090206
0.0932221
0.0978131
0.104478
0.113863
0.126794
0.144326
0.167792
0.198885
0.239747
0.293068
0.362145
0.450842
0.563333
0.703454
0.873454
1.072
1.29184
1.51785
1.72745
1.89538
2.00296
2.04748
2.0417
2.00536
1.95761
1.90759
1.84241
1.74706
1.60393
1.41241
1.19513
0.991068
0.836304
0.742004
0.69589
0.678325
0.672494
0.667277
0.657283
0.64186
0.623199
0.604144
0.586904
0.572957
0.563405
0.558739
0.557384
0.559
0.562578
0.566145
0.567331
0.565142
0.56158
0.560015
0.549373
0.298109
0.349121
0.326216
0.305896
0.287761
0.271488
0.256813
0.243517
0.231419
0.22037
0.210241
0.200924
0.192328
0.184373
0.176993
0.170127
0.163726
0.157743
0.152141
0.146884
0.141942
0.137289
0.1329
0.128754
0.124832
0.121118
0.117596
0.114253
0.111078
0.108059
0.105187
0.102456
0.0998573
0.0973867
0.09504
0.092815
0.0907112
0.0887304
0.0868779
0.0851627
0.0835999
0.0822132
0.0810383
0.0801286
0.0795622
0.0794525
0.0799602
0.0813087
0.0838026
0.0878478
0.0939766
0.102878
0.115437
0.132789
0.156384
0.188072
0.230201
0.285719
0.358248
0.45203
0.571583
0.720815
0.901326
1.10986
1.33576
1.56069
1.76289
1.92494
2.04029
2.11419
2.15626
2.16722
2.13339
2.02754
1.84184
1.60526
1.35692
1.14436
0.997599
0.914257
0.87293
0.850422
0.830382
0.805325
0.774817
0.741691
0.70884
0.678127
0.650877
0.628553
0.613449
0.603255
0.597462
0.59533
0.595196
0.594294
0.589431
0.578637
0.561806
0.537109
0.347849
0.349121
0.326216
0.305896
0.287761
0.271488
0.256812
0.243515
0.231418
0.220368
0.210239
0.200922
0.192326
0.184372
0.176991
0.170126
0.163724
0.157742
0.15214
0.146883
0.141941
0.137287
0.132898
0.12875
0.124827
0.121109
0.117583
0.114234
0.11105
0.10802
0.105133
0.102381
0.0997565
0.0972516
0.0948604
0.092578
0.0904
0.0883234
0.0863463
0.0844685
0.0826915
0.0810197
0.0794616
0.0780308
0.0767497
0.0756533
0.0747951
0.074256
0.0741558
0.0746688
0.0760423
0.0786204
0.0828705
0.0894152
0.0990701
0.112888
0.132214
0.158747
0.194626
0.242527
0.305772
0.388372
0.494867
0.629685
0.795799
0.992724
1.21464
1.44988
1.68279
1.89793
2.08294
2.22549
2.30635
2.2988
2.1853
1.97983
1.72048
1.4631
1.26732
1.14399
1.07568
1.03523
1.001
0.96275
0.919469
0.874168
0.829759
0.787802
0.74913
0.714714
0.68797
0.668288
0.653794
0.643514
0.636365
0.630725
0.62409
0.612404
0.58888
0.545861
0.389099
0.349122
0.326217
0.305897
0.287762
0.271488
0.256812
0.243516
0.231418
0.220368
0.210239
0.200923
0.192327
0.184374
0.176994
0.170129
0.163729
0.157747
0.152146
0.14689
0.141949
0.137296
0.132907
0.128761
0.124838
0.121121
0.117595
0.114245
0.11106
0.108028
0.105139
0.102383
0.0997523
0.0972391
0.0948365
0.0925385
0.0903397
0.0882353
0.0862216
0.0842953
0.0824543
0.0806977
0.0790261
0.0774421
0.0759514
0.0745637
0.0732952
0.0721715
0.0712327
0.0705404
0.0701883
0.0703167
0.0711325
0.0729351
0.0761483
0.0813569
0.0893471
0.101149
0.118081
0.141798
0.174352
0.218268
0.276649
0.353266
0.452532
0.579202
0.737652
0.930641
1.15762
1.41294
1.68416
1.94945
2.17452
2.31481
2.33247
2.22233
2.01654
1.7718
1.55083
1.38841
1.28508
1.22006
1.1687
1.11828
1.06469
1.00996
0.956805
0.90656
0.859816
0.816824
0.778348
0.749439
0.725953
0.706264
0.689535
0.675285
0.663276
0.651511
0.629503
0.574511
0.423542
0.349122
0.326217
0.305897
0.287762
0.271489
0.256813
0.243517
0.231419
0.22037
0.210241
0.200925
0.19233
0.184377
0.176998
0.170135
0.163735
0.157754
0.152154
0.146899
0.141959
0.137307
0.132919
0.128774
0.124852
0.121136
0.117611
0.114262
0.111078
0.108046
0.105157
0.102401
0.0997698
0.0972551
0.09485
0.0925481
0.0903435
0.0882309
0.0862056
0.0842634
0.0824005
0.0806143
0.0789025
0.0772643
0.0756998
0.0742113
0.0728035
0.0714845
0.0702682
0.069176
0.0682417
0.0675172
0.067082
0.0670577
0.0676277
0.0690651
0.0717689
0.076306
0.0834572
0.0942622
0.11006
0.132528
0.163713
0.206092
0.262676
0.337176
0.434244
0.559636
0.720013
0.921854
1.16864
1.4551
1.75826
2.03092
2.2117
2.25758
2.17137
1.99779
1.79877
1.62353
1.49253
1.40057
1.33041
1.2677
1.20579
1.14425
1.08464
1.02736
0.975122
0.926664
0.87962
0.842102
0.809341
0.77954
0.752157
0.727337
0.706797
0.69234
0.675193
0.617425
0.452963
0.349122
0.326218
0.305898
0.287763
0.27149
0.256815
0.243519
0.231422
0.220373
0.210245
0.200929
0.192335
0.184383
0.177004
0.170141
0.163743
0.157763
0.152164
0.14691
0.141971
0.137321
0.132934
0.12879
0.124869
0.121154
0.11763
0.114283
0.1111
0.108069
0.105181
0.102425
0.0997945
0.09728
0.0948749
0.0925725
0.0903668
0.0882523
0.0862239
0.0842769
0.0824072
0.0806109
0.078885
0.0772267
0.0756343
0.0741068
0.0726445
0.0712496
0.0699266
0.0686832
0.0675325
0.0664947
0.0656011
0.0649
0.0644658
0.0644127
0.0649156
0.0662394
0.0687782
0.0731029
0.0800127
0.0905845
0.106214
0.128645
0.159992
0.202804
0.260229
0.336386
0.43692
0.569496
0.743494
0.967362
1.24136
1.54543
1.83086
2.03385
2.11169
2.06914
1.94976
1.80578
1.67348
1.566
1.47954
1.40489
1.33536
1.26864
1.20499
1.14508
1.08982
1.03859
0.987089
0.940798
0.897719
0.85725
0.819001
0.783405
0.753689
0.734811
0.722177
0.668325
0.47899
0.349122
0.326218
0.305899
0.287765
0.271492
0.256816
0.243521
0.231424
0.220376
0.210249
0.200934
0.19234
0.184389
0.177012
0.17015
0.163752
0.157774
0.152176
0.146923
0.141985
0.137336
0.132951
0.128808
0.124888
0.121175
0.117652
0.114306
0.111124
0.108094
0.105207
0.102453
0.0998224
0.0973086
0.094904
0.092602
0.0903965
0.0882819
0.086253
0.084305
0.0824336
0.0806346
0.0789044
0.0772397
0.0756376
0.0740959
0.0726129
0.0711879
0.0698215
0.0685157
0.0672754
0.0661085
0.0650281
0.0640546
0.0632199
0.0625727
0.0621883
0.0621832
0.0627362
0.0641208
0.066747
0.0712136
0.0783661
0.0893509
0.105659
0.12916
0.162141
0.207435
0.268735
0.351187
0.462097
0.611026
0.807519
1.05412
1.33482
1.60801
1.8185
1.92804
1.93703
1.87693
1.78593
1.69084
1.60295
1.52321
1.44921
1.37922
1.31298
1.25082
1.1931
1.13945
1.08774
1.0338
0.982597
0.932756
0.884141
0.83859
0.800986
0.778435
0.769502
0.721962
0.503158
0.349123
0.326219
0.3059
0.287766
0.271494
0.256819
0.243524
0.231428
0.22038
0.210253
0.20094
0.192347
0.184396
0.17702
0.170159
0.163763
0.157786
0.152189
0.146937
0.142001
0.137353
0.132969
0.128827
0.124909
0.121197
0.117676
0.114331
0.11115
0.108121
0.105235
0.102482
0.0998527
0.0973397
0.0949359
0.0926345
0.0904294
0.0883152
0.0862865
0.0843385
0.0824668
0.0806673
0.0789362
0.0772698
0.075665
0.074119
0.0726291
0.0711935
0.0698107
0.0684803
0.0672031
0.0659815
0.0648204
0.0637287
0.0627202
0.061817
0.0610533
0.060482
0.0601847
0.0602881
0.060987
0.0625797
0.0655137
0.0704434
0.0782946
0.0903263
0.108188
0.133977
0.170345
0.220728
0.289796
0.384017
0.511706
0.681053
0.894461
1.14003
1.38684
1.59329
1.72752
1.78319
1.77683
1.73297
1.67154
1.60396
1.53528
1.4676
1.40206
1.33947
1.28028
1.22428
1.17008
1.11269
1.05511
0.99708
0.939746
0.88662
0.844283
0.82117
0.816385
0.774449
0.527139
0.349123
0.32622
0.305901
0.287767
0.271495
0.256821
0.243527
0.231431
0.220385
0.210259
0.200946
0.192354
0.184405
0.17703
0.17017
0.163775
0.157799
0.152203
0.146953
0.142018
0.137371
0.132989
0.128849
0.124932
0.121221
0.117701
0.114357
0.111178
0.10815
0.105266
0.102513
0.099885
0.097373
0.09497
0.0926693
0.0904649
0.0883511
0.0863228
0.0843751
0.0825037
0.0807042
0.078973
0.0773063
0.075701
0.0741538
0.0726621
0.0712233
0.0698352
0.0684962
0.0672052
0.065962
0.0647676
0.0636249
0.0625396
0.0615214
0.060586
0.0597585
0.0590776
0.0586039
0.058431
0.0587042
0.059647
0.0615999
0.0650726
0.0708085
0.079859
0.0936625
0.114131
0.143762
0.185807
0.244541
0.325501
0.435221
0.579528
0.759668
0.967256
1.18174
1.37486
1.52181
1.61152
1.64819
1.64474
1.61504
1.56989
1.51648
1.4593
1.40112
1.34346
1.2868
1.23056
1.17184
1.10963
1.04523
0.981367
0.923383
0.879629
0.859702
0.862235
0.826119
0.548759
0.349124
0.32622
0.305902
0.287769
0.271498
0.256824
0.24353
0.231435
0.220389
0.210264
0.200953
0.192362
0.184414
0.17704
0.170181
0.163787
0.157813
0.152218
0.14697
0.142036
0.137391
0.13301
0.128871
0.124956
0.121246
0.117728
0.114385
0.111207
0.108181
0.105297
0.102546
0.0999192
0.0974082
0.0950061
0.0927062
0.0905025
0.0883894
0.0863616
0.0844143
0.0825432
0.080744
0.0790129
0.0773463
0.0757409
0.0741936
0.0727015
0.0712619
0.0698724
0.0685307
0.0672352
0.0659843
0.0647773
0.0636143
0.0624968
0.0614282
0.0604154
0.0594697
0.0586096
0.0578648
0.0572815
0.056932
0.0569288
0.0574455
0.0587491
0.061244
0.0655322
0.0724905
0.0833619
0.0998644
0.124316
0.159773
0.210126
0.280012
0.374209
0.496219
0.646054
0.817926
0.99919
1.1721
1.31878
1.42705
1.49352
1.52236
1.52156
1.49964
1.46376
1.41923
1.36953
1.3166
1.26116
1.20284
1.13914
1.07162
1.00471
0.945672
0.904484
0.891615
0.904844
0.876501
0.566233
0.349124
0.326221
0.305903
0.287771
0.2715
0.256827
0.243533
0.23144
0.220395
0.210271
0.20096
0.19237
0.184423
0.17705
0.170193
0.163801
0.157827
0.152234
0.146987
0.142055
0.137412
0.133032
0.128895
0.124981
0.121273
0.117756
0.114415
0.111238
0.108213
0.105331
0.102581
0.099955
0.0974451
0.0950439
0.0927449
0.090542
0.0884296
0.0864024
0.0844557
0.082585
0.0807862
0.0790554
0.077389
0.0757838
0.0742366
0.0727444
0.0713047
0.0699148
0.0685725
0.0672756
0.0660222
0.0648108
0.0636404
0.0625103
0.0614212
0.0603752
0.0593767
0.058434
0.0575611
0.0567806
0.0561291
0.0556638
0.0554746
0.0557009
0.0565581
0.0583749
0.0616472
0.0671109
0.0758366
0.0893475
0.109751
0.139846
0.1831
0.243313
0.323819
0.42636
0.550044
0.690709
0.84074
0.989547
1.12522
1.23729
1.31936
1.37012
1.39246
1.39147
1.37265
1.34073
1.2992
1.2503
1.19545
1.13597
1.07048
1.00573
0.950785
0.916811
0.914776
0.941438
0.922802
0.579103
0.349124
0.326222
0.305904
0.287772
0.271502
0.25683
0.243537
0.231444
0.2204
0.210277
0.200967
0.192379
0.184433
0.177062
0.170206
0.163815
0.157843
0.152251
0.147006
0.142075
0.137433
0.133055
0.128919
0.125007
0.1213
0.117785
0.114445
0.11127
0.108247
0.105366
0.102617
0.0999921
0.0974833
0.0950832
0.0927852
0.0905832
0.0884716
0.0864451
0.084499
0.0826289
0.0808305
0.0791001
0.0774341
0.0758291
0.0742821
0.0727901
0.0713504
0.0699605
0.068618
0.0673207
0.0660665
0.0648537
0.0636806
0.0625459
0.0614489
0.0603895
0.0593687
0.0583895
0.0574579
0.0565843
0.0557864
0.0550933
0.0545513
0.0542337
0.0542554
0.0547945
0.0561244
0.0586612
0.0630292
0.0701514
0.0813638
0.0985383
0.124158
0.161213
0.212749
0.281051
0.366772
0.468518
0.583002
0.705346
0.829223
0.947151
1.05146
1.13584
1.19661
1.23314
1.24722
1.24192
1.22061
1.18632
1.14174
1.08994
1.03514
0.980376
0.936175
0.914551
0.926754
0.968765
0.961415
0.586501
0.349125
0.326223
0.305906
0.287774
0.271504
0.256833
0.243541
0.231449
0.220406
0.210284
0.200975
0.192388
0.184444
0.177074
0.170219
0.163829
0.157859
0.152269
0.147025
0.142096
0.137455
0.133079
0.128945
0.125034
0.121329
0.117815
0.114477
0.111303
0.108281
0.105401
0.102654
0.10003
0.0975228
0.0951238
0.0928269
0.0906258
0.088515
0.0864894
0.084544
0.0826745
0.0808767
0.0791467
0.0774811
0.0758765
0.0743298
0.0728381
0.0713985
0.0700087
0.0686663
0.0673689
0.0661145
0.0649011
0.0637271
0.0625907
0.0614906
0.0604258
0.0593959
0.0584014
0.057444
0.0565279
0.0556611
0.0548573
0.05414
0.053547
0.0531392
0.053013
0.0533184
0.0542875
0.0562748
0.0598158
0.0657078
0.0751113
0.089652
0.111459
0.14302
0.186725
0.244154
0.315408
0.398934
0.491911
0.590769
0.691393
0.789089
0.878731
0.955385
1.01516
1.05585
1.07707
1.07988
1.06634
1.03923
1.0024
0.964531
0.927038
0.900078
0.89553
0.92456
0.982894
0.988108
0.587274
0.349125
0.326224
0.305907
0.287776
0.271507
0.256836
0.243545
0.231454
0.220412
0.210291
0.200984
0.192398
0.184454
0.177086
0.170233
0.163844
0.157875
0.152287
0.147045
0.142117
0.137478
0.133103
0.128971
0.125061
0.121358
0.117845
0.114509
0.111337
0.108316
0.105438
0.102692
0.10007
0.0975634
0.0951656
0.0928697
0.0906697
0.0885598
0.086535
0.0845904
0.0827216
0.0809244
0.0791951
0.07753
0.0759258
0.0743795
0.072888
0.0714488
0.0700592
0.0687169
0.0674196
0.0661651
0.0649516
0.0637772
0.0626401
0.0615387
0.0604718
0.0594381
0.058437
0.0574685
0.0565337
0.0556354
0.0547796
0.0539772
0.0532469
0.0526202
0.0521483
0.0519128
0.0520425
0.052737
0.0543022
0.0572013
0.0621235
0.0700667
0.0824119
0.100927
0.127613
0.164309
0.212133
0.27097
0.339353
0.414802
0.494365
0.574949
0.653345
0.726158
0.789946
0.841605
0.878859
0.900617
0.907141
0.900096
0.882711
0.860716
0.847224
0.842523
0.858062
0.904978
0.979494
0.998309
0.580213
0.349126
0.326224
0.305908
0.287778
0.27151
0.256839
0.243549
0.231459
0.220418
0.210298
0.200992
0.192407
0.184465
0.177098
0.170247
0.16386
0.157892
0.152306
0.147065
0.142139
0.137502
0.133128
0.128997
0.12509
0.121388
0.117877
0.114542
0.111371
0.108352
0.105476
0.102731
0.10011
0.0976049
0.0952083
0.0929136
0.0907146
0.0886058
0.0865819
0.0846381
0.0827701
0.0809736
0.0792449
0.0775803
0.0759767
0.0744308
0.0729398
0.0715009
0.0701116
0.0687695
0.0674724
0.0662181
0.0650046
0.0638301
0.0626927
0.0615909
0.0605229
0.0594876
0.0584837
0.0575103
0.0565671
0.0556546
0.0547748
0.0539322
0.0531353
0.0523995
0.0517508
0.0512327
0.0509156
0.0509108
0.0513921
0.052626
0.0550151
0.0591538
0.0658912
0.0763758
0.0920357
0.114433
0.144959
0.184416
0.232644
0.288395
0.349553
0.41357
0.477852
0.539919
0.597382
0.647941
0.689528
0.720609
0.740556
0.750011
0.751218
0.748406
0.749238
0.766694
0.801833
0.865419
0.954703
0.987913
0.564343
0.349126
0.326225
0.30591
0.28778
0.271512
0.256843
0.243554
0.231464
0.220424
0.210306
0.201001
0.192417
0.184477
0.177111
0.170261
0.163875
0.15791
0.152325
0.147085
0.142161
0.137525
0.133154
0.129025
0.125119
0.121419
0.117909
0.114576
0.111406
0.108389
0.105514
0.102771
0.100151
0.0976473
0.0952519
0.0929584
0.0907605
0.0886527
0.0866298
0.0846869
0.0828197
0.081024
0.079296
0.0776321
0.076029
0.0744836
0.0729931
0.0715546
0.0701657
0.0688239
0.0675271
0.066273
0.0650597
0.0638853
0.0627479
0.0616459
0.0605776
0.0595416
0.0585363
0.0575607
0.0566137
0.0556948
0.0548041
0.0539428
0.0531142
0.0523253
0.0515885
0.0509259
0.0503747
0.0499961
0.0498874
0.0502012
0.0511712
0.0531478
0.0566418
0.062367
0.0712617
0.0844538
0.103136
0.12834
0.160641
0.199895
0.245118
0.294596
0.34619
0.397687
0.447042
0.492474
0.532497
0.566
0.592447
0.612181
0.626757
0.639246
0.654559
0.679992
0.728152
0.804954
0.906243
0.954195
0.539285
0.349127
0.326226
0.305911
0.287782
0.271515
0.256846
0.243558
0.23147
0.220431
0.210313
0.201009
0.192427
0.184488
0.177124
0.170275
0.163892
0.157927
0.152344
0.147106
0.142184
0.13755
0.13318
0.129052
0.125148
0.12145
0.117942
0.11461
0.111442
0.108427
0.105553
0.102811
0.100193
0.0976903
0.0952962
0.0930039
0.0908072
0.0887005
0.0866786
0.0847367
0.0828704
0.0810755
0.0793483
0.0776851
0.0760826
0.0745378
0.0730478
0.0716098
0.0702214
0.06888
0.0675835
0.0663298
0.0651167
0.0639425
0.0628053
0.0617034
0.0606351
0.0595988
0.0585931
0.0576165
0.0566679
0.055746
0.0548502
0.0539803
0.053137
0.0523229
0.0515433
0.0508087
0.050138
0.0495636
0.0491389
0.04895
0.0491318
0.0498899
0.0515295
0.054487
0.0593565
0.0668937
0.0779756
0.0934979
0.114212
0.140525
0.172319
0.208855
0.248821
0.290524
0.332166
0.372107
0.409033
0.44207
0.470879
0.49581
0.518096
0.540068
0.565343
0.599101
0.648567
0.725167
0.831517
0.893678
0.505343
0.349127
0.326227
0.305913
0.287784
0.271518
0.25685
0.243562
0.231475
0.220437
0.210321
0.201018
0.192438
0.1845
0.177137
0.17029
0.163908
0.157945
0.152363
0.147127
0.142207
0.137574
0.133206
0.12908
0.125178
0.121481
0.117975
0.114645
0.111478
0.108464
0.105592
0.102852
0.100235
0.097734
0.0953412
0.0930501
0.0908546
0.0887491
0.0867282
0.0847874
0.082922
0.081128
0.0794015
0.0777391
0.0761374
0.0745933
0.0731038
0.0716664
0.0702785
0.0689376
0.0676415
0.0663882
0.0651755
0.0640017
0.0628648
0.0617631
0.060695
0.0596588
0.0586531
0.0576763
0.0567271
0.0558041
0.0549061
0.0540324
0.0531824
0.0523566
0.0515569
0.0507876
0.0500577
0.0493836
0.0487937
0.0483356
0.0480858
0.0481644
0.0487529
0.0501166
0.0526269
0.0567747
0.0631637
0.07247
0.0853607
0.102377
0.123802
0.149541
0.179057
0.211393
0.245295
0.279415
0.312538
0.343787
0.372773
0.399731
0.425632
0.452332
0.482731
0.52109
0.573715
0.650608
0.756094
0.825802
0.479269
0.349128
0.326228
0.305914
0.287786
0.27152
0.256853
0.243567
0.231481
0.220444
0.210329
0.201028
0.192448
0.184512
0.177151
0.170305
0.163924
0.157964
0.152383
0.147149
0.14223
0.137599
0.133233
0.129108
0.125208
0.121513
0.118008
0.11468
0.111515
0.108503
0.105632
0.102893
0.100278
0.0977781
0.0953867
0.093097
0.0909027
0.0887983
0.0867786
0.0848388
0.0829744
0.0811813
0.0794558
0.0777942
0.0761932
0.0746498
0.073161
0.0717242
0.0703369
0.0689965
0.067701
0.0664481
0.065236
0.0640625
0.0629261
0.0618248
0.0607571
0.0597213
0.0587159
0.0577393
0.0567902
0.055867
0.0549685
0.0540935
0.0532409
0.0524102
0.0516015
0.0508163
0.0500583
0.0493354
0.048662
0.0480636
0.047583
0.047289
0.0472889
0.0477435
0.0488837
0.0510247
0.0545713
0.0600056
0.0678493
0.0786008
0.0926517
0.110198
0.131168
0.155182
0.181574
0.209475
0.23796
0.266232
0.293819
0.320739
0.347652
0.376006
0.408225
0.448078
0.501487
0.578335
0.684687
0.762274
0.45938
0.349128
0.326229
0.305916
0.287788
0.271523
0.256857
0.243571
0.231486
0.22045
0.210337
0.201037
0.192459
0.184524
0.177164
0.17032
0.163941
0.157982
0.152403
0.147171
0.142253
0.137624
0.133259
0.129137
0.125238
0.121545
0.118042
0.114715
0.111552
0.108541
0.105672
0.102935
0.100321
0.0978227
0.0954327
0.0931443
0.0909513
0.0888481
0.0868296
0.0848908
0.0830275
0.0812354
0.0795108
0.0778501
0.0762499
0.0747073
0.0732193
0.0717832
0.0703964
0.0690567
0.0677618
0.0665095
0.0652979
0.064125
0.0629891
0.0618884
0.0608212
0.059786
0.0587812
0.0578052
0.0568566
0.055934
0.0550359
0.054161
0.053308
0.0524759
0.051664
0.0508724
0.0501022
0.0493568
0.0486433
0.0479748
0.0473746
0.0468816
0.0465585
0.0465019
0.0468546
0.0478181
0.0496608
0.0527183
0.0573786
0.0640499
0.0731118
0.0848554
0.099425
0.116774
0.136649
0.15861
0.182099
0.206549
0.231539
0.256961
0.283203
0.31135
0.343425
0.382825
0.435219
0.510422
0.615982
0.699273
0.439852
0.349129
0.32623
0.305917
0.28779
0.271526
0.25686
0.243576
0.231492
0.220457
0.210345
0.201046
0.192469
0.184536
0.177178
0.170335
0.163958
0.158
0.152423
0.147192
0.142277
0.13765
0.133286
0.129166
0.125268
0.121577
0.118076
0.114751
0.111589
0.10858
0.105712
0.102977
0.100364
0.0978677
0.0954791
0.093192
0.0910003
0.0888984
0.0868811
0.0849435
0.0830812
0.0812902
0.0795665
0.0779067
0.0763075
0.0747657
0.0732785
0.0718431
0.0704571
0.0691181
0.0678239
0.0665723
0.0653613
0.0641891
0.0630538
0.0619538
0.0608873
0.0598529
0.0588488
0.0578737
0.0569261
0.0560044
0.0551073
0.0542334
0.0533814
0.05255
0.0517381
0.0509451
0.0501709
0.0494167
0.0486857
0.0479845
0.0473254
0.0467303
0.0462351
0.0458974
0.045805
0.0460857
0.0469164
0.048528
0.0512023
0.0552579
0.0610232
0.0687991
0.0788159
0.0911949
0.105922
0.122847
0.141707
0.162184
0.184004
0.207064
0.231608
0.258442
0.289245
0.327067
0.377309
0.449636
0.55276
0.63943
0.421165
0.349129
0.326231
0.305919
0.287792
0.271529
0.256864
0.24358
0.231497
0.220464
0.210352
0.201055
0.19248
0.184548
0.177191
0.170351
0.163975
0.158019
0.152444
0.147214
0.142301
0.137675
0.133314
0.129195
0.125299
0.121609
0.11811
0.114786
0.111627
0.108619
0.105753
0.103019
0.100408
0.097913
0.0955258
0.0932401
0.0910498
0.0889492
0.0869331
0.0849967
0.0831355
0.0813456
0.079623
0.0779641
0.0763658
0.0748249
0.0733385
0.071904
0.0705188
0.0691806
0.0678871
0.0666362
0.065426
0.0642546
0.0631201
0.0620209
0.0609553
0.0599217
0.0589187
0.0579447
0.0569982
0.0560779
0.0551823
0.0543101
0.0534599
0.0526303
0.0518202
0.0510287
0.0502551
0.0494993
0.0487628
0.0480486
0.0473633
0.0467189
0.0461361
0.0456491
0.0453113
0.0452035
0.0454413
0.0461821
0.0476276
0.0500199
0.0536291
0.0587313
0.0655801
0.0743759
0.0852393
0.098197
0.113186
0.130085
0.148767
0.169197
0.191572
0.216527
0.245467
0.281115
0.328567
0.397245
0.496708
0.584705
0.403921
0.34913
0.326232
0.30592
0.287795
0.271532
0.256868
0.243585
0.231503
0.220471
0.21036
0.201065
0.192491
0.18456
0.177205
0.170366
0.163992
0.158037
0.152464
0.147236
0.142324
0.1377
0.133341
0.129224
0.12533
0.121642
0.118144
0.114822
0.111664
0.108658
0.105794
0.103062
0.100452
0.0979586
0.0955729
0.0932886
0.0910996
0.0890003
0.0869855
0.0850503
0.0831904
0.0814015
0.07968
0.0780222
0.0764248
0.0748849
0.0733994
0.0719658
0.0705815
0.0692441
0.0679514
0.0667014
0.065492
0.0643214
0.0631878
0.0620895
0.0610249
0.0599925
0.0589906
0.0580179
0.0570729
0.0561542
0.0552605
0.0543904
0.0535426
0.0527157
0.0519086
0.0511202
0.0503496
0.0495964
0.0488607
0.0481441
0.0474499
0.0467849
0.0461612
0.0455991
0.0451312
0.0448085
0.044706
0.0449302
0.0456237
0.0469669
0.0491749
0.0524863
0.0571471
0.0633882
0.0714031
0.0813291
0.0932389
0.10715
0.123056
0.140994
0.161154
0.184068
0.210932
0.244176
0.288577
0.353233
0.448273
0.535983
0.388487
0.34913
0.326233
0.305922
0.287797
0.271535
0.256871
0.24359
0.231509
0.220477
0.210369
0.201074
0.192502
0.184573
0.177219
0.170381
0.164008
0.158056
0.152484
0.147258
0.142348
0.137726
0.133368
0.129253
0.125361
0.121674
0.118178
0.114858
0.111702
0.108698
0.105835
0.103104
0.100497
0.0980043
0.0956201
0.0933373
0.0911497
0.0890518
0.0870383
0.0851044
0.0832456
0.0814579
0.0797375
0.0780808
0.0764845
0.0749456
0.0734611
0.0720284
0.070645
0.0693085
0.0680168
0.0667676
0.0655592
0.0643895
0.0632569
0.0621597
0.0610962
0.060065
0.0590644
0.0580932
0.0571499
0.0562331
0.0553416
0.0544739
0.053629
0.0528054
0.052002
0.0512178
0.0504517
0.0497032
0.048972
0.0482587
0.047565
0.046895
0.0462557
0.0456597
0.0451272
0.0446907
0.044399
0.0443237
0.0445645
0.045254
0.0465589
0.0486777
0.0518327
0.056257
0.0621784
0.0698014
0.0792927
0.090776
0.104343
0.120094
0.138225
0.159194
0.184027
0.214893
0.256247
0.316822
0.407083
0.49336
0.375001
0.349131
0.326234
0.305923
0.287799
0.271537
0.256875
0.243594
0.231514
0.220484
0.210377
0.201083
0.192512
0.184585
0.177232
0.170396
0.164025
0.158075
0.152504
0.14728
0.142372
0.137752
0.133395
0.129282
0.125391
0.121707
0.118213
0.114895
0.11174
0.108737
0.105876
0.103147
0.100541
0.0980503
0.0956676
0.0933863
0.0912001
0.0891036
0.0870914
0.0851588
0.0833013
0.0815148
0.0797956
0.07814
0.0765448
0.0750069
0.0735234
0.0720917
0.0707093
0.0693738
0.0680831
0.0668349
0.0656275
0.0644589
0.0633274
0.0622313
0.061169
0.0601391
0.0591401
0.0581705
0.057229
0.0563144
0.0554253
0.0545604
0.0537186
0.0528987
0.0520996
0.0513202
0.0505596
0.0498172
0.0490924
0.0483856
0.0476976
0.0470309
0.0463899
0.0457827
0.0452224
0.0447301
0.0443381
0.0440949
0.04407
0.0443595
0.0450902
0.046422
0.0485465
0.0516823
0.056065
0.0619349
0.069522
0.0790326
0.0906447
0.104524
0.120881
0.140117
0.163108
0.191778
0.230265
0.286916
0.372354
0.456465
0.363446
0.349131
0.326235
0.305925
0.287801
0.27154
0.256879
0.243599
0.23152
0.220491
0.210385
0.201093
0.192523
0.184597
0.177246
0.170412
0.164042
0.158093
0.152525
0.147302
0.142396
0.137777
0.133423
0.129311
0.125422
0.12174
0.118247
0.114931
0.111778
0.108777
0.105917
0.10319
0.100586
0.0980964
0.0957152
0.0934354
0.0912507
0.0891556
0.0871448
0.0852135
0.0833573
0.0815721
0.079854
0.0781996
0.0766056
0.0750688
0.0735864
0.0721558
0.0707744
0.06944
0.0681502
0.0669032
0.0656968
0.0645293
0.063399
0.0623042
0.0612433
0.0602148
0.0592174
0.0582496
0.0573102
0.0563978
0.0555113
0.0546495
0.0538111
0.0529952
0.0522007
0.0514266
0.0506721
0.0499365
0.0492194
0.0485208
0.0478413
0.0471825
0.0465475
0.0459416
0.0453739
0.0448587
0.0444182
0.0440857
0.0439102
0.0439613
0.044334
0.045154
0.0465808
0.0488087
0.052064
0.0565986
0.0626798
0.070575
0.0805385
0.0928061
0.107624
0.125355
0.146744
0.173476
0.209373
0.262384
0.343166
0.424711
0.353716
0.349131
0.326236
0.305926
0.287803
0.271543
0.256882
0.243603
0.231526
0.220498
0.210392
0.201102
0.192534
0.184609
0.17726
0.170427
0.164059
0.158112
0.152545
0.147324
0.142419
0.137803
0.13345
0.12934
0.125453
0.121772
0.118281
0.114967
0.111816
0.108817
0.105959
0.103233
0.10063
0.0981426
0.095763
0.0934847
0.0913015
0.0892078
0.0871984
0.0852685
0.0834136
0.0816297
0.0799129
0.0782597
0.0766669
0.0751312
0.07365
0.0722205
0.0708402
0.0695069
0.0682183
0.0669723
0.0657671
0.0646009
0.0634718
0.0623783
0.0613188
0.060292
0.0592963
0.0583304
0.0573932
0.0564832
0.0555995
0.0547409
0.0539062
0.0530945
0.0523048
0.0515363
0.0507882
0.05006
0.0493512
0.0486618
0.0479924
0.047344
0.046719
0.0461214
0.0455578
0.0450383
0.0445789
0.0442036
0.0439475
0.0438615
0.0440168
0.0445109
0.0454729
0.0470689
0.0495049
0.0530271
0.0579176
0.0644837
0.0730421
0.0839011
0.0973612
0.11378
0.133794
0.158864
0.192487
0.242208
0.318626
0.39745
0.345658
0.349132
0.326237
0.305928
0.287805
0.271546
0.256886
0.243608
0.231531
0.220504
0.2104
0.201111
0.192544
0.184621
0.177274
0.170442
0.164076
0.15813
0.152565
0.147346
0.142443
0.137828
0.133477
0.129369
0.125484
0.121805
0.118316
0.115003
0.111854
0.108856
0.106
0.103276
0.100675
0.0981889
0.0958109
0.0935341
0.0913525
0.0892602
0.0872523
0.0853238
0.0834703
0.0816877
0.0799722
0.0783203
0.0767286
0.0751942
0.0737141
0.0722858
0.0709067
0.0695745
0.0682871
0.0670424
0.0658384
0.0646734
0.0635456
0.0624536
0.0613957
0.0603705
0.0593766
0.0584128
0.0574778
0.0565705
0.0556896
0.0548343
0.0540034
0.0531961
0.0524115
0.0516488
0.0509073
0.0501867
0.0494865
0.0488069
0.0481483
0.0475117
0.0468991
0.0463135
0.0457602
0.045247
0.0447859