/*--------------------------------*- C++ -*----------------------------------*\
| =========                 |                                                 |
| \\      /  F ield         | OpenFOAM: The Open Source CFD Toolbox           |
|  \\    /   O peration     | Version:  4.1                                   |
|   \\  /    A nd           | Web:      www.OpenFOAM.org                      |
|    \\/     M anipulation  |                                                 |
\*---------------------------------------------------------------------------*/
FoamFile
{
    version     2.0;
    format      ascii;
    class       volScalarField;
    location    "0.5";
    object      p;
}
// * * * * * * * * * * * * * * * * * * * * * * * * * * * * * * * * * * * * * //

dimensions      [0 2 -2 0 0 0 0];

internalField   nonuniform List<scalar> 
43750
(
256.145
256.051
256.012
256.045
256.117
256.206
256.315
256.448
256.606
256.788
256.993
257.221
257.471
257.745
258.041
258.361
258.704
259.07
259.461
259.875
260.314
260.777
261.266
261.78
262.32
262.887
263.48
264.1
264.748
265.423
266.126
266.856
267.612
268.392
269.195
270.018
270.855
271.702
272.551
273.395
274.224
275.029
275.8
276.528
277.208
277.837
278.416
278.95
279.447
279.916
280.366
280.803
281.227
281.635
282.017
282.368
282.685
282.968
283.217
283.434
283.621
283.778
283.907
284.012
284.099
284.18
284.268
284.373
284.48
284.551
284.541
284.4
284.087
283.605
283.028
282.476
282
281.58
281.152
280.641
279.989
279.183
278.266
277.326
276.465
275.778
275.339
275.212
275.466
276.178
277.374
279.014
281.043
283.35
285.692
287.622
288.657
288.707
288.05
287.872
255.977
255.946
255.933
255.967
256.036
256.128
256.24
256.375
256.535
256.718
256.923
257.151
257.401
257.674
257.97
258.288
258.629
258.994
259.382
259.793
260.229
260.688
261.173
261.682
262.217
262.777
263.363
263.976
264.616
265.282
265.976
266.696
267.443
268.215
269.011
269.827
270.662
271.511
272.366
273.222
274.07
274.901
275.703
276.469
277.189
277.86
278.48
279.052
279.582
280.078
280.549
280.997
281.423
281.82
282.187
282.52
282.821
283.091
283.331
283.541
283.722
283.872
283.987
284.065
284.117
284.169
284.244
284.342
284.441
284.515
284.524
284.424
284.172
283.749
283.206
282.653
282.164
281.711
281.209
280.561
279.717
278.703
277.601
276.523
275.579
274.862
274.449
274.397
274.744
275.474
276.59
278.105
279.987
282.147
284.396
286.395
287.716
288.088
287.746
287.64
255.871
255.874
255.888
255.929
255.999
256.091
256.205
256.34
256.497
256.677
256.88
257.104
257.35
257.619
257.91
258.223
258.558
258.916
259.297
259.701
260.128
260.578
261.051
261.548
262.069
262.614
263.183
263.777
264.394
265.035
265.701
266.389
267.1
267.832
268.584
269.354
270.14
270.939
271.746
272.557
273.369
274.174
274.967
275.743
276.496
277.22
277.914
278.575
279.203
279.799
280.362
280.892
281.383
281.832
282.237
282.595
282.909
283.18
283.415
283.616
283.788
283.93
284.041
284.12
284.177
284.232
284.307
284.404
284.516
284.623
284.69
284.68
284.56
284.305
283.88
283.298
282.606
281.822
280.929
279.92
278.828
277.715
276.647
275.678
274.854
274.223
273.836
273.748
273.993
274.604
275.59
276.948
278.648
280.619
282.726
284.751
286.411
287.399
287.611
287.497
255.765
255.774
255.797
255.841
255.91
256.002
256.115
256.249
256.406
256.585
256.786
257.01
257.255
257.522
257.811
258.122
258.455
258.811
259.189
259.589
260.012
260.457
260.925
261.416
261.93
262.467
263.026
263.608
264.212
264.838
265.485
266.153
266.84
267.544
268.265
268.999
269.744
270.497
271.255
272.013
272.767
273.515
274.252
274.975
275.683
276.375
277.05
277.709
278.355
278.987
279.606
280.208
280.788
281.339
281.852
282.317
282.727
283.079
283.372
283.61
283.801
283.951
284.069
284.16
284.235
284.311
284.405
284.524
284.663
284.806
284.929
284.993
284.96
284.783
284.403
283.765
282.864
281.755
280.53
279.276
278.058
276.911
275.853
274.903
274.088
273.447
273.03
272.885
273.053
273.558
274.414
275.62
277.148
278.943
280.9
282.882
284.761
286.369
287.273
287.259
255.646
255.658
255.687
255.737
255.808
255.901
256.016
256.151
256.308
256.487
256.687
256.908
257.151
257.416
257.702
258.009
258.339
258.69
259.062
259.457
259.874
260.312
260.773
261.255
261.759
262.286
262.833
263.402
263.992
264.603
265.233
265.882
266.548
267.23
267.926
268.634
269.35
270.073
270.799
271.523
272.243
272.955
273.655
274.342
275.012
275.666
276.304
276.928
277.541
278.145
278.742
279.335
279.921
280.498
281.059
281.597
282.102
282.564
282.975
283.326
283.614
283.842
284.015
284.148
284.26
284.372
284.499
284.649
284.816
284.985
285.136
285.221
285.199
285.007
284.573
283.828
282.768
281.481
280.104
278.75
277.476
276.295
275.207
274.224
273.372
272.692
272.228
272.024
272.112
272.515
273.249
274.314
275.692
277.336
279.165
281.073
283.01
284.957
286.464
286.736
255.513
255.527
255.559
255.611
255.684
255.777
255.891
256.026
256.182
256.359
256.557
256.776
257.016
257.278
257.56
257.864
258.189
258.536
258.904
259.293
259.703
260.135
260.588
261.062
261.557
262.073
262.61
263.166
263.743
264.338
264.951
265.582
266.229
266.889
267.563
268.247
268.938
269.635
270.334
271.032
271.726
272.412
273.088
273.751
274.399
275.032
275.648
276.249
276.835
277.41
277.974
278.531
279.082
279.627
280.167
280.699
281.22
281.725
282.206
282.653
283.058
283.412
283.71
283.955
284.16
284.344
284.524
284.713
284.906
285.089
285.232
285.291
285.217
284.947
284.415
283.569
282.42
281.067
279.648
278.269
276.974
275.767
274.647
273.627
272.738
272.02
271.514
271.255
271.273
271.586
272.21
273.15
274.395
275.914
277.64
279.481
281.385
283.374
285.183
285.864
255.363
255.377
255.411
255.465
255.539
255.633
255.746
255.881
256.036
256.211
256.407
256.624
256.862
257.121
257.4
257.7
258.021
258.362
258.725
259.108
259.512
259.936
260.381
260.846
261.331
261.836
262.361
262.904
263.466
264.046
264.643
265.256
265.883
266.523
267.174
267.835
268.503
269.176
269.85
270.524
271.195
271.859
272.514
273.159
273.79
274.408
275.01
275.598
276.171
276.729
277.275
277.808
278.331
278.843
279.347
279.844
280.335
280.82
281.298
281.767
282.222
282.656
283.061
283.434
283.771
284.075
284.354
284.61
284.841
285.032
285.154
285.166
285.017
284.654
284.03
283.118
281.942
280.592
279.186
277.817
276.522
275.305
274.168
273.13
272.223
271.485
270.953
270.657
270.623
270.865
271.397
272.228
273.355
274.757
276.387
278.164
280.008
281.885
283.67
284.722
255.195
255.21
255.244
255.299
255.374
255.468
255.581
255.714
255.868
256.042
256.236
256.45
256.685
256.94
257.216
257.511
257.827
258.164
258.52
258.897
259.293
259.71
260.146
260.602
261.078
261.572
262.084
262.615
263.163
263.728
264.308
264.903
265.512
266.132
266.763
267.402
268.048
268.697
269.349
270.001
270.649
271.292
271.928
272.555
273.171
273.775
274.365
274.943
275.506
276.056
276.592
277.114
277.623
278.119
278.602
279.073
279.534
279.987
280.434
280.877
281.319
281.76
282.198
282.631
283.054
283.462
283.848
284.199
284.498
284.723
284.84
284.812
284.601
284.168
283.486
282.551
281.393
280.087
278.727
277.392
276.118
274.912
273.783
272.753
271.854
271.12
270.584
270.272
270.207
270.402
270.868
271.614
272.641
273.939
275.473
277.176
278.949
280.682
282.252
283.535
255.01
255.024
255.059
255.114
255.189
255.282
255.395
255.527
255.68
255.851
256.043
256.255
256.487
256.738
257.01
257.301
257.612
257.943
258.293
258.663
259.053
259.461
259.889
260.336
260.801
261.284
261.784
262.302
262.836
263.386
263.95
264.528
265.119
265.72
266.331
266.95
267.574
268.203
268.833
269.464
270.091
270.715
271.332
271.942
272.542
273.132
273.71
274.276
274.831
275.372
275.901
276.416
276.918
277.406
277.88
278.34
278.786
279.219
279.643
280.058
280.47
280.882
281.298
281.721
282.152
282.589
283.021
283.432
283.796
284.075
284.227
284.205
283.975
283.514
282.816
281.895
280.788
279.554
278.267
276.991
275.76
274.591
273.498
272.504
271.638
270.934
270.416
270.113
270.042
270.216
270.643
271.334
272.289
273.503
274.952
276.576
278.271
279.879
281.215
282.557
254.806
254.82
254.855
254.91
254.985
255.078
255.189
255.32
255.471
255.641
255.83
256.039
256.267
256.515
256.782
257.068
257.374
257.699
258.043
258.407
258.789
259.189
259.608
260.045
260.5
260.972
261.46
261.965
262.486
263.021
263.57
264.131
264.705
265.288
265.88
266.48
267.084
267.693
268.303
268.914
269.523
270.127
270.727
271.32
271.905
272.48
273.046
273.601
274.144
274.676
275.197
275.705
276.201
276.683
277.152
277.607
278.047
278.473
278.886
279.287
279.678
280.063
280.446
280.832
281.225
281.628
282.035
282.436
282.807
283.112
283.303
283.327
283.137
282.708
282.045
281.174
280.14
278.997
277.804
276.61
275.449
274.343
273.312
272.378
271.57
270.916
270.442
270.171
270.119
270.299
270.719
271.387
272.305
273.469
274.858
276.417
278.04
279.562
280.734
281.986
254.583
254.598
254.632
254.687
254.761
254.853
254.964
255.093
255.242
255.41
255.596
255.802
256.027
256.27
256.533
256.815
257.115
257.434
257.772
258.128
258.503
258.895
259.305
259.732
260.176
260.637
261.114
261.606
262.113
262.634
263.168
263.714
264.27
264.836
265.411
265.992
266.578
267.168
267.76
268.352
268.942
269.53
270.113
270.69
271.26
271.821
272.374
272.917
273.45
273.972
274.484
274.984
275.472
275.948
276.411
276.861
277.298
277.721
278.13
278.525
278.907
279.277
279.639
279.993
280.345
280.695
281.045
281.389
281.712
281.989
282.181
282.238
282.112
281.765
281.19
280.41
279.472
278.434
277.347
276.253
275.186
274.168
273.221
272.37
271.641
271.06
270.651
270.434
270.425
270.637
271.078
271.756
272.674
273.826
275.193
276.72
278.3
279.787
280.874
281.955
254.343
254.357
254.391
254.446
254.519
254.61
254.719
254.847
254.994
255.159
255.343
255.545
255.766
256.006
256.264
256.54
256.835
257.148
257.479
257.828
258.195
258.579
258.98
259.398
259.831
260.281
260.746
261.226
261.72
262.227
262.746
263.276
263.817
264.366
264.924
265.488
266.056
266.629
267.203
267.777
268.351
268.922
269.489
270.051
270.607
271.155
271.696
272.227
272.749
273.261
273.763
274.254
274.735
275.203
275.66
276.105
276.537
276.956
277.361
277.753
278.131
278.495
278.845
279.182
279.506
279.817
280.115
280.397
280.655
280.873
281.028
281.084
280.999
280.738
280.277
279.623
278.812
277.893
276.921
275.939
274.978
274.065
273.221
272.471
271.839
271.35
271.025
270.884
270.942
271.212
271.704
272.426
273.38
274.561
275.948
277.486
279.066
280.526
281.634
282.534
254.084
254.098
254.132
254.186
254.258
254.348
254.456
254.582
254.726
254.889
255.07
255.269
255.486
255.721
255.975
256.246
256.535
256.842
257.166
257.508
257.867
258.242
258.634
259.042
259.466
259.905
260.358
260.825
261.306
261.799
262.304
262.82
263.345
263.879
264.42
264.968
265.52
266.075
266.633
267.191
267.748
268.304
268.856
269.403
269.945
270.481
271.009
271.529
272.041
272.543
273.036
273.519
273.991
274.452
274.902
275.34
275.766
276.18
276.581
276.969
277.343
277.703
278.047
278.374
278.683
278.972
279.238
279.477
279.684
279.85
279.959
279.992
279.922
279.721
279.364
278.845
278.179
277.402
276.559
275.695
274.849
274.048
273.317
272.679
272.158
271.775
271.551
271.505
271.653
272.008
272.58
273.377
274.404
275.655
277.105
278.695
280.311
281.787
282.919
283.75
253.807
253.821
253.855
253.908
253.979
254.068
254.174
254.298
254.44
254.6
254.777
254.973
255.186
255.417
255.666
255.932
256.215
256.516
256.833
257.167
257.518
257.885
258.268
258.666
259.08
259.508
259.95
260.405
260.873
261.353
261.844
262.346
262.856
263.375
263.9
264.432
264.968
265.508
266.05
266.592
267.134
267.675
268.212
268.746
269.275
269.798
270.315
270.824
271.325
271.818
272.302
272.776
273.24
273.694
274.137
274.568
274.989
275.397
275.792
276.175
276.545
276.899
277.238
277.559
277.861
278.138
278.389
278.607
278.788
278.923
279.004
279.02
278.955
278.794
278.519
278.12
277.599
276.975
276.279
275.551
274.827
274.144
273.53
273.009
272.604
272.338
272.228
272.294
272.551
273.013
273.692
274.596
275.73
277.088
278.639
280.316
281.999
283.513
284.678
285.523
253.513
253.527
253.56
253.612
253.682
253.77
253.874
253.996
254.135
254.292
254.467
254.659
254.868
255.094
255.338
255.598
255.876
256.17
256.481
256.807
257.15
257.509
257.883
258.272
258.675
259.092
259.523
259.966
260.422
260.889
261.367
261.854
262.35
262.854
263.365
263.882
264.403
264.927
265.454
265.981
266.509
267.035
267.559
268.079
268.596
269.107
269.612
270.111
270.602
271.085
271.56
272.026
272.482
272.929
273.365
273.791
274.205
274.608
274.998
275.376
275.74
276.09
276.423
276.74
277.036
277.308
277.553
277.765
277.938
278.065
278.141
278.157
278.107
277.983
277.776
277.48
277.093
276.623
276.086
275.511
274.93
274.377
273.886
273.485
273.201
273.055
273.067
273.256
273.637
274.226
275.036
276.074
277.344
278.836
280.515
282.303
284.068
285.632
286.836
287.722
253.201
253.215
253.247
253.299
253.368
253.453
253.556
253.676
253.813
253.967
254.138
254.326
254.531
254.753
254.991
255.246
255.518
255.806
256.109
256.429
256.764
257.114
257.479
257.858
258.251
258.658
259.077
259.509
259.953
260.407
260.872
261.346
261.829
262.318
262.815
263.317
263.823
264.333
264.845
265.359
265.872
266.385
266.895
267.403
267.907
268.407
268.901
269.389
269.87
270.345
270.811
271.269
271.718
272.157
272.587
273.007
273.416
273.813
274.199
274.572
274.931
275.277
275.606
275.919
276.212
276.482
276.726
276.939
277.116
277.251
277.339
277.375
277.354
277.274
277.133
276.929
276.663
276.339
275.965
275.558
275.141
274.742
274.394
274.126
273.969
273.949
274.089
274.409
274.925
275.655
276.612
277.803
279.226
280.869
282.686
284.586
286.43
288.038
289.276
290.2
252.872
252.886
252.918
252.968
253.036
253.12
253.221
253.338
253.472
253.623
253.791
253.975
254.176
254.393
254.627
254.876
255.142
255.423
255.72
256.032
256.359
256.7
257.056
257.426
257.81
258.206
258.615
259.035
259.467
259.909
260.361
260.822
261.291
261.767
262.25
262.738
263.231
263.727
264.225
264.724
265.224
265.724
266.222
266.717
267.209
267.698
268.181
268.659
269.131
269.596
270.054
270.504
270.946
271.379
271.802
272.216
272.62
273.013
273.394
273.763
274.12
274.462
274.789
275.1
275.391
275.662
275.909
276.128
276.315
276.466
276.577
276.644
276.665
276.638
276.566
276.45
276.294
276.105
275.888
275.654
275.416
275.195
275.016
274.908
274.901
275.023
275.302
275.761
276.42
277.298
278.408
279.757
281.337
283.127
285.069
287.061
288.959
290.588
291.843
292.787
252.527
252.54
252.571
252.621
252.687
252.77
252.868
252.983
253.115
253.263
253.427
253.607
253.804
254.016
254.244
254.488
254.748
255.023
255.312
255.617
255.936
256.269
256.617
256.977
257.351
257.737
258.135
258.544
258.964
259.394
259.834
260.282
260.739
261.202
261.671
262.146
262.625
263.107
263.592
264.078
264.566
265.052
265.538
266.021
266.502
266.979
267.452
267.92
268.383
268.839
269.289
269.731
270.166
270.593
271.011
271.419
271.818
272.207
272.585
272.951
273.305
273.646
273.972
274.282
274.575
274.849
275.102
275.33
275.532
275.703
275.842
275.947
276.015
276.047
276.047
276.017
275.966
275.899
275.826
275.755
275.697
275.666
275.678
275.757
275.928
276.219
276.658
277.272
278.083
279.113
280.373
281.87
283.592
285.5
287.533
289.579
291.493
293.11
294.355
295.294
252.165
252.177
252.208
252.257
252.322
252.403
252.499
252.612
252.741
252.885
253.046
253.222
253.414
253.622
253.845
254.084
254.337
254.605
254.888
255.185
255.496
255.821
256.16
256.511
256.875
257.251
257.638
258.037
258.446
258.864
259.292
259.728
260.172
260.622
261.079
261.54
262.006
262.476
262.947
263.421
263.896
264.37
264.844
265.316
265.785
266.252
266.715
267.173
267.626
268.074
268.516
268.951
269.379
269.799
270.212
270.615
271.01
271.395
271.77
272.134
272.487
272.827
273.154
273.466
273.763
274.043
274.304
274.545
274.763
274.958
275.128
275.271
275.389
275.482
275.554
275.61
275.656
275.702
275.757
275.833
275.94
276.089
276.293
276.569
276.937
277.419
278.04
278.826
279.8
280.982
282.384
284.006
285.833
287.82
289.894
291.947
293.837
295.41
296.619
297.523
251.786
251.799
251.829
251.876
251.94
252.019
252.114
252.224
252.35
252.491
252.648
252.821
253.009
253.211
253.429
253.662
253.909
254.171
254.447
254.737
255.04
255.357
255.687
256.029
256.383
256.749
257.126
257.514
257.912
258.319
258.735
259.159
259.59
260.029
260.472
260.922
261.375
261.832
262.291
262.752
263.215
263.677
264.139
264.6
265.059
265.515
265.968
266.417
266.861
267.301
267.735
268.162
268.584
268.998
269.405
269.804
270.195
270.577
270.949
271.312
271.664
272.005
272.334
272.65
272.952
273.24
273.512
273.767
274.005
274.225
274.426
274.61
274.777
274.93
275.072
275.209
275.347
275.497
275.668
275.872
276.121
276.427
276.804
277.263
277.82
278.493
279.3
280.262
281.399
282.726
284.252
285.973
287.867
289.886
291.956
293.97
295.799
297.308
298.464
299.311
251.392
251.404
251.434
251.48
251.543
251.62
251.712
251.82
251.943
252.081
252.235
252.403
252.587
252.785
252.997
253.224
253.465
253.721
253.99
254.272
254.568
254.876
255.198
255.531
255.876
256.232
256.599
256.976
257.363
257.759
258.164
258.576
258.996
259.422
259.853
260.29
260.731
261.176
261.623
262.072
262.523
262.974
263.425
263.874
264.323
264.769
265.212
265.652
266.087
266.518
266.945
267.365
267.78
268.189
268.591
268.985
269.372
269.751
270.122
270.484
270.836
271.179
271.511
271.832
272.141
272.438
272.723
272.994
273.253
273.499
273.732
273.955
274.17
274.379
274.587
274.799
275.024
275.269
275.544
275.861
276.232
276.671
277.189
277.801
278.518
279.355
280.325
281.443
282.721
284.17
285.792
287.579
289.504
291.519
293.549
295.497
297.246
298.678
299.771
300.558
250.982
250.994
251.023
251.069
251.129
251.205
251.295
251.401
251.521
251.656
251.806
251.97
252.149
252.342
252.549
252.771
253.006
253.255
253.517
253.792
254.08
254.38
254.693
255.017
255.353
255.7
256.057
256.423
256.8
257.185
257.578
257.979
258.387
258.802
259.222
259.646
260.076
260.508
260.944
261.381
261.82
262.26
262.7
263.139
263.577
264.013
264.446
264.877
265.304
265.727
266.146
266.56
266.968
267.371
267.768
268.158
268.542
268.919
269.288
269.649
270.002
270.347
270.682
271.009
271.326
271.634
271.932
272.221
272.501
272.773
273.038
273.299
273.558
273.82
274.089
274.371
274.673
275.004
275.372
275.789
276.266
276.815
277.449
278.18
279.02
279.981
281.073
282.306
283.686
285.217
286.897
288.711
290.631
292.61
294.579
296.448
298.112
299.464
300.493
301.237
250.558
250.569
250.597
250.642
250.701
250.775
250.863
250.966
251.083
251.215
251.361
251.521
251.696
251.884
252.086
252.302
252.531
252.773
253.029
253.297
253.577
253.87
254.174
254.489
254.816
255.153
255.5
255.857
256.223
256.597
256.979
257.369
257.766
258.169
258.577
258.99
259.408
259.829
260.253
260.679
261.107
261.535
261.964
262.393
262.821
263.247
263.671
264.093
264.511
264.927
265.338
265.745
266.147
266.544
266.936
267.323
267.703
268.077
268.445
268.806
269.16
269.507
269.847
270.18
270.506
270.824
271.136
271.443
271.744
272.041
272.337
272.634
272.935
273.245
273.569
273.913
274.284
274.691
275.141
275.645
276.213
276.855
277.583
278.408
279.34
280.387
281.56
282.862
284.298
285.865
287.557
289.357
291.236
293.15
295.037
296.816
298.392
299.67
300.635
301.35
250.118
250.129
250.157
250.2
250.258
250.33
250.416
250.516
250.631
250.759
250.901
251.058
251.228
251.411
251.608
251.818
252.041
252.277
252.526
252.787
253.059
253.344
253.64
253.947
254.264
254.592
254.929
255.276
255.632
255.996
256.368
256.746
257.132
257.524
257.921
258.323
258.729
259.138
259.551
259.966
260.383
260.8
261.219
261.637
262.055
262.471
262.886
263.299
263.709
264.116
264.52
264.921
265.317
265.708
266.096
266.478
266.855
267.227
267.593
267.954
268.309
268.659
269.004
269.342
269.676
270.006
270.332
270.655
270.976
271.298
271.623
271.953
272.293
272.647
273.02
273.418
273.85
274.321
274.841
275.419
276.063
276.783
277.588
278.486
279.485
280.593
281.814
283.15
284.603
286.166
287.831
289.579
291.384
293.206
294.99
296.665
298.149
299.352
300.254
300.934
249.664
249.675
249.702
249.744
249.801
249.871
249.954
250.052
250.164
250.289
250.427
250.58
250.745
250.924
251.116
251.32
251.537
251.767
252.009
252.262
252.528
252.804
253.092
253.39
253.699
254.017
254.345
254.682
255.028
255.382
255.743
256.111
256.486
256.866
257.252
257.643
258.038
258.436
258.838
259.242
259.648
260.055
260.463
260.871
261.279
261.686
262.091
262.495
262.897
263.296
263.693
264.086
264.476
264.862
265.245
265.623
265.997
266.366
266.731
267.092
267.448
267.801
268.149
268.494
268.836
269.176
269.514
269.853
270.194
270.538
270.889
271.25
271.624
272.017
272.433
272.879
273.362
273.888
274.466
275.104
275.81
276.591
277.457
278.411
279.46
280.608
281.856
283.204
284.647
286.18
287.79
289.461
291.167
292.875
294.538
296.097
297.478
298.602
299.438
300.077
249.196
249.207
249.233
249.274
249.329
249.397
249.479
249.574
249.682
249.804
249.939
250.088
250.249
250.422
250.609
250.808
251.019
251.242
251.478
251.724
251.982
252.251
252.531
252.82
253.12
253.43
253.748
254.076
254.411
254.755
255.106
255.463
255.827
256.197
256.572
256.952
257.336
257.723
258.114
258.507
258.902
259.299
259.696
260.094
260.492
260.89
261.286
261.681
262.075
262.466
262.855
263.242
263.625
264.006
264.383
264.757
265.127
265.494
265.858
266.218
266.575
266.93
267.282
267.632
267.981
268.33
268.681
269.034
269.392
269.757
270.131
270.519
270.924
271.35
271.803
272.289
272.814
273.385
274.01
274.695
275.449
276.277
277.187
278.182
279.265
280.438
281.698
283.042
284.462
285.95
287.492
289.071
290.666
292.247
293.778
295.209
296.479
297.516
298.283
298.876
248.714
248.725
248.75
248.79
248.844
248.91
248.99
249.082
249.188
249.306
249.438
249.582
249.738
249.907
250.089
250.282
250.488
250.705
250.933
251.173
251.423
251.684
251.956
252.238
252.529
252.829
253.139
253.456
253.782
254.116
254.456
254.804
255.157
255.516
255.881
256.25
256.623
257
257.379
257.762
258.146
258.533
258.92
259.308
259.696
260.084
260.471
260.857
261.242
261.626
262.007
262.387
262.764
263.138
263.51
263.88
264.246
264.61
264.972
265.331
265.689
266.045
266.4
266.755
267.11
267.468
267.828
268.194
268.567
268.949
269.344
269.755
270.185
270.64
271.124
271.642
272.202
272.809
273.469
274.191
274.979
275.84
276.779
277.799
278.901
280.084
281.344
282.674
284.064
285.501
286.97
288.455
289.936
291.388
292.783
294.082
295.234
296.178
296.872
297.416
248.219
248.229
248.254
248.293
248.345
248.41
248.487
248.577
248.68
248.795
248.923
249.063
249.215
249.379
249.555
249.743
249.943
250.154
250.375
250.608
250.851
251.105
251.369
251.642
251.925
252.216
252.516
252.825
253.141
253.465
253.795
254.132
254.475
254.824
255.178
255.536
255.899
256.265
256.634
257.006
257.38
257.756
258.133
258.511
258.889
259.267
259.645
260.023
260.399
260.775
261.148
261.521
261.891
262.259
262.626
262.99
263.353
263.714
264.073
264.431
264.788
265.145
265.502
265.86
266.22
266.585
266.954
267.33
267.715
268.112
268.523
268.953
269.404
269.882
270.39
270.935
271.521
272.154
272.841
273.588
274.399
275.279
276.234
277.265
278.372
279.552
280.8
282.107
283.46
284.845
286.243
287.637
289.008
290.337
291.6
292.767
293.799
294.648
295.268
295.76
247.711
247.721
247.745
247.783
247.833
247.896
247.971
248.059
248.159
248.271
248.395
248.531
248.678
248.838
249.009
249.192
249.385
249.59
249.805
250.031
250.267
250.513
250.769
251.034
251.308
251.591
251.882
252.181
252.488
252.802
253.123
253.45
253.783
254.121
254.464
254.812
255.164
255.519
255.878
256.239
256.603
256.968
257.335
257.703
258.072
258.441
258.809
259.178
259.546
259.913
260.278
260.643
261.007
261.368
261.729
262.088
262.446
262.803
263.159
263.515
263.871
264.227
264.585
264.946
265.31
265.679
266.054
266.439
266.833
267.242
267.666
268.11
268.577
269.072
269.599
270.162
270.767
271.419
272.123
272.884
273.708
274.597
275.555
276.584
277.683
278.848
280.073
281.348
282.659
283.989
285.319
286.629
287.9
289.114
290.253
291.296
292.213
292.967
293.513
293.955
247.19
247.2
247.223
247.26
247.309
247.37
247.443
247.528
247.625
247.734
247.854
247.986
248.13
248.284
248.451
248.628
248.815
249.014
249.223
249.442
249.671
249.909
250.157
250.414
250.68
250.954
251.237
251.527
251.824
252.128
252.439
252.756
253.079
253.407
253.74
254.077
254.419
254.764
255.112
255.463
255.816
256.171
256.528
256.886
257.244
257.603
257.963
258.322
258.681
259.039
259.397
259.754
260.11
260.465
260.819
261.173
261.525
261.878
262.23
262.583
262.936
263.291
263.649
264.01
264.376
264.748
265.128
265.518
265.919
266.335
266.769
267.223
267.701
268.208
268.746
269.321
269.938
270.6
271.313
272.08
272.906
273.794
274.745
275.761
276.84
277.979
279.171
280.406
281.668
282.941
284.204
285.435
286.615
287.727
288.755
289.684
290.492
291.155
291.631
292.026
246.657
246.667
246.689
246.725
246.773
246.832
246.903
246.985
247.079
247.185
247.301
247.429
247.569
247.719
247.88
248.051
248.234
248.426
248.628
248.841
249.063
249.294
249.534
249.783
250.041
250.306
250.58
250.861
251.149
251.443
251.745
252.052
252.364
252.682
253.005
253.332
253.663
253.997
254.335
254.676
255.018
255.363
255.71
256.057
256.406
256.756
257.105
257.455
257.805
258.155
258.504
258.853
259.201
259.549
259.896
260.243
260.59
260.937
261.285
261.633
261.983
262.336
262.692
263.052
263.418
263.791
264.173
264.565
264.97
265.391
265.829
266.289
266.773
267.286
267.83
268.411
269.032
269.697
270.41
271.174
271.994
272.871
273.806
274.799
275.85
276.953
278.103
279.288
280.496
281.708
282.903
284.06
285.157
286.177
287.106
287.934
288.643
289.222
289.633
289.982
246.113
246.122
246.144
246.178
246.225
246.282
246.351
246.43
246.521
246.624
246.737
246.861
246.996
247.141
247.297
247.464
247.64
247.826
248.023
248.228
248.443
248.667
248.9
249.141
249.39
249.647
249.912
250.184
250.463
250.748
251.039
251.337
251.64
251.947
252.26
252.577
252.897
253.221
253.549
253.879
254.211
254.545
254.882
255.219
255.558
255.897
256.237
256.578
256.918
257.259
257.599
257.939
258.279
258.619
258.959
259.299
259.639
259.98
260.322
260.666
261.011
261.36
261.713
262.07
262.434
262.806
263.187
263.579
263.984
264.406
264.845
265.306
265.792
266.305
266.85
267.429
268.047
268.707
269.413
270.167
270.971
271.829
272.739
273.702
274.715
275.775
276.874
278.003
279.149
280.295
281.422
282.506
283.526
284.463
285.304
286.041
286.663
287.165
287.516
287.825
245.556
245.565
245.586
245.62
245.665
245.72
245.787
245.864
245.952
246.051
246.161
246.281
246.412
246.553
246.704
246.865
247.035
247.216
247.406
247.605
247.812
248.029
248.254
248.487
248.729
248.977
249.233
249.496
249.766
250.042
250.324
250.612
250.905
251.202
251.505
251.811
252.121
252.435
252.752
253.072
253.393
253.717
254.043
254.371
254.699
255.028
255.358
255.689
256.02
256.351
256.682
257.013
257.345
257.676
258.008
258.34
258.673
259.007
259.342
259.679
260.019
260.363
260.71
261.063
261.423
261.791
262.169
262.558
262.96
263.379
263.816
264.273
264.755
265.264
265.803
266.375
266.983
267.632
268.322
269.058
269.84
270.67
271.548
272.472
273.44
274.449
275.49
276.556
277.635
278.71
279.764
280.774
281.72
282.58
283.342
283.999
284.542
284.975
285.272
285.545
244.989
244.998
245.018
245.05
245.094
245.148
245.212
245.287
245.372
245.468
245.574
245.69
245.817
245.953
246.099
246.255
246.42
246.594
246.778
246.97
247.171
247.381
247.598
247.824
248.057
248.297
248.545
248.799
249.06
249.326
249.599
249.877
250.16
250.448
250.74
251.036
251.336
251.639
251.946
252.255
252.566
252.88
253.195
253.512
253.83
254.149
254.469
254.789
255.11
255.431
255.753
256.075
256.397
256.719
257.042
257.366
257.69
258.016
258.344
258.673
259.006
259.343
259.684
260.03
260.384
260.746
261.117
261.5
261.897
262.309
262.739
263.189
263.662
264.161
264.689
265.248
265.84
266.47
267.139
267.848
268.6
269.395
270.233
271.111
272.027
272.977
273.955
274.951
275.956
276.956
277.932
278.866
279.737
280.524
281.212
281.795
282.267
282.638
282.887
283.128
244.411
244.419
244.439
244.47
244.512
244.564
244.626
244.699
244.781
244.874
244.976
245.089
245.211
245.343
245.484
245.634
245.794
245.963
246.14
246.326
246.52
246.722
246.932
247.15
247.375
247.607
247.846
248.092
248.343
248.601
248.864
249.132
249.405
249.683
249.965
250.251
250.541
250.834
251.13
251.428
251.729
252.032
252.337
252.643
252.95
253.259
253.568
253.878
254.189
254.5
254.812
255.124
255.436
255.749
256.062
256.376
256.691
257.008
257.327
257.648
257.972
258.3
258.633
258.971
259.316
259.669
260.032
260.406
260.793
261.196
261.615
262.053
262.513
262.997
263.508
264.047
264.618
265.223
265.863
266.54
267.254
268.007
268.796
269.621
270.479
271.364
272.271
273.191
274.117
275.034
275.928
276.781
277.573
278.286
278.903
279.417
279.824
280.138
280.341
280.553
243.822
243.83
243.849
243.879
243.92
243.97
244.03
244.1
244.18
244.269
244.369
244.477
244.595
244.722
244.859
245.004
245.158
245.321
245.492
245.671
245.858
246.054
246.256
246.466
246.684
246.907
247.138
247.375
247.617
247.866
248.119
248.378
248.642
248.91
249.182
249.457
249.737
250.019
250.305
250.592
250.883
251.175
251.469
251.764
252.061
252.359
252.657
252.957
253.257
253.557
253.858
254.159
254.461
254.764
255.067
255.371
255.676
255.983
256.291
256.602
256.916
257.234
257.556
257.884
258.219
258.561
258.913
259.275
259.65
260.038
260.443
260.865
261.307
261.772
262.26
262.775
263.318
263.891
264.496
265.133
265.803
266.506
267.241
268.005
268.796
269.609
270.438
271.277
272.116
272.944
273.749
274.514
275.223
275.858
276.402
276.849
277.192
277.451
277.612
277.797
243.223
243.231
243.249
243.279
243.318
243.366
243.424
243.492
243.569
243.655
243.751
243.855
243.969
244.092
244.223
244.364
244.512
244.669
244.834
245.007
245.188
245.376
245.571
245.773
245.983
246.198
246.421
246.649
246.882
247.122
247.366
247.615
247.869
248.127
248.389
248.654
248.923
249.195
249.47
249.747
250.027
250.308
250.591
250.876
251.161
251.448
251.736
252.024
252.313
252.602
252.892
253.183
253.473
253.765
254.057
254.35
254.644
254.939
255.236
255.536
255.839
256.145
256.455
256.771
257.093
257.422
257.759
258.107
258.465
258.837
259.223
259.625
260.045
260.485
260.947
261.432
261.941
262.477
263.04
263.631
264.249
264.895
265.568
266.264
266.981
267.715
268.459
269.208
269.952
270.684
271.391
272.061
272.679
273.229
273.695