/*--------------------------------*- C++ -*----------------------------------*\
| =========                 |                                                 |
| \\      /  F ield         | OpenFOAM: The Open Source CFD Toolbox           |
|  \\    /   O peration     | Version:  4.1                                   |
|   \\  /    A nd           | Web:      www.OpenFOAM.org                      |
|    \\/     M anipulation  |                                                 |
\*---------------------------------------------------------------------------*/
FoamFile
{
    version     2.0;
    format      ascii;
    class       surfaceScalarField;
    location    "0.5";
    object      phi;
}
// * * * * * * * * * * * * * * * * * * * * * * * * * * * * * * * * * * * * * //

dimensions      [0 3 -1 0 0 0 0];

internalField   nonuniform List<scalar> 
87025
(
0.0199627
3.73344e-05
0.0199024
6.02746e-05
0.0198289
7.35045e-05
0.0197439
8.50291e-05
0.0196479
9.59375e-05
0.0195418
0.000106124
0.0194261
0.000115701
0.0193012
0.000124941
0.0191671
0.000134045
0.019024
0.000143107
0.0188718
0.000152177
0.0187105
0.000161307
0.01854
0.000170554
0.01836
0.00017997
0.0181704
0.000189606
0.0179709
0.000199511
0.0177611
0.000209738
0.0175408
0.000220344
0.0173094
0.00023139
0.0170665
0.000242944
0.0168114
0.000255078
0.0165435
0.000267875
0.0162621
0.000281426
0.0159663
0.000295831
0.015655
0.000311202
0.0153274
0.000327663
0.014982
0.000345349
0.0146176
0.000364402
0.0142327
0.000384975
0.0138254
0.000407222
0.0133941
0.00043129
0.0129368
0.000457308
0.0124515
0.000485367
0.011936
0.000515496
0.0113883
0.000547632
0.0108068
0.000581583
0.0101898
0.000616973
0.00953659
0.000653195
0.00884724
0.000689357
0.00812299
0.000724246
0.00736669
0.000756302
0.00658306
0.000783634
0.00577897
0.000804086
0.0049636
0.000815365
0.00414837
0.000815236
0.00334658
0.00080179
0.00257281
0.000773766
0.00184191
0.000730903
0.00116763
0.000674275
0.000561138
0.000606495
2.94023e-05
0.000531736
-0.00042714
0.000456543
-0.000814322
0.000387181
-0.00114248
0.000328163
-0.00142424
0.000281756
-0.00167023
0.000245985
-0.00188752
0.000217299
-0.00208061
0.000193088
-0.00225297
0.000172356
-0.0024076
0.000154634
-0.00254795
0.000140348
-0.00268131
0.000133359
-0.00281652
0.000135211
-0.00295284
0.000136316
-0.00306803
0.000115193
-0.00311876
5.07327e-05
-0.00306419
-5.45703e-05
-0.00290358
-0.000160615
-0.00264372
-0.000259858
-0.00229446
-0.00034926
-0.00187218
-0.000422281
-0.0014041
-0.000468073
-0.000939308
-0.000464796
-0.000566805
-0.000372502
-0.000394024
-0.000172781
-0.000522206
0.000128182
-0.000985594
0.000463388
-0.00175528
0.000769687
-0.00278649
0.00103121
-0.0040011
0.00121461
-0.00530101
0.00129991
-0.00658928
0.00128827
-0.00778255
0.00119327
-0.00881951
0.00103695
-0.00966134
0.000841831
-0.0102849
0.000623578
-0.0106758
0.000390903
-0.0108245
0.00014872
-0.0107433
-8.11993e-05
-0.0104579
-0.000285429
-0.00995943
-0.000498484
-0.00922692
-0.000732503
-0.00823399
-0.000992938
-0.00695529
-0.00127869
-0.00538054
-0.00157476
-0.00354966
-0.00183088
-0.00164082
-0.00190884
-8.77979e-05
-0.00155302
0.00058635
-0.000674148
0.00058635
0.0200268
1.05629e-05
0.0200566
3.04209e-05
0.0200856
4.45284e-05
0.0201138
5.68389e-05
0.0201406
6.90909e-05
0.0201655
8.12592e-05
0.020188
9.32273e-05
0.0202078
0.000105146
0.0202246
0.000117202
0.0202382
0.000129499
0.0202483
0.000142094
0.0202546
0.000155038
0.0202567
0.000168394
0.0202545
0.000182223
0.0202475
0.000196591
0.0202354
0.000211563
0.020218
0.000227214
0.0201947
0.000243627
0.0201652
0.000260896
0.020129
0.000279127
0.0200856
0.000298443
0.0200345
0.000318983
0.019975
0.000340906
0.0199065
0.000364396
0.019828
0.000389666
0.0197387
0.000416958
0.0196375
0.000446553
0.0195232
0.000478767
0.0193942
0.000513959
0.0192489
0.000552529
0.0190852
0.000594916
0.018901
0.000641595
0.0186933
0.000693054
0.018459
0.000749779
0.0181944
0.000812213
0.0178953
0.000880706
0.0175568
0.000955438
0.0171737
0.00103633
0.0167401
0.00112291
0.0162501
0.00121424
0.0156977
0.00130871
0.0150773
0.00140402
0.0143844
0.00149706
0.0136158
0.00158396
0.0127708
0.00166025
0.0118515
0.00172109
0.0108635
0.0017617
0.00981659
0.00177784
0.00872455
0.00176631
0.00760563
0.00172542
0.00648181
0.00165555
0.00537902
0.00155934
0.00432495
0.00144125
0.00334518
0.00130794
0.00245915
0.00116778
0.00167572
0.00102942
0.000992469
0.000900553
0.000399094
0.000786463
-0.000117703
0.000689152
-0.000570756
0.000607687
-0.000970439
0.000540031
-0.00132321
0.000486135
-0.00163136
0.000443358
-0.00189402
0.000398979
-0.00210968
0.000330844
-0.00228277
0.000223824
-0.00242357
8.62352e-05
-0.00252154
-6.26522e-05
-0.00256919
-0.000212205
-0.00258038
-0.000338069
-0.00258289
-0.000419776
-0.00261816
-0.000432795
-0.00273175
-0.00035121
-0.00298354
-0.00012071
-0.00341106
0.00025474
-0.00404229
0.00075941
-0.00489144
0.00131254
-0.00591757
0.00179581
-0.00700794
0.00212158
-0.0080412
0.00224788
-0.00892624
0.00218495
-0.00961608
0.00197812
-0.0101074
0.00168461
-0.0104252
0.00135477
-0.0106063
0.0010229
-0.0106892
0.000706447
-0.0107049
0.000406668
-0.0106729
0.000116678
-0.010569
-0.000185139
-0.0103437
-0.000510631
-0.00996511
-0.00087712
-0.00940882
-0.00128879
-0.00864988
-0.00175188
-0.00766097
-0.00226761
-0.006417
-0.00281873
-0.00491445
-0.00333343
-0.00320717
-0.00361612
-0.00147134
-0.00328885
-0.00022808
-0.00191741
0.00035827
0.02
1.05695e-05
0.0199983
3.20816e-05
0.0199922
5.0631e-05
0.0199818
6.72796e-05
0.0199675
8.3413e-05
0.0199494
9.93545e-05
0.0199276
0.000115047
0.0199021
0.000130564
0.0198733
0.000146068
0.0198411
0.000161679
0.0198057
0.000177465
0.0197673
0.000193481
0.0197259
0.000209788
0.0196817
0.000226453
0.0196347
0.000243539
0.0195851
0.000261117
0.0195331
0.000279261
0.0194787
0.000298055
0.019422
0.000317594
0.0193631
0.000337982
0.0193022
0.000359342
0.0192394
0.000381813
0.0191747
0.000405553
0.0191084
0.000430748
0.0190404
0.000457611
0.018971
0.000486387
0.0189002
0.000517365
0.0188281
0.000550875
0.0187548
0.000587298
0.0186802
0.000627076
0.0186044
0.00067071
0.0185272
0.000718772
0.0184484
0.000771901
0.0183674
0.000830801
0.0182834
0.000896233
0.0181951
0.000968991
0.0181006
0.00104986
0.0179974
0.00113958
0.0178816
0.00123872
0.0177482
0.0013476
0.0175908
0.00146613
0.0174011
0.00159367
0.0171694
0.0017288
0.0168842
0.0018692
0.0165328
0.00201158
0.0161023
0.00215164
0.0155798
0.00228418
0.0149543
0.00240338
0.0142175
0.0025031
0.0133656
0.0025773
0.0124007
0.00262047
0.0113321
0.00262792
0.0101772
0.00259615
0.00896172
0.00252341
0.00771908
0.00241043
0.00648745
0.00226104
0.00530529
0.00208271
0.00420558
0.00188618
0.00321055
0.00168419
0.00232924
0.001489
0.00155892
0.00131035
0.000891227
0.00115382
0.000316048
0.00101854
-0.000180038
0.000895064
-0.000615005
0.000765812
-0.00100656
0.000615383
-0.00136211
0.000441784
-0.00167994
0.000255176
-0.00196664
7.44936e-05
-0.00224052
-6.41882e-05
-0.00253252
-0.000127775
-0.00289652
-6.8791e-05
-0.00337404
0.000126306
-0.00397681
0.000482064
-0.0047049
0.000982822
-0.00551535
0.00156987
-0.00633527
0.00213246
-0.00708683
0.00254737
-0.0077055
0.00274025
-0.00816654
0.00270892
-0.00848918
0.00250758
-0.00872108
0.00221002
-0.00891328
0.00187681
-0.0090995
0.00154099
-0.00928752
0.00121092
-0.00946175
0.000880678
-0.00959397
0.000538885
-0.00965015
0.000172856
-0.00960806
-0.000227225
-0.00945012
-0.000668572
-0.00916939
-0.00115785
-0.0087578
-0.00170038
-0.00820681
-0.00230287
-0.0075045
-0.00296992
-0.00662904
-0.00369418
-0.00553937
-0.00442309
-0.00417581
-0.00497968
-0.00253654
-0.00492812
-0.000919256
-0.00353469
-0.000560986
0.0199988
1.18068e-05
0.0199954
3.54637e-05
0.0199882
5.78567e-05
0.0199765
7.89808e-05
0.0199604
9.9514e-05
0.0199399
0.000119834
0.0199149
0.000139989
0.0198855
0.000160018
0.0198515
0.000180032
0.019813
0.000200143
0.0197701
0.000220427
0.0197226
0.000240946
0.0196707
0.000261759
0.0196142
0.00028293
0.0195532
0.000304524
0.0194877
0.000326607
0.0194177
0.00034925
0.0193432
0.000372529
0.0192643
0.00039653
0.0191809
0.000421347
0.0190932
0.000447084
0.0190011
0.000473862
0.0189049
0.000501815
0.0188045
0.000531095
0.0187003
0.000561876
0.0185923
0.000594357
0.0184809
0.000628765
0.0183664
0.000665356
0.0182493
0.000704425
0.0181301
0.000746302
0.0180094
0.000791366
0.0178881
0.000840038
0.0177673
0.000892793
0.0176479
0.000950155
0.0175314
0.00101271
0.0174193
0.00108107
0.0173133
0.00115594
0.0172148
0.00123802
0.0171255
0.00132805
0.0170463
0.00142676
0.0169776
0.00153483
0.0169185
0.00165281
0.0168662
0.00178106
0.0168158
0.00191959
0.0167595
0.00206796
0.0166861
0.00222505
0.0165813
0.00238896
0.0164278
0.00255685
0.0162061
0.00272481
0.0158955
0.00288787
0.015476
0.00303998
0.0149299
0.00317407
0.0142438
0.00328218
0.0134115
0.00335579
0.0124354
0.00338643
0.0113297
0.00336678
0.0101205
0.00329197
0.00884549
0.00316114
0.00755109
0.00297859
0.00628593
0.00275416
0.00509377
0.00250251
0.00400689
0.0022407
0.00304158
0.00198386
0.00219638
0.00174027
0.00145393
0.00150825
0.000789598
0.00127972
0.000183388
0.00104799
-0.0003756
0.000814165
-0.000894387
0.000593281
-0.00138147
0.000422895
-0.00186372
0.000354477
-0.00237661
0.000444096
-0.00296629
0.000715986
-0.00364065
0.00115642
-0.00436541
0.00170758
-0.00507109
0.00227554
-0.00568295
0.00274432
-0.00615369
0.0030181
-0.00648215
0.00306872
-0.00671123
0.002938
-0.00690308
0.00269943
-0.00710798
0.00241492
-0.00734588
0.0021147
-0.0076068
0.00180191
-0.00786325
0.00146737
-0.00808399
0.00110142
-0.00824323
0.000698127
-0.00832383
0.000253462
-0.00831527
-0.000235792
-0.00821054
-0.0007733
-0.00800384
-0.00136455
-0.00769172
-0.0020125
-0.00727571
-0.00271888
-0.00676236
-0.00348327
-0.0061552
-0.00430134
-0.00542845
-0.00514984
-0.00448359
-0.00592454
-0.00314703
-0.00626469
-0.00138736
-0.00529436
-0.00194835
0.0199985
1.33113e-05
0.019994
3.99164e-05
0.019986
6.5948e-05
0.0199737
9.12228e-05
0.0199572
0.000115982
0.0199366
0.000140505
0.0199117
0.000164905
0.0198824
0.000189234
0.0198489
0.000213574
0.019811
0.000238026
0.0197688
0.000262676
0.0197221
0.000287593
0.019671
0.000312844
0.0196155
0.000338499
0.0195554
0.000364628
0.0194907
0.000391305
0.0194213
0.000418606
0.0193472
0.000446613
0.0192683
0.000475415
0.0191846
0.00050511
0.0190959
0.000535804
0.0190021
0.000567616
0.0189032
0.000600676
0.0187992
0.00063513
0.0186899
0.000671138
0.0185754
0.000708882
0.0184556
0.00074856
0.0183306
0.000790391
0.0182004
0.000834618
0.0180652
0.000881506
0.0179252
0.000931341
0.0177808
0.000984433
0.0176325
0.00104111
0.0174809
0.00110172
0.017327
0.00116661
0.017172
0.00123615
0.0170172
0.0013107
0.0168646
0.00139062
0.0167164
0.00147625
0.0165752
0.00156795
0.016444
0.00166606
0.0163259
0.00177094
0.0162239
0.00188299
0.0161409
0.00200265
0.0160784
0.00213046
0.0160365
0.00226697
0.0160127
0.00241275
0.0160013
0.00256824
0.0159926
0.00273351
0.0159724
0.00290801
0.0159223
0.00309016
0.0158194
0.00327692
0.0156382
0.00346335
0.0153517
0.00364229
0.0149339
0.00380431
0.0143626
0.00393801
0.0136238
0.0040308
0.0127147
0.00407021
0.0116476
0.00404568
0.0104512
0.00395061
0.00916935
0.00378435
0.00785664
0.00355341
0.00656937
0.00327113
0.0053543
0.00295534
0.00423852
0.00262403
0.00322683
0.00229141
0.00230827
0.00196655
0.0014666
0.00165583
0.000689314
0.00137057
-2.74335e-05
0.00113964
-0.00068813
0.00101517
-0.00130405
0.00106001
-0.0019025
0.00131444
-0.00250307
0.001757
-0.0030947
0.00229921
-0.0036364
0.00281724
-0.00408589
0.00319382
-0.00442984
0.00336205
-0.00469359
0.00333247
-0.00492535
0.00316975
-0.00516859
0.00294267
-0.0054424
0.00268873
-0.00573959
0.00241189
-0.00603766
0.00209998
-0.00631178
0.00174149
-0.00654247
0.00133211
-0.0067169
0.000872552
-0.0068268
0.000363367
-0.00686499
-0.000197611
-0.00682521
-0.00081308
-0.00670047
-0.00148929
-0.00648463
-0.00222834
-0.00617554
-0.00302797
-0.00578012
-0.00387868
-0.00531706
-0.0047644
-0.00480113
-0.00566577
-0.00418153
-0.00654415
-0.00323766
-0.00720856
-0.00166195
-0.00687007
-0.0036103
0.0199983
1.49921e-05
0.0199933
4.49485e-05
0.0199846
7.45893e-05
0.0199721
0.00010378
0.0199555
0.000132595
0.0199348
0.000161208
0.0199099
0.000189737
0.0198809
0.000218247
0.0198477
0.00024681
0.0198102
0.000275509
0.0197685
0.000304428
0.0197224
0.000333642
0.019672
0.00036322
0.0196173
0.000393234
0.0195582
0.000423759
0.0194946
0.000454873
0.0194265
0.000486657
0.019354
0.000519199
0.0192768
0.000552591
0.019195
0.000586936
0.0191084
0.000622344
0.0190171
0.000658937
0.0189209
0.000696848
0.0188198
0.000736224
0.0187137
0.000777226
0.0186026
0.000820029
0.0184863
0.000864825
0.0183649
0.000911825
0.0182383
0.000961254
0.0181064
0.00101335
0.0179694
0.00106838
0.0178272
0.0011266
0.01768
0.00118829
0.017528
0.00125371
0.0173715
0.00132314
0.0172108
0.00139682
0.0170466
0.00147496
0.0168794
0.00155774
0.0167104
0.00164526
0.0165408
0.00173758
0.0163722
0.0018347
0.0162066
0.00193654
0.0160465
0.00204303
0.0158951
0.00215411
0.0157557
0.00226981
0.0156323
0.00239034
0.0155289
0.00251621
0.0154489
0.00264825
0.0153947
0.00278766
0.0153668
0.00293596
0.0153621
0.00309478
0.0153736
0.00326548
0.0153883
0.00344861
0.0153874
0.00364324
0.0153455
0.00384622
0.015232
0.00405145
0.0150133
0.00424954
0.0146557
0.00442777
0.0141306
0.00457073
0.0134196
0.00466169
0.0125192
0.00468469
0.0114454
0.0046272
0.0102337
0.00448286
0.0089353
0.00425375
0.00760811
0.00395121
0.00630492
0.0035946
0.0050635
0.00320797
0.00390311
0.00281623
0.00282933
0.00244435
0.00184595
0.00212302
0.000964378
0.00189674
0.00019893
0.00182546
-0.000448249
0.00196161
-0.000996426
0.00230517
-0.00147074
0.00277353
-0.00188531
0.00323181
-0.0022461
0.00355462
-0.00256022
0.00367617
-0.00284841
0.00362066
-0.00313564
0.00345698
-0.00343748
0.00324451
-0.0037539
0.00300515
-0.00407277
0.00273075
-0.00437784
0.00240505
-0.00465509
0.00201874
-0.00489468
0.0015717
-0.00508982
0.0010677
-0.00523537
0.000508918
-0.00532598
-0.000107009
-0.00535689
-0.000782168
-0.00532166
-0.00152451
-0.00521233
-0.00233768
-0.00502016
-0.00322014
-0.00474019
-0.00415865
-0.0043805
-0.00512409
-0.00396892
-0.00607735
-0.00352141
-0.00699166
-0.00290571
-0.00782425
-0.00170376
-0.00807202
-0.00531406
0.0199982
1.6765e-05
0.0199929
5.02474e-05
0.019984
8.35313e-05
0.0199712
0.000116547
0.0199545
0.000149319
0.0199338
0.000181949
0.019909
0.000214534
0.0198801
0.000247143
0.019847
0.000279843
0.0198098
0.000312707
0.0197684
0.000345815
0.0197228
0.000379241
0.019673
0.000413059
0.0196189
0.000447342
0.0195605
0.000482167
0.0194977
0.000517614
0.0194306
0.000553767
0.0193591
0.000590716
0.0192832
0.000628557
0.0192027
0.000667391
0.0191177
0.000707331
0.0190282
0.000748497
0.018934
0.000791022
0.0188352
0.00083505
0.0187316
0.000880735
0.0186234
0.000928248
0.0185105
0.000977773
0.0183928
0.00102951
0.0182704
0.00108366
0.0181433
0.00114046
0.0180115
0.00120014
0.0178752
0.00126294
0.0177344
0.00132912
0.0175892
0.0013989
0.0174398
0.00147252
0.0172864
0.0015502
0.0171293
0.00163211
0.0169686
0.00171837
0.0168048
0.00180907
0.0166382
0.00190419
0.0164693
0.00200364
0.0162986
0.00210725
0.0161268
0.00221476
0.0159551
0.00232583
0.0157848
0.00244011
0.0156179
0.00255727
0.015457
0.00267712
0.0153055
0.00279968
0.0151679
0.00292531
0.015049
0.00305487
0.014954
0.00318973
0.0148877
0.00333182
0.0148528
0.00348352
0.0148487
0.00364733
0.0148695
0.00382538
0.0149023
0.00401865
0.0149258
0.00422603
0.0149104
0.00444325
0.0148191
0.00466195
0.0146116
0.00486924
0.0142483
0.00504802
0.0136972
0.00517824
0.0129407
0.00523935
0.0119808
0.00521367
0.0108418
0.00509024
0.00956803
0.00486835
0.00821669
0.00455932
0.00684696
0.00418596
0.00551093
0.00378037
0.00425148
0.00338248
0.00310715
0.00304107
0.0021172
0.00281541
0.00131357
0.00276525
0.000700332
0.00291841
0.000242016
0.00323184
-0.000119468
0.00359329
-0.000434848
0.00387
-0.000743438
0.00398476
-0.00106115
0.00393837
-0.00138988
0.00378572
-0.00172483
0.00357946
-0.00205855
0.00333887
-0.00238271
0.00305492
-0.00268943
0.00271178
-0.00297222
0.00230153
-0.00322569
0.00182517
-0.00344532
0.00128732
-0.00362714
0.000690738
-0.00376834
3.4197e-05
-0.00386449
-0.000686022
-0.00391141
-0.00147759
-0.00390209
-0.00234699
-0.00382622
-0.00329602
-0.0036709
-0.00431397
-0.00342702
-0.00536797
-0.00310475
-0.00639963
-0.00274374
-0.00735266
-0.00233513
-0.00823286
-0.00154429
-0.00886286
-0.00685835
0.0199982
1.85793e-05
0.0199928
5.56759e-05
0.0199837
9.26363e-05
0.0199708
0.000129435
0.019954
0.000166087
0.0199333
0.000202656
0.0199086
0.000239219
0.0198799
0.000275843
0.0198472
0.000312594
0.0198103
0.00034954
0.0197694
0.000386755
0.0197243
0.000424315
0.0196751
0.000462293
0.0196216
0.000500764
0.019564
0.000539806
0.0195021
0.0005795
0.019436
0.000619932
0.0193655
0.000661191
0.0192907
0.000703373
0.0192115
0.000746582
0.0191279
0.000790928
0.0190398
0.000836529
0.0189474
0.000883514
0.0188504
0.00093202
0.0187489
0.000982197
0.018643
0.0010342
0.0185325
0.00108821
0.0184176
0.00114441
0.0182983
0.00120298
0.0181746
0.00126414
0.0180467
0.00132808
0.0179146
0.00139504
0.0177785
0.00146521
0.0176386
0.00153883
0.017495
0.00161608
0.0173481
0.00169715
0.017198
0.0017822
0.017045
0.00187135
0.0168894
0.00196466
0.0167314
0.00206216
0.0165713
0.00216377
0.0164092
0.00226938
0.0162452
0.00237876
0.0160794
0.00249163
0.0159119
0.00260762
0.0157428
0.0027263
0.0155727
0.00284726
0.0154023
0.00297006
0.0152332
0.00309441
0.0150679
0.00322018
0.0149101
0.00334756
0.0147647
0.00347718
0.014638
0.00361022
0.0145368
0.00374855
0.0144674
0.00389472
0.0144343
0.00405181
0.0144373
0.00422303
0.0144696
0.00441099
0.014515
0.00461655
0.0145468
0.00483741
0.0145281
0.00506675
0.0144141
0.0052922
0.0141576
0.00549581
0.013716
0.00565531
0.0130593
0.00574695
0.012178
0.00574962
0.0110878
0.00564959
0.00982901
0.00544471
0.00846222
0.00514715
0.00706009
0.00478461
0.00570069
0.00440047
0.00446289
0.00405321
0.00341771
0.00381043
0.00260834
0.00372778
0.00202704
0.00381314
0.00161479
0.00400554
0.00128671
0.00419807
0.00097413
0.00429735
0.000644013
0.00426849
0.000296407
0.00413332
-5.46531e-05
0.00393052
-0.000396927
0.00368114
-0.000724722
0.00338271
-0.00103611
0.00302317
-0.00132928
0.00259469
-0.00160118
0.00209708
-0.00184853
0.00153466
-0.00206764
0.000909852
-0.00225608
0.000222641
-0.00241089
-0.000531212
-0.00252871
-0.00135977
-0.00260429
-0.00227142
-0.00262897
-0.00327133
-0.00258946
-0.00435348
-0.00246898
-0.00548844
-0.00225751
-0.00661111
-0.0019779
-0.00763228
-0.00168824
-0.00852251
-0.00124497
-0.00930614
-0.00810332
0.0199982
2.04108e-05
0.0199927
6.11598e-05
0.0199835
0.000101807
0.0199706
0.000142356
0.0199539
0.000182826
0.0199332
0.000223264
0.0199087
0.000263734
0.0198803
0.000304299
0.0198478
0.000345023
0.0198114
0.000385972
0.019771
0.000427217
0.0197264
0.000468831
0.0196778
0.000510888
0.0196251
0.000553462
0.0195683
0.000596632
0.0195073
0.000640481
0.0194422
0.000685093
0.0193728
0.000730559
0.0192992
0.000776975
0.0192213
0.000824442
0.0191392
0.000873069
0.0190528
0.000922971
0.018962
0.000974273
0.0188669
0.00102711
0.0187675
0.00108161
0.0186638
0.00113794
0.0185557
0.00119625
0.0184434
0.00125671
0.0183269
0.0013195
0.0182063
0.00138479
0.0180816
0.00145277
0.017953
0.00152364
0.0178206
0.00159757
0.0176847
0.00167476
0.0175454
0.00175536
0.017403
0.00183953
0.0172578
0.0019274
0.0171101
0.00201908
0.0169601
0.00211461
0.0168083
0.00221403
0.0166548
0.00231729
0.0164998
0.00242432
0.0163436
0.00253497
0.0161862
0.00264905
0.0160275
0.00276631
0.0158673
0.00288645
0.0157055
0.00300912
0.0155416
0.00313395
0.0153755
0.00326052
0.0152072
0.00338843
0.0150375
0.00351732
0.0148677
0.00364693
0.0147007
0.0037772
0.0145408
0.00390843
0.0143941
0.00404148
0.0142679
0.00417794
0.0141707
0.00432029
0.0141098
0.00447192
0.0140894
0.00463686
0.0141078
0.00481907
0.0141533
0.0050212
0.0142026
0.00524295
0.0142192
0.0054792
0.014156
0.00571853
0.0139601
0.00594284
0.0135812
0.00612854
0.0129812
0.00624954
0.0121441
0.00628187
0.0110823
0.00620894
0.00983995
0.00602693
0.00849096
0.00574946
0.00713278
0.0054114
0.00587381
0.0050694
0.00480953
0.00479206
0.00399012
0.00463255
0.00339995
0.00459572
0.00296858
0.00462944
0.0026104
0.00465552
0.00226437
0.00461452
0.00190907
0.00448862
0.00155026
0.00428933
0.00119985
0.00403155
0.000864029
0.00371854
0.000543016
0.00334418
0.00023565
0.00290206
-5.76904e-05
0.00239042
-0.00033369
0.00181066
-0.000589863
0.00116603
-0.000823192
0.00045597
-0.00103123
-0.000323177
-0.0012109
-0.0011801
-0.00135834
-0.00212398
-0.00146696
-0.00316271
-0.00152618
-0.00429426
-0.00152056
-0.00549406
-0.00143301
-0.00669866
-0.00126293
-0.00780236
-0.00106804
-0.0087174
-0.00087856
-0.00949562
-0.00898188
0.0199982
2.22445e-05
0.0199927
6.66522e-05
0.0199835
0.000110978
0.0199706
0.000155244
0.019954
0.000199478
0.0199335
0.000243722
0.0199092
0.000288032
0.019881
0.000332467
0.019849
0.00037709
0.019813
0.000421964
0.019773
0.000467159
0.0197291
0.000512745
0.0196812
0.000558796
0.0196293
0.000605387
0.0195733
0.000652596
0.0195133
0.000700505
0.0194492
0.0007492
0.019381
0.00079877
0.0193087
0.000849309
0.0192322
0.000900919
0.0191515
0.000953704
0.0190667
0.00100778
0.0189778
0.00106326
0.0188846
0.00112027
0.0187873
0.00117895
0.0186858
0.00123943
0.0185801
0.00130187
0.0184704
0.00136642
0.0183567
0.00143323
0.018239
0.00150248
0.0181175
0.00157431
0.0179922
0.00164891
0.0178634
0.00172642
0.0177311
0.00180701
0.0175956
0.00189082
0.0174572
0.00197796
0.0173161
0.00206855
0.0171725
0.00216265
0.0170268
0.00226033
0.0168792
0.00236158
0.0167301
0.00246639
0.0165798
0.00257468
0.0164284
0.00268635
0.0162762
0.00280125
0.0161233
0.00291923
0.0159696
0.00304007
0.0158152
0.00316356
0.0156597
0.00328945
0.0155027
0.00341748
0.0153439
0.00354732
0.0151825
0.00367866
0.0150184
0.00381109
0.0148513
0.00394421
0.0146822
0.00407761
0.0145126
0.004211
0.0143462
0.00434439
0.0141882
0.00447829
0.0140461
0.00461402
0.0139289
0.004754
0.0138461
0.00490189
0.0138049
0.00506246
0.0138069
0.00524096
0.0138442
0.00544183
0.013896
0.00566671
0.0139267
0.00591221
0.0138873
0.00616786
0.0137217
0.00641518
0.013375
0.00662859
0.0128054
0.00677851
0.0119959
0.00683641
0.0109639
0.00678151
0.00976671
0.00660856
0.00850022
0.00633589
0.00728297
0.00600931
0.00622302
0.00569249
0.00537904
0.00543969
0.00474187
0.00526661
0.00425217
0.00514522
0.00383983
0.00502686
0.00345664
0.00487181
0.00308406
0.00466191
0.00272159
0.00439401
0.00237225
0.00406788
0.00203601
0.00368042
0.00171085
0.00322722
0.00139563
0.00270563
0.00109083
0.00211547
0.000799195
0.00145766
0.00052386
0.000731305
0.000266915
-6.62322e-05
3.22405e-05
-0.000945424
-0.000177761
-0.00191397
-0.000358436
-0.00298204
-0.000502291
-0.00415041
-0.000598439
-0.00539791
-0.000633331
-0.00666376
-0.000597013
-0.00783868
-0.000516211
-0.0087982
-0.000497342
-0.00951449
-0.00947922
0.0199982
2.40706e-05
0.0199927
7.21223e-05
0.0199836
0.000120103
0.0199708
0.00016805
0.0199543
0.000215997
0.019934
0.000263987
0.0199099
0.000312071
0.0198821
0.000360306
0.0198504
0.000408754
0.0198149
0.000457476
0.0197756
0.000506541
0.0197323
0.000556018
0.0196851
0.00060598
0.019634
0.000656501
0.0195789
0.000707659
0.0195199
0.000759535
0.0194569
0.000812214
0.0193899
0.000865785
0.0193188
0.00092034
0.0192438
0.000975977
0.0191647
0.0010328
0.0190815
0.00109091
0.0189944
0.00115044
0.0189031
0.00121149
0.0188079
0.00127419
0.0187087
0.00133867
0.0186055
0.00140508
0.0184983
0.00147355
0.0183873
0.00154422
0.0182726
0.00161724
0.0181541
0.00169276
0.0180321
0.00177092
0.0179067
0.00185186
0.017778
0.00193571
0.0176462
0.00202259
0.0175116
0.00211261
0.0173743
0.00220585
0.0172345
0.00230236
0.0170927
0.00240219
0.016949
0.00250532
0.0168036
0.00261174
0.0166569
0.00272139
0.0165091
0.00283416
0.0163604
0.00294994
0.016211
0.0030686
0.0160611
0.00318998
0.0159108
0.00331391
0.01576
0.00344023
0.0156087
0.00356877
0.0154567
0.00369934
0.0153036
0.00383177
0.0151489
0.0039658
0.0149919
0.00410114
0.0148321
0.00423742
0.014669
0.00437418
0.0145025
0.0045109
0.0143336
0.00464713
0.014165
0.00478265
0.0140013
0.00491774
0.0138496
0.00505357
0.0137194
0.00519262
0.0136214
0.00533896
0.013565
0.00549826
0.0135545
0.00567717
0.0135848
0.00588188
0.0136369
0.00611579
0.0136755
0.00637657
0.0136507
0.00665339
0.0135039
0.00692537
0.013178
0.00716225
0.0126314
0.00732809
0.011852
0.00738803
0.0108695
0.00731835
0.00976048
0.00711835
0.00863473
0.00681824
0.00760166
0.00647276
0.00673063
0.00613765
0.00603226
0.00584359
0.00547185
0.00558727
0.00500023
0.00534344
0.00457854
0.0050836
0.00418552
0.00478703
0.00381192
0.00444148
0.00345298
0.00403937
0.00310488
0.00357531
0.00276488
0.00304563
0.00243201
0.00244835
0.00210736
0.00178231
0.00179316
0.0010455
0.00149317
0.000233763
0.00120846
-0.000660724
0.000942323
-0.00164783
0.000697577
-0.00273729
0.000478357
-0.00393119
0.000290465
-0.00521002
0.00014103
-0.00651433
3.61165e-05
-0.00773376
-3.96768e-05
-0.00872241
-0.00013093
-0.00942323
-0.00961015
0.0199982
2.58819e-05
0.0199928
7.75489e-05
0.0199837
0.000129152
0.019971
0.000180737
0.0199547
0.000232345
0.0199346
0.000284021
0.0199109
0.000335814
0.0198834
0.00038778
0.0198522
0.00043998
0.0198172
0.000492475
0.0197784
0.000545331
0.0197358
0.000598618
0.0196894
0.000652406
0.0196391
0.00070677
0.019585
0.000761787
0.019527
0.000817536
0.0194651
0.000874102
0.0193993
0.000931571
0.0193296
0.000990034
0.019256
0.00104959
0.0191785
0.00111033
0.019097
0.00117236
0.0190117
0.0012358
0.0189224
0.00130075
0.0188293
0.00136734
0.0187323
0.00143568
0.0186314
0.0015059
0.0185269
0.00157813
0.0184186
0.0016525
0.0183067
0.00172915
0.0181912
0.00180819
0.0180724
0.00188977
0.0179502
0.00197399
0.017825
0.00206098
0.0176967
0.00215083
0.0175657
0.00224364
0.0174321
0.00233946
0.0172961
0.00243834
0.017158
0.00254031
0.0170179
0.00264537
0.0168762
0.00275349
0.016733
0.0028646
0.0165885
0.00297862
0.016443
0.00309546
0.0162966
0.00321498
0.0161496
0.00333704
0.016002
0.00346152
0.0158539
0.00358825
0.0157056
0.00371711
0.015557
0.00384796
0.0154081
0.00398069
0.0152587
0.00411516
0.0151086
0.00425123
0.0149573
0.00438871
0.0148042
0.00452734
0.0146483
0.00466675
0.014489
0.00480648
0.0143257
0.00494596
0.0141588
0.00508463
0.0139902
0.00522214
0.0138241
0.00535871
0.0136676
0.00549551
0.0135305
0.00563531
0.0134249
0.00578278
0.0133621
0.00594468
0.0133488
0.00612905
0.0133819
0.0063435
0.0134432
0.00659214
0.0134967
0.0068718
0.0134905
0.00716845
0.0133634
0.00745528
0.0130572
0.00769418
0.012534
0.0078416
0.0117926
0.00785965
0.0108803
0.00773062
0.00988492
0.00746811
0.00890774
0.00711483
0.00802695
0.00672437
0.0072764
0.00633782
0.00664916
0.00597069
0.00611709
0.00561566
0.00565
0.00525413
0.00522483
0.00486664
0.00482642
0.00443778
0.00444499
0.00395673
0.00407433
0.0034163
0.003711
0.00281169
0.00335399
0.00213931
0.00300417
0.00139532
0.00266354
0.000574394
0.00233389
-0.000331075
0.00201683
-0.00133077
0.00171352
-0.00243398
0.00142441
-0.00364209
0.00114946
-0.00493506
0.000888267
-0.00625314
0.000640283
-0.00748578
0.00040809
-0.00849022
0.000160232
-0.00917537
-0.00944992
0.0199982
2.76736e-05
0.0199928
8.29169e-05
0.0199839
0.000138099
0.0199714
0.000193275
0.0199552
0.000248491
0.0199354
0.000303792
0.019912
0.000359228
0.0198849
0.000414857
0.0198542
0.000470736
0.0198197
0.000526928
0.0197816
0.000583497
0.0197397
0.000640513
0.019694
0.000698044
0.0196446
0.000756164
0.0195915
0.00081495
0.0195345
0.000874479
0.0194738
0.000934835
0.0194093
0.000996102
0.0193409
0.00105837
0.0192688
0.00112173
0.0191929
0.00118627
0.0191131
0.00125211
0.0190296
0.00131934
0.0189423
0.00138806
0.0188512
0.0014584
0.0187564
0.00153046
0.018658
0.00160435
0.0185559
0.00168021
0.0184502
0.00175814
0.0183411
0.00183827
0.0182286
0.00192071
0.0181128
0.00200556
0.0179938
0.00209295
0.0178719
0.00218296
0.017747
0.00227569
0.0176195
0.00237119
0.0174894
0.00246953
0.017357
0.00257076
0.0172224
0.00267487
0.0170859
0.00278187
0.0169477
0.00289173
0.0168079
0.00300439
0.0166667
0.00311978
0.0165244
0.0032378
0.016381
0.00335835
0.0162368
0.00348129
0.0160918
0.00360651
0.0159462
0.00373385
0.0158001
0.00386319
0.0156536
0.00399441
0.0155069
0.00412739
0.0153601
0.00426203
0.0152131
0.00439824
0.0150659
0.00453591
0.0149182
0.00467495
0.0147698
0.0048152
0.0146198
0.00495645
0.0144674
0.00509836
0.0143116
0.00524047
0.0141515
0.00538222
0.0139872
0.00552301
0.0138202
0.00566248
0.0136547
0.00580084
0.013498
0.00593945
0.0133612
0.00608148
0.0132579
0.00623236
0.0132016
0.00639984
0.0132007
0.00659296
0.013253
0.00681959
0.0133388
0.00708256
0.0134193
0.00737488
0.0134376
0.00767581
0.0133294
0.00794987
0.013038
0.00815106
0.012535
0.00823356
0.011836
0.00816712
0.0110008
0.00795007
0.0101142
0.00761094
0.00925625
0.00719576
0.00847856
0.00674838
0.0077985
0.00629572
0.00720823
0.00584441
0.00668843
0.00538643
0.00621868
0.00490753
0.00578213
0.00439328
0.00536665
0.00383178
0.00496433
0.00321401
0.00457076
0.00253287
0.00418415
0.00178194
0.00380437
0.000954172
0.00343188
4.14081e-05
0.00306651
-0.000965399
0.00270699
-0.00207446
0.00234965
-0.00328475
0.00198859
-0.004574
0.0016168
-0.00588135
0.00122933
-0.00709831
0.000825809
-0.0080867
0.000404551
-0.00875412
-0.00904536
0.0199982
2.94417e-05
0.0199929
8.82148e-05
0.0199841
0.000146928
0.0199717
0.000205642
0.0199558
0.000264408
0.0199363
0.000323272
0.0199133
0.000382288
0.0198866
0.000441509
0.0198564
0.000500995
0.0198225
0.000560809
0.019785
0.000621013
0.0197438
0.000681676
0.019699
0.000742866
0.0196505
0.000804657
0.0195983
0.000867122
0.0195425
0.00093034
0.0194829
0.00099439
0.0194197
0.00105936
0.0193527
0.00112532
0.019282
0.00119238
0.0192077
0.00126062
0.0191297
0.00133015
0.0190479
0.00140105
0.0189626
0.00147342
0.0188736
0.00154739
0.018781
0.00162304
0.0186849
0.00170048
0.0185853
0.00177983
0.0184822
0.0018612
0.0183758
0.00194468
0.0182661
0.00203038
0.0181533
0.00211841
0.0180374
0.00220885
0.0179186
0.00230178
0.017797
0.00239729
0.0176727
0.00249543
0.017546