/*--------------------------------*- C++ -*----------------------------------*\
| =========                 |                                                 |
| \\      /  F ield         | OpenFOAM: The Open Source CFD Toolbox           |
|  \\    /   O peration     | Version:  4.1                                   |
|   \\  /    A nd           | Web:      www.OpenFOAM.org                      |
|    \\/     M anipulation  |                                                 |
\*---------------------------------------------------------------------------*/
FoamFile
{
    version     2.0;
    format      ascii;
    class       volVectorField;
    location    "0.5";
    object      U;
}
// * * * * * * * * * * * * * * * * * * * * * * * * * * * * * * * * * * * * * //

dimensions      [0 1 -1 0 0 0 0];

internalField   nonuniform List<vector> 
43750
(
(9.98932 0.021253 0)
(9.96619 0.0359867 0)
(9.93519 0.0428472 0)
(9.89547 0.0477719 0)
(9.84936 0.0523233 0)
(9.79848 0.0566743 0)
(9.74307 0.0607905 0)
(9.68299 0.0647057 0)
(9.61824 0.0684766 0)
(9.54892 0.0721382 0)
(9.47509 0.0757083 0)
(9.39673 0.0792023 0)
(9.31378 0.0826377 0)
(9.22617 0.0860319 0)
(9.13381 0.089402 0)
(9.03656 0.0927647 0)
(8.93429 0.0961376 0)
(8.82682 0.0995391 0)
(8.71395 0.102989 0)
(8.59543 0.106509 0)
(8.471 0.110121 0)
(8.34035 0.113851 0)
(8.20312 0.117726 0)
(8.05892 0.121776 0)
(7.90729 0.126031 0)
(7.74772 0.130526 0)
(7.57963 0.135298 0)
(7.40238 0.140383 0)
(7.21524 0.14582 0)
(7.01741 0.151641 0)
(6.80803 0.157876 0)
(6.58615 0.16454 0)
(6.35077 0.17163 0)
(6.10084 0.179114 0)
(5.83535 0.186916 0)
(5.55331 0.194898 0)
(5.25389 0.202843 0)
(4.93649 0.210435 0)
(4.60087 0.21724 0)
(4.24731 0.222698 0)
(3.87678 0.22612 0)
(3.49111 0.226723 0)
(3.09316 0.223677 0)
(2.6869 0.216209 0)
(2.27748 0.20373 0)
(1.87113 0.186007 0)
(1.47493 0.163327 0)
(1.09642 0.136649 0)
(0.743073 0.107666 0)
(0.42152 0.0787359 0)
(0.136643 0.0527522 0)
(-0.109184 0.0325495 0)
(-0.317258 0.0203099 0)
(-0.493881 0.0174252 0)
(-0.645288 0.0220293 0)
(-0.776933 0.0285894 0)
(-0.892616 0.032265 0)
(-0.994996 0.0317595 0)
(-1.08613 0.0287514 0)
(-1.16744 0.0257408 0)
(-1.2405 0.0248186 0)
(-1.30788 0.0276569 0)
(-1.37433 0.0332831 0)
(-1.4436 0.0349917 0)
(-1.51144 0.022373 0)
(-1.55996 -0.00927906 0)
(-1.5612 -0.0527779 0)
(-1.50171 -0.0961232 0)
(-1.39383 -0.134751 0)
(-1.23862 -0.171078 0)
(-1.04202 -0.205019 0)
(-0.816326 -0.233751 0)
(-0.583777 -0.250875 0)
(-0.375473 -0.24463 0)
(-0.228018 -0.204104 0)
(-0.189396 -0.119893 0)
(-0.33092 -0.00265866 0)
(-0.63784 0.12185 0)
(-1.09832 0.242793 0)
(-1.67664 0.34117 0)
(-2.32316 0.400156 0)
(-2.98492 0.414507 0)
(-3.61532 0.389972 0)
(-4.17833 0.3366 0)
(-4.65028 0.264663 0)
(-5.01764 0.182839 0)
(-5.27267 0.0981371 0)
(-5.40915 0.016779 0)
(-5.42199 -0.0567637 0)
(-5.32409 -0.122613 0)
(-5.13057 -0.188226 0)
(-4.82441 -0.26036 0)
(-4.39286 -0.340252 0)
(-3.81702 -0.42695 0)
(-3.08664 -0.514236 0)
(-2.22221 -0.583133 0)
(-1.29156 -0.589448 0)
(-0.399602 -0.468703 0)
(0.243369 -0.209748 0)
(0.398267 0.159763 0)
(10.0047 0.00735596 0)
(10.0196 0.0181725 0)
(10.0357 0.025601 0)
(10.0504 0.0318626 0)
(10.064 0.0379561 0)
(10.0767 0.0438859 0)
(10.0886 0.0495717 0)
(10.0993 0.0551031 0)
(10.1085 0.0606096 0)
(10.1161 0.0661697 0)
(10.1221 0.0718237 0)
(10.1262 0.0776049 0)
(10.1284 0.0835485 0)
(10.1284 0.0896902 0)
(10.1261 0.0960635 0)
(10.1214 0.102702 0)
(10.1141 0.109641 0)
(10.1039 0.11692 0)
(10.0908 0.12458 0)
(10.0744 0.132667 0)
(10.0546 0.141234 0)
(10.031 0.150341 0)
(10.0035 0.160052 0)
(9.97155 0.170444 0)
(9.93491 0.181603 0)
(9.89309 0.193623 0)
(9.84561 0.206613 0)
(9.79189 0.220694 0)
(9.73125 0.235999 0)
(9.66291 0.252673 0)
(9.58596 0.27087 0)
(9.4993 0.290746 0)
(9.40169 0.312454 0)
(9.29165 0.336131 0)
(9.16745 0.361874 0)
(9.02712 0.389721 0)
(8.86839 0.419615 0)
(8.68872 0.451366 0)
(8.48534 0.484598 0)
(8.25525 0.518708 0)
(7.99542 0.552811 0)
(7.70289 0.585712 0)
(7.37503 0.615893 0)
(7.00985 0.641546 0)
(6.60629 0.660656 0)
(6.16463 0.671148 0)
(5.68674 0.67109 0)
(5.17643 0.65895 0)
(4.63961 0.633874 0)
(4.08435 0.595948 0)
(3.52088 0.546403 0)
(2.96109 0.487697 0)
(2.41852 0.423779 0)
(1.90709 0.359832 0)
(1.43862 0.301207 0)
(1.02067 0.252096 0)
(0.654909 0.214372 0)
(0.33754 0.187083 0)
(0.0616223 0.16722 0)
(-0.179402 0.150774 0)
(-0.391377 0.135738 0)
(-0.57854 0.12439 0)
(-0.743987 0.118182 0)
(-0.888609 0.11194 0)
(-1.00985 0.0929117 0)
(-1.10483 0.0504384 0)
(-1.17954 -0.0120667 0)
(-1.24085 -0.0811375 0)
(-1.27567 -0.146636 0)
(-1.28702 -0.204034 0)
(-1.28556 -0.246504 0)
(-1.28957 -0.264923 0)
(-1.32393 -0.245254 0)
(-1.41565 -0.163358 0)
(-1.58478 -0.0010161 0)
(-1.83927 0.222123 0)
(-2.20084 0.461736 0)
(-2.68016 0.678535 0)
(-3.22742 0.839285 0)
(-3.77625 0.92371 0)
(-4.26767 0.928999 0)
(-4.66563 0.86872 0)
(-4.95928 0.764497 0)
(-5.15667 0.63667 0)
(-5.2757 0.499397 0)
(-5.33664 0.359929 0)
(-5.35731 0.220711 0)
(-5.3507 0.0820889 0)
(-5.32124 -0.0567127 0)
(-5.24761 -0.199159 0)
(-5.09735 -0.352263 0)
(-4.86523 -0.523677 0)
(-4.53686 -0.716766 0)
(-4.0979 -0.930703 0)
(-3.53427 -1.15368 0)
(-2.84156 -1.34567 0)
(-2.03883 -1.40958 0)
(-1.1883 -1.18526 0)
(-0.414784 -0.553148 0)
(0.190462 0.352553 0)
(9.99997 0.0055232 0)
(9.99961 0.0149578 0)
(9.99799 0.0224574 0)
(9.99414 0.0290329 0)
(9.98791 0.035417 0)
(9.97968 0.0417496 0)
(9.96965 0.0480201 0)
(9.95785 0.054293 0)
(9.94428 0.0606602 0)
(9.929 0.0671783 0)
(9.91209 0.0738742 0)
(9.89362 0.0807699 0)
(9.87365 0.0878921 0)
(9.85223 0.0952705 0)
(9.82942 0.102936 0)
(9.80528 0.110921 0)
(9.77986 0.119264 0)
(9.75323 0.128005 0)
(9.72543 0.137195 0)
(9.69653 0.146889 0)
(9.66658 0.157151 0)
(9.63563 0.168056 0)
(9.60375 0.17969 0)
(9.57098 0.192153 0)
(9.5374 0.205562 0)
(9.50304 0.22005 0)
(9.46797 0.235772 0)
(9.43223 0.252908 0)
(9.39587 0.271661 0)
(9.3589 0.292264 0)
(9.32133 0.314978 0)
(9.28312 0.340095 0)
(9.24417 0.36793 0)
(9.20429 0.398816 0)
(9.16317 0.43309 0)
(9.1203 0.471074 0)
(9.07492 0.513044 0)
(9.02591 0.559183 0)
(8.9717 0.609529 0)
(8.91013 0.663907 0)
(8.83836 0.721848 0)
(8.75273 0.782518 0)
(8.64872 0.844647 0)
(8.52098 0.906495 0)
(8.36344 0.965852 0)
(8.16958 1.02011 0)
(7.93281 1.0664 0)
(7.64703 1.10179 0)
(7.30724 1.12352 0)
(6.91026 1.12929 0)
(6.45547 1.11746 0)
(5.94551 1.08729 0)
(5.38694 1.03902 0)
(4.79057 0.973976 0)
(4.17138 0.894881 0)
(3.54775 0.805922 0)
(2.93955 0.712653 0)
(2.36543 0.621398 0)
(1.8398 0.538077 0)
(1.37043 0.466722 0)
(0.958624 0.408745 0)
(0.600664 0.362947 0)
(0.291042 0.325628 0)
(0.0239438 0.289857 0)
(-0.207424 0.245082 0)
(-0.411857 0.183261 0)
(-0.596613 0.106563 0)
(-0.764014 0.0228081 0)
(-0.912777 -0.0586217 0)
(-1.04916 -0.124467 0)
(-1.1851 -0.158005 0)
(-1.34309 -0.144926 0)
(-1.54861 -0.071046 0)
(-1.81916 0.0787545 0)
(-2.1591 0.313748 0)
(-2.55174 0.609439 0)
(-2.96637 0.904538 0)
(-3.36848 1.13502 0)
(-3.71847 1.26185 0)
(-3.99007 1.27688 0)
(-4.18151 1.19789 0)
(-4.31278 1.05692 0)
(-4.41254 0.886306 0)
(-4.50437 0.709701 0)
(-4.59886 0.539202 0)
(-4.69287 0.376976 0)
(-4.77343 0.21886 0)
(-4.82368 0.0572661 0)
(-4.82907 -0.116515 0)
(-4.77961 -0.310501 0)
(-4.6701 -0.52789 0)
(-4.49689 -0.771214 0)
(-4.2554 -1.0449 0)
(-3.94088 -1.35133 0)
(-3.54669 -1.68399 0)
(-3.05925 -2.00691 0)
(-2.45256 -2.21236 0)
(-1.70712 -2.07287 0)
(-0.874924 -1.2952 0)
(-0.127138 0.046422 0)
(9.99985 0.00564325 0)
(9.99875 0.0166251 0)
(9.99625 0.026923 0)
(9.99171 0.0366646 0)
(9.98482 0.0461569 0)
(9.97563 0.0555361 0)
(9.96424 0.0648108 0)
(9.95065 0.0739978 0)
(9.93481 0.0831445 0)
(9.91671 0.0922977 0)
(9.89635 0.10149 0)
(9.87374 0.110749 0)
(9.84888 0.120104 0)
(9.82177 0.129587 0)
(9.7924 0.13923 0)
(9.76078 0.149066 0)
(9.72691 0.159133 0)
(9.69079 0.169471 0)
(9.65244 0.180125 0)
(9.61186 0.191145 0)
(9.56907 0.202588 0)
(9.52411 0.214518 0)
(9.47702 0.22701 0)
(9.42785 0.240147 0)
(9.37668 0.254029 0)
(9.32359 0.268766 0)
(9.26871 0.284491 0)
(9.2122 0.301353 0)
(9.15424 0.319526 0)
(9.09508 0.339212 0)
(9.03503 0.360641 0)
(8.97444 0.384077 0)
(8.91378 0.40982 0)
(8.85357 0.43821 0)
(8.79445 0.469622 0)
(8.73712 0.504469 0)
(8.68238 0.543191 0)
(8.63106 0.586243 0)
(8.58396 0.634068 0)
(8.54174 0.687065 0)
(8.50479 0.745535 0)
(8.47302 0.809612 0)
(8.44562 0.879183 0)
(8.42072 0.953788 0)
(8.39517 1.03253 0)
(8.36429 1.11399 0)
(8.32172 1.19621 0)
(8.25949 1.27665 0)
(8.16827 1.35233 0)
(8.03784 1.41983 0)
(7.85781 1.47553 0)
(7.61847 1.51572 0)
(7.3118 1.53675 0)
(6.93255 1.53533 0)
(6.47947 1.50897 0)
(5.95649 1.45658 0)
(5.37358 1.37904 0)
(4.747 1.27965 0)
(4.09837 1.16425 0)
(3.45232 1.04069 0)
(2.83303 0.91765 0)
(2.26019 0.80293 0)
(1.7461 0.701038 0)
(1.29436 0.611032 0)
(0.89987 0.52624 0)
(0.551448 0.438262 0)
(0.236608 0.342516 0)
(-0.0529533 0.240822 0)
(-0.320304 0.142164 0)
(-0.569197 0.0669855 0)
(-0.80714 0.0413578 0)
(-1.05015 0.0867736 0)
(-1.32091 0.214557 0)
(-1.63767 0.420898 0)
(-1.99673 0.688141 0)
(-2.36835 0.980811 0)
(-2.70882 1.24201 0)
(-2.98316 1.41424 0)
(-3.17875 1.47065 0)
(-3.30902 1.42245 0)
(-3.40523 1.30427 0)
(-3.49939 1.15267 0)
(-3.61002 0.991507 0)
(-3.73811 0.829288 0)
(-3.87206 0.664288 0)
(-3.99541 0.491074 0)
(-4.09299 0.304392 0)
(-4.15397 0.100174 0)
(-4.17221 -0.124748 0)
(-4.14403 -0.372119 0)
(-4.06604 -0.644462 0)
(-3.93552 -0.944098 0)
(-3.7514 -1.27355 0)
(-3.51603 -1.63531 0)
(-3.23546 -2.02924 0)
(-2.90981 -2.43896 0)
(-2.50532 -2.7889 0)
(-1.94041 -2.85503 0)
(-1.17381 -2.20808 0)
(-0.334271 -0.564903 0)
(9.99983 0.0063003 0)
(9.99844 0.0187933 0)
(9.99543 0.0308943 0)
(9.99044 0.0425217 0)
(9.98329 0.0538266 0)
(9.97399 0.0649641 0)
(9.96258 0.076003 0)
(9.94905 0.0869827 0)
(9.93338 0.0979563 0)
(9.91552 0.108982 0)
(9.89549 0.120109 0)
(9.87327 0.131376 0)
(9.84884 0.142817 0)
(9.82219 0.154469 0)
(9.79327 0.166365 0)
(9.76208 0.17854 0)
(9.72858 0.191033 0)
(9.69272 0.20388 0)
(9.65449 0.217123 0)
(9.61384 0.230809 0)
(9.57073 0.244988 0)
(9.52512 0.259716 0)
(9.47698 0.275056 0)
(9.42626 0.291078 0)
(9.37294 0.307861 0)
(9.317 0.325494 0)
(9.25842 0.344076 0)
(9.19721 0.36372 0)
(9.1334 0.38455 0)
(9.06703 0.406705 0)
(8.99821 0.43034 0)
(8.92707 0.455623 0)
(8.85383 0.482739 0)
(8.77877 0.511891 0)
(8.70229 0.543293 0)
(8.62489 0.577177 0)
(8.54723 0.613791 0)
(8.47015 0.653395 0)
(8.39466 0.696267 0)
(8.32196 0.742703 0)
(8.25346 0.793018 0)
(8.19071 0.847545 0)
(8.1353 0.906632 0)
(8.08873 0.970618 0)
(8.05218 1.0398 0)
(8.02617 1.11439 0)
(8.0102 1.19437 0)
(8.00233 1.27944 0)
(7.99879 1.36884 0)
(7.99366 1.46117 0)
(7.97872 1.55428 0)
(7.94358 1.64513 0)
(7.87599 1.72972 0)
(7.76254 1.80315 0)
(7.58961 1.85981 0)
(7.34475 1.89381 0)
(7.01843 1.89965 0)
(6.60593 1.87309 0)
(6.10929 1.8121 0)
(5.53867 1.71777 0)
(4.91257 1.5948 0)
(4.25646 1.45121 0)
(3.59936 1.29705 0)
(2.96861 1.14193 0)
(2.38383 0.992306 0)
(1.85294 0.850185 0)
(1.37303 0.714254 0)
(0.93564 0.583346 0)
(0.532857 0.461738 0)
(0.160054 0.365898 0)
(-0.182939 0.323285 0)
(-0.49859 0.365721 0)
(-0.797864 0.508301 0)
(-1.09618 0.738113 0)
(-1.40002 1.0151 0)
(-1.69453 1.28481 0)
(-1.95061 1.49161 0)
(-2.14832 1.59701 0)
(-2.2922 1.59764 0)
(-2.40671 1.52113 0)
(-2.51988 1.40382 0)
(-2.64874 1.27039 0)
(-2.79458 1.12817 0)
(-2.94746 0.973451 0)
(-3.09384 0.800154 0)
(-3.22212 0.604729 0)
(-3.32452 0.386381 0)
(-3.39605 0.145064 0)
(-3.43319 -0.12012 0)
(-3.43294 -0.411167 0)
(-3.39196 -0.730346 0)
(-3.30655 -1.0786 0)
(-3.17389 -1.45514 0)
(-2.99456 -1.85726 0)
(-2.77699 -2.28152 0)
(-2.53582 -2.72291 0)
(-2.26387 -3.15351 0)
(-1.8827 -3.42898 0)
(-1.28075 -3.0912 0)
(-0.478542 -1.37536 0)
(9.99981 0.00709094 0)
(9.99825 0.0211943 0)
(9.99495 0.0350771 0)
(9.98969 0.0486824 0)
(9.9824 0.0620844 0)
(9.97307 0.0753875 0)
(9.96169 0.0886521 0)
(9.94824 0.10191 0)
(9.93268 0.115194 0)
(9.91501 0.128548 0)
(9.8952 0.142009 0)
(9.87325 0.155612 0)
(9.84915 0.169387 0)
(9.82288 0.183368 0)
(9.79442 0.19759 0)
(9.76375 0.21209 0)
(9.73085 0.226907 0)
(9.6957 0.242084 0)
(9.65826 0.257666 0)
(9.61852 0.273703 0)
(9.57644 0.290252 0)
(9.53198 0.307373 0)
(9.48512 0.325134 0)
(9.43581 0.343608 0)
(9.38403 0.362878 0)
(9.32973 0.383033 0)
(9.27289 0.404173 0)
(9.21347 0.426405 0)
(9.15146 0.449845 0)
(9.08684 0.474621 0)
(9.01962 0.500866 0)
(8.94982 0.528719 0)
(8.87747 0.558327 0)
(8.80265 0.589835 0)
(8.72549 0.623387 0)
(8.64614 0.659118 0)
(8.56483 0.697152 0)
(8.48188 0.737594 0)
(8.39772 0.780529 0)
(8.31288 0.826016 0)
(8.22808 0.874101 0)
(8.14423 0.924819 0)
(8.06246 0.978222 0)
(7.98416 1.03441 0)
(7.91097 1.09356 0)
(7.84476 1.15598 0)
(7.78754 1.22214 0)
(7.74126 1.29266 0)
(7.7075 1.36826 0)
(7.68709 1.44966 0)
(7.67955 1.53735 0)
(7.6825 1.63131 0)
(7.69104 1.73068 0)
(7.69729 1.83339 0)
(7.69015 1.93588 0)
(7.65547 2.03297 0)
(7.57681 2.11794 0)
(7.43683 2.18299 0)
(7.21934 2.21995 0)
(6.91183 2.22143 0)
(6.50823 2.18208 0)
(6.01132 2.09999 0)
(5.43407 1.97757 0)
(4.79905 1.82174 0)
(4.13511 1.64296 0)
(3.47167 1.45321 0)
(2.83237 1.26357 0)
(2.23125 1.08276 0)
(1.6733 0.918581 0)
(1.15919 0.783439 0)
(0.691819 0.699842 0)
(0.279074 0.699261 0)
(-0.0727225 0.806114 0)
(-0.368287 1.01354 0)
(-0.623181 1.27386 0)
(-0.849044 1.51954 0)
(-1.0464 1.69059 0)
(-1.21325 1.75759 0)
(-1.35744 1.73245 0)
(-1.49547 1.64989 0)
(-1.64068 1.54134 0)
(-1.79668 1.42013 0)
(-1.95849 1.28384 0)
(-2.11722 1.12474 0)
(-2.26455 0.937726 0)
(-2.39472 0.722091 0)
(-2.504 0.479314 0)
(-2.58944 0.210223 0)
(-2.64841 -0.0860476 0)
(-2.67887 -0.411562 0)
(-2.67803 -0.768814 0)
(-2.6422 -1.1594 0)
(-2.56671 -1.58169 0)
(-2.44734 -2.02879 0)
(-2.28488 -2.48837 0)
(-2.09087 -2.94761 0)
(-1.87936 -3.4 0)
(-1.62224 -3.80086 0)
(-1.20694 -3.80371 0)
(-0.525326 -2.25707 0)
(9.9998 0.0079472 0)
(9.99816 0.0237858 0)
(9.99472 0.039499 0)
(9.9893 0.0550505 0)
(9.98192 0.0704628 0)
(9.97256 0.0857911 0)
(9.96118 0.101082 0)
(9.94777 0.11637 0)
(9.93229 0.131688 0)
(9.91474 0.147075 0)
(9.89509 0.162574 0)
(9.87335 0.178222 0)
(9.84949 0.194056 0)
(9.82351 0.210115 0)
(9.79539 0.226438 0)
(9.7651 0.243066 0)
(9.73264 0.26004 0)
(9.69799 0.277407 0)
(9.66113 0.295213 0)
(9.62203 0.313511 0)
(9.58067 0.332356 0)
(9.53704 0.35181 0)
(9.49112 0.371939 0)
(9.44287 0.392815 0)
(9.39229 0.414519 0)
(9.33937 0.437136 0)
(9.28408 0.46076 0)
(9.22643 0.485495 0)
(9.16641 0.511449 0)
(9.10403 0.538739 0)
(9.03931 0.567488 0)
(8.97228 0.597824 0)
(8.90298 0.629875 0)
(8.83146 0.663771 0)
(8.75781 0.699633 0)
(8.6821 0.737573 0)
(8.60444 0.777683 0)
(8.52496 0.820031 0)
(8.44381 0.864652 0)
(8.36116 0.91154 0)
(8.27721 0.960648 0)
(8.19221 1.01188 0)
(8.10648 1.06511 0)
(8.02046 1.12019 0)
(7.93473 1.17697 0)
(7.85013 1.23536 0)
(7.76777 1.29541 0)
(7.68919 1.35732 0)
(7.61632 1.42153 0)
(7.55153 1.48881 0)
(7.49741 1.5602 0)
(7.45657 1.63693 0)
(7.43106 1.72031 0)
(7.42165 1.81136 0)
(7.42697 1.91041 0)
(7.4425 2.0166 0)
(7.45981 2.1274 0)
(7.46608 2.23811 0)
(7.44442 2.34183 0)
(7.37496 2.42961 0)
(7.23695 2.49123 0)
(7.01167 2.51649 0)
(6.68586 2.49685 0)
(6.25502 2.42736 0)
(5.72571 2.3083 0)
(5.11581 2.14601 0)
(4.45203 1.95234 0)
(3.7649 1.74281 0)
(3.08315 1.53466 0)
(2.43015 1.34667 0)
(1.82504 1.20155 0)
(1.28695 1.12792 0)
(0.835702 1.15384 0)
(0.482974 1.28657 0)
(0.220033 1.49252 0)
(0.0205214 1.70544 0)
(-0.145691 1.85811 0)
(-0.299839 1.91547 0)
(-0.45302 1.88729 0)
(-0.612272 1.80716 0)
(-0.778167 1.70319 0)
(-0.946946 1.58439 0)
(-1.11342 1.44541 0)
(-1.27265 1.27797 0)
(-1.4209 1.07794 0)
(-1.55547 0.845832 0)
(-1.67415 0.583924 0)
(-1.77473 0.293458 0)
(-1.85519 -0.0261979 0)
(-1.91443 -0.377197 0)
(-1.95035 -0.762582 0)
(-1.96016 -1.18544 0)
(-1.93936 -1.64572 0)
(-1.88182 -2.13682 0)
(-1.78159 -2.64175 0)
(-1.63826 -3.13445 0)
(-1.46303 -3.59725 0)
(-1.27112 -4.03817 0)
(-1.01561 -4.29664 0)
(-0.482759 -3.09157 0)
(9.99979 0.00883962 0)
(9.99812 0.0264747 0)
(9.9946 0.0440283 0)
(9.98911 0.0614813 0)
(9.98167 0.0788434 0)
(9.9723 0.0961504 0)
(9.96097 0.113443 0)
(9.94763 0.130758 0)
(9.93227 0.148128 0)
(9.91488 0.165591 0)
(9.89544 0.183185 0)
(9.87394 0.200945 0)
(9.85037 0.21891 0)
(9.82471 0.237116 0)
(9.79694 0.255602 0)
(9.76707 0.274407 0)
(9.73506 0.293573 0)
(9.7009 0.313145 0)
(9.66459 0.333171 0)
(9.62609 0.353701 0)
(9.58539 0.374791 0)
(9.54249 0.396502 0)
(9.49737 0.418897 0)
(9.45 0.442048 0)
(9.4004 0.466032 0)
(9.34855 0.49093 0)
(9.29445 0.516833 0)
(9.23811 0.543835 0)
(9.17955 0.572039 0)
(9.1188 0.601552 0)
(9.05589 0.632485 0)
(8.99087 0.664954 0)
(8.92381 0.699076 0)
(8.85478 0.734964 0)
(8.78389 0.772727 0)
(8.71123 0.812465 0)
(8.63694 0.854262 0)
(8.56115 0.898181 0)
(8.48397 0.944256 0)
(8.40555 0.99249 0)
(8.326 1.04284 0)
(8.24541 1.09524 0)
(8.16386 1.14953 0)
(8.08139 1.20557 0)
(7.99804 1.26313 0)
(7.91387 1.32198 0)
(7.82899 1.38191 0)
(7.74371 1.44274 0)
(7.65859 1.5044 0)
(7.57461 1.56699 0)
(7.49328 1.63085 0)
(7.41677 1.69664 0)
(7.34792 1.76539 0)
(7.29006 1.8385 0)
(7.24668 1.91762 0)
(7.22069 2.00444 0)
(7.21349 2.10028 0)
(7.22368 2.20548 0)
(7.24575 2.31866 0)
(7.26911 2.43606 0)
(7.27765 2.55103 0)
(7.25046 2.65406 0)
(7.16377 2.7335 0)
(6.99408 2.77696 0)
(6.72221 2.77354 0)
(6.3375 2.71623 0)
(5.84117 2.60418 0)
(5.24759 2.44384 0)
(4.58292 2.24904 0)
(3.88143 2.04001 0)
(3.18139 1.8427 0)
(2.52245 1.68826 0)
(1.9436 1.60956 0)
(1.47656 1.62832 0)
(1.13237 1.73531 0)
(0.892317 1.88406 0)
(0.716149 2.0105 0)
(0.56228 2.06916 0)
(0.404708 2.05154 0)
(0.235593 1.97896 0)
(0.0596449 1.87626 0)
(-0.115223 1.75396 0)
(-0.283897 1.60863 0)
(-0.444391 1.43275 0)
(-0.595907 1.22234 0)
(-0.737464 0.977793 0)
(-0.867615 0.701523 0)
(-0.984497 0.39491 0)
(-1.08608 0.0576946 0)
(-1.17156 -0.312351 0)
(-1.23973 -0.71872 0)
(-1.28838 -1.16559 0)
(-1.31394 -1.65484 0)
(-1.31087 -2.18228 0)
(-1.27161 -2.73183 0)
(-1.18836 -3.27088 0)
(-1.05935 -3.76099 0)
(-0.90857 -4.204 0)
(-0.772179 -4.58948 0)
(-0.383131 -3.79662 0)
(9.99979 0.00974872 0)
(9.9981 0.0292066 0)
(9.99455 0.0486058 0)
(9.98903 0.0679426 0)
(9.98159 0.0872273 0)
(9.97225 0.106486 0)
(9.96098 0.125753 0)
(9.94775 0.14506 0)
(9.93253 0.164438 0)
(9.91532 0.183923 0)
(9.8961 0.203549 0)
(9.87486 0.223352 0)
(9.85158 0.243371 0)
(9.82626 0.263641 0)
(9.79888 0.284203 0)
(9.76944 0.305097 0)
(9.73791 0.326367 0)
(9.70428 0.348057 0)
(9.66854 0.370217 0)
(9.63068 0.392896 0)
(9.59068 0.416152 0)
(9.54854 0.440041 0)
(9.50424 0.464627 0)
(9.45778 0.489978 0)
(9.40916 0.516167 0)
(9.35837 0.54327 0)
(9.30542 0.571371 0)
(9.25034 0.600558 0)
(9.19313 0.630921 0)
(9.13383 0.662557 0)
(9.07248 0.695565 0)
(9.00914 0.730046 0)
(8.94388 0.7661 0)
(8.87679 0.803824 0)
(8.80796 0.843313 0)
(8.73752 0.884649 0)
(8.66559 0.927904 0)
(8.59233 0.973133 0)
(8.51787 1.02037 0)
(8.44238 1.06963 0)
(8.366 1.12089 0)
(8.28885 1.17409 0)
(8.21105 1.22916 0)
(8.13263 1.28598 0)
(8.05361 1.34439 0)
(7.97392 1.40421 0)
(7.89344 1.46523 0)
(7.81204 1.52722 0)
(7.72955 1.58996 0)
(7.64593 1.65324 0)
(7.56131 1.71692 0)
(7.47617 1.78097 0)
(7.39156 1.84556 0)
(7.30919 1.91117 0)
(7.23166 1.97865 0)
(7.1624 2.04933 0)
(7.10549 2.12503 0)
(7.0651 2.20787 0)
(7.04451 2.29993 0)
(7.04474 2.40256 0)
(7.06283 2.51557 0)
(7.0903 2.63618 0)
(7.11214 2.75829 0)
(7.10702 2.87227 0)
(7.0491 2.9656 0)
(6.9114 3.02453 0)
(6.67057 3.0365 0)
(6.31196 2.99305 0)
(5.834 2.8924 0)
(5.2507 2.74141 0)
(4.59193 2.55663 0)
(3.90148 2.36458 0)
(3.23303 2.19993 0)
(2.64147 2.09753 0)
(2.16737 2.07541 0)
(1.82033 2.11941 0)
(1.57531 2.18607 0)
(1.38787 2.22768 0)
(1.21768 2.2171 0)
(1.04367 2.15463 0)
(0.863875 2.05443 0)
(0.685001 1.92734 0)
(0.512613 1.77438 0)
(0.348149 1.59088 0)
(0.190952 1.37295 0)
(0.0408295 1.12002 0)
(-0.101696 0.833601 0)
(-0.235276 0.515318 0)
(-0.357668 0.165067 0)
(-0.467486 -0.219505 0)
(-0.564201 -0.642036 0)
(-0.646163 -1.10726 0)
(-0.710467 -1.61855 0)
(-0.752784 -2.17407 0)
(-0.76667 -2.76052 0)
(-0.743717 -3.34527 0)
(-0.675599 -3.87719 0)
(-0.571846 -4.32539 0)
(-0.519556 -4.73068 0)
(-0.257259 -4.3269 0)
(9.99979 0.0106635 0)
(9.9981 0.0319527 0)
(9.99455 0.0531964 0)
(9.98903 0.074402 0)
(9.98161 0.0955825 0)
(9.97233 0.11676 0)
(9.96115 0.137963 0)
(9.94805 0.159221 0)
(9.93299 0.180566 0)
(9.91598 0.202031 0)
(9.897 0.22365 0)
(9.87604 0.245459 0)
(9.85309 0.267495 0)
(9.82813 0.289797 0)
(9.80116 0.312402 0)
(9.77217 0.335353 0)
(9.74114 0.358691 0)
(9.70806 0.382462 0)
(9.67293 0.406715 0)
(9.63573 0.431498 0)
(9.59645 0.456865 0)
(9.5551 0.482875 0)
(9.51165 0.509587 0)
(9.46612 0.537065 0)
(9.41849 0.56538 0)
(9.36879 0.594602 0)
(9.31701 0.624809 0)
(9.26317 0.656082 0)
(9.2073 0.688502 0)
(9.14944 0.722158 0)
(9.08962 0.757135 0)
(9.02791 0.793522 0)
(8.96436 0.831405 0)
(8.89907 0.870867 0)
(8.83211 0.911986 0)
(8.76361 0.95483 0)
(8.69369 0.999457 0)
(8.62247 1.04591 0)
(8.55011 1.09422 0)
(8.47675 1.14438 0)
(8.40255 1.1964 0)
(8.32765 1.25023 0)
(8.25219 1.30581 0)
(8.17627 1.36307 0)
(8.09997 1.4219 0)
(8.02334 1.4822 0)
(7.94634 1.54382 0)
(7.86889 1.60662 0)
(7.79083 1.67042 0)
(7.71193 1.73503 0)
(7.63194 1.80024 0)
(7.5506 1.86583 0)
(7.46778 1.93159 0)
(7.38359 1.99737 0)
(7.2986 2.06316 0)
(7.21406 2.12923 0)
(7.13213 2.19625 0)
(7.05603 2.26545 0)
(6.98999 2.33871 0)
(6.93884 2.41849 0)
(6.90711 2.50752 0)
(6.89753 2.60812 0)
(6.90908 2.72116 0)
(6.93494 2.84491 0)
(6.96102 2.97392 0)
(6.96581 3.09859 0)
(6.92207 3.2057 0)
(6.80069 3.28005 0)
(6.57598 3.30721 0)
(6.23174 3.27677 0)
(5.76688 3.1858 0)
(5.19952 3.04216 0)
(4.5688 2.86688 0)
(3.93159 2.69299 0)
(3.35006 2.55563 0)
(2.87045 2.47454 0)
(2.50524 2.44153 0)
(2.23295 2.42637 0)
(2.01588 2.39656 0)
(1.82151 2.33367 0)
(1.63347 2.23499 0)
(1.44906 2.10464 0)
(1.27056 1.94499 0)
(1.09914 1.75458 0)
(0.933941 1.53079 0)
(0.773866 1.27238 0)
(0.618654 0.97959 0)
(0.469103 0.653465 0)
(0.326902 0.293812 0)
(0.194106 -0.101604 0)
(0.0717302 -0.536293 0)
(-0.0393732 -1.01546 0)
(-0.137007 -1.54353 0)
(-0.217986 -2.12042 0)
(-0.277656 -2.73493 0)
(-0.309964 -3.35614 0)
(-0.308829 -3.92938 0)
(-0.268275 -4.39679 0)
(-0.279962 -4.77003 0)
(-0.129829 -4.66726 0)
(9.99979 0.0115775 0)
(9.99811 0.0346947 0)
(9.99457 0.0577739 0)
(9.98908 0.0808307 0)
(9.98172 0.103881 0)
(9.97252 0.126946 0)
(9.96145 0.150052 0)
(9.94849 0.173228 0)
(9.93362 0.196503 0)
(9.91683 0.219912 0)
(9.89811 0.243486 0)
(9.87744 0.267262 0)
(9.85483 0.291275 0)
(9.83026 0.315564 0)
(9.80372 0.340166 0)
(9.7752 0.365124 0)
(9.74469 0.390479 0)
(9.71219 0.416276 0)
(9.67768 0.442563 0)
(9.64116 0.469387 0)
(9.60262 0.496803 0)
(9.56207 0.524865 0)
(9.51949 0.55363 0)
(9.47489 0.583162 0)
(9.42827 0.613524 0)
(9.37965 0.644785 0)
(9.32904 0.677015 0)
(9.27645 0.710287 0)
(9.22191 0.744678 0)
(9.16547 0.780265 0)
(9.10716 0.817124 0)
(9.04703 0.855333 0)
(8.98515 0.894967 0)
(8.9216 0.936095 0)
(8.85646 0.978784 0)
(8.78983 1.02309 0)
(8.72181 1.06906 0)
(8.65253 1.11672 0)
(8.5821 1.1661 0)
(8.51067 1.21719 0)
(8.43836 1.26999 0)
(8.36531 1.32446 0)
(8.29165 1.38055 0)
(8.21749 1.43821 0)
(8.14295 1.49735 0)
(8.06811 1.55789 0)
(7.99304 1.61974 0)
(7.91776 1.68282 0)
(7.84226 1.74702 0)
(7.76647 1.81222 0)
(7.69024 1.87831 0)
(7.61336 1.94512 0)
(7.53554 2.01245 0)
(7.45643 2.08007 0)
(7.37573 2.14771 0)
(7.29326 2.21512 0)
(7.20921 2.28215 0)
(7.1244 2.3489 0)
(7.04057 2.41592 0)
(6.96065 2.48437 0)
(6.88886 2.55627 0)
(6.83045 2.63443 0)
(6.79082 2.72225 0)
(6.77399 2.823 0)
(6.78039 2.93859 0)
(6.80445 3.06817 0)
(6.83272 3.20659 0)
(6.84345 3.34371 0)
(6.80844 3.46467 0)
(6.69718 3.55172 0)
(6.48308 3.58739 0)
(6.15073 3.55889 0)
(5.70311 3.46339 0)
(5.16706 3.31295 0)
(4.59249 3.13509 0)
(4.03996 2.96385 0)
(3.55873 2.82352 0)
(3.16893 2.71701 0)
(2.8608 2.62861 0)
(2.60907 2.53698 0)
(2.38956 2.4264 0)
(2.18744 2.28941 0)
(1.99631 2.12343 0)
(1.81353 1.92687 0)
(1.63714 1.69797 0)
(1.46536 1.43537 0)
(1.29714 1.13852 0)
(1.13249 0.807397 0)
(0.97232 0.441365 0)
(0.818656 0.038338 0)
(0.672973 -0.405488 0)
(0.535488 -0.895186 0)
(0.408003 -1.43568 0)
(0.292678 -2.02788 0)
(0.192088 -2.66183 0)
(0.109035 -3.30772 0)
(0.0446409 -3.9104 0)
(0.00892221 -4.39951 0)
(-0.0632452 -4.74515 0)
(-0.0170529 -4.81841 0)
(9.9998 0.0124861 0)
(9.99813 0.0374198 0)
(9.99462 0.0623198 0)
(9.98918 0.0872075 0)
(9.98188 0.112102 0)
(9.97278 0.137025 0)
(9.96185 0.162002 0)
(9.94905 0.18706 0)
(9.93438 0.21223 0)
(9.91782 0.237544 0)
(9.89938 0.263034 0)
(9.87904 0.288734 0)
(9.85678 0.314682 0)
(9.83261 0.340913 0)
(9.80651 0.367467 0)
(9.77848 0.394385 0)
(9.74851 0.421707 0)
(9.7166 0.449479 0)
(9.68273 0.477746 0)
(9.6469 0.506556 0)
(9.60912 0.535961 0)
(9.56938 0.566012 0)
(9.52767 0.596767 0)
(9.48402 0.628283 0)
(9.43841 0.66062 0)
(9.39087 0.693844 0)
(9.34141 0.728018 0)
(9.29006 0.76321 0)
(9.23684 0.799489 0)
(9.18178 0.836924 0)
(9.12493 0.875584 0)
(9.06635 0.915536 0)
(9.00609 0.956845 0)
(8.94422 0.999572 0)
(8.88082 1.04377 0)
(8.81598 1.08949 0)
(8.7498 1.13676 0)
(8.68238 1.18562 0)
(8.61382 1.23607 0)
(8.54425 1.28812 0)
(8.47377 1.34175 0)
(8.4025 1.39693 0)
(8.33056 1.45362 0)
(8.25803 1.51175 0)
(8.18503 1.57127 0)
(8.11165 1.63211 0)
(8.03796 1.69418 0)
(7.96404 1.75743 0)
(7.88993 1.82176 0)
(7.81569 1.88712 0)
(7.74131 1.95344 0)
(7.66676 2.02064 0)
(7.59195 2.08861 0)
(7.51668 2.15724 0)
(7.44066 2.22632 0)
(7.36352 2.29562 0)
(7.28481 2.36483 0)
(7.20417 2.43363 0)
(7.1215 2.50179 0)
(7.03728 2.56933 0)
(6.95292 2.63672 0)
(6.87118 2.7052 0)
(6.79636 2.777 0)
(6.73413 2.85542 0)
(6.69075 2.94461 0)
(6.67138 3.0487 0)
(6.67761 3.17037 0)
(6.70467 3.30894 0)
(6.7392 3.45849 0)
(6.75866 3.60677 0)
(6.73342 3.73558 0)
(6.63173 3.82322 0)
(6.42717 3.84915 0)
(6.10782 3.80069 0)
(5.6847 3.6801 0)
(5.19414 3.50728 0)
(4.68842 3.31305 0)
(4.2167 3.12529 0)
(3.80794 2.957 0)
(3.46664 2.80478 0)
(3.18102 2.65589 0)
(2.93463 2.49686 0)
(2.71378 2.31782 0)
(2.50928 2.11276 0)
(2.31524 1.87805 0)
(2.12781 1.61142 0)
(1.94458 1.31143 0)
(1.76446 0.977014 0)
(1.58747 0.606808 0)
(1.4146 0.198509 0)
(1.24743 -0.25205 0)
(1.0862 -0.749426 0)
(0.931679 -1.29848 0)
(0.784767 -1.90036 0)
(0.645807 -2.54542 0)
(0.514177 -3.20401 0)
(0.38844 -3.82066 0)
(0.269965 -4.32265 0)
(0.127946 -4.66852 0)
(0.0745677 -4.79397 0)
(9.9998 0.0133863 0)
(9.99815 0.0401191 0)
(9.99468 0.0668206 0)
(9.9893 0.0935165 0)
(9.98209 0.120229 0)
(9.9731 0.14698 0)
(9.96232 0.173795 0)
(9.9497 0.200702 0)
(9.93525 0.22773 0)
(9.91895 0.25491 0)
(9.90079 0.282276 0)
(9.88078 0.309861 0)
(9.8589 0.337701 0)
(9.83514 0.365833 0)
(9.80951 0.394294 0)
(9.78198 0.423125 0)
(9.75256 0.452366 0)
(9.72125 0.482062 0)
(9.68804 0.512257 0)
(9.65292 0.542997 0)
(9.6159 0.574333 0)
(9.57697 0.606314 0)
(9.53615 0.638994 0)
(9.49344 0.672428 0)
(9.44884 0.706674 0)
(9.40238 0.741789 0)
(9.35407 0.777835 0)
(9.30393 0.814874 0)
(9.25199 0.852966 0)
(9.19829 0.892176 0)
(9.14287 0.932563 0)
(9.08578 0.974188 0)
(9.02708 1.01711 0)
(8.96683 1.06137 0)
(8.9051 1.10703 0)
(8.84198 1.15412 0)
(8.77755 1.20267 0)
(8.7119 1.2527 0)
(8.64513 1.30422 0)
(8.57735 1.35724 0)
(8.50864 1.41173 0)
(8.4391 1.46767 0)
(8.36884 1.52501 0)
(8.29794 1.58371 0)
(8.22649 1.64371 0)
(8.15457 1.70495 0)
(8.08224 1.76735 0)
(8.00957 1.83084 0)
(7.93664 1.89537 0)
(7.86349 1.96086 0)
(7.79018 2.02726 0)
(7.71678 2.09453 0)
(7.64331 2.16261 0)
(7.56977 2.23144 0)
(7.4961 2.30096 0)
(7.42215 2.37105 0)
(7.34765 2.44153 0)
(7.27219 2.51217 0)
(7.19526 2.58265 0)
(7.11635 2.65264 0)
(7.03519 2.72186 0)
(6.95205 2.79031 0)
(6.86824 2.8585 0)
(6.78654 2.92781 0)
(6.71159 3.00084 0)
(6.64977 3.08142 0)
(6.60833 3.17437 0)
(6.59351 3.28434 0)
(6.60766 3.41398 0)
(6.64594 3.56151 0)
(6.69381 3.71845 0)
(6.72659 3.86861 0)
(6.71227 3.98927 0)
(6.61808 4.05551 0)
(6.42023 4.04748 0)
(6.11423 3.95874 0)
(5.72031 3.80064 0)
(5.27842 3.59842 0)
(4.83365 3.38002 0)
(4.42073 3.16472 0)
(4.05627 2.95833 0)
(3.74083 2.75589 0)
(3.46599 2.54773 0)
(3.22094 2.32433 0)
(2.99614 2.0784 0)
(2.78435 1.80498 0)
(2.58063 1.50073 0)
(2.382 1.16317 0)
(2.18699 0.789849 0)
(1.99522 0.377816 0)
(1.80753 -0.0770223 0)
(1.62384 -0.579223 0)
(1.44369 -1.13307 0)
(1.26632 -1.73895 0)
(1.08959 -2.38649 0)
(0.909529 -3.04559 0)
(0.721579 -3.66127 0)
(0.523625 -4.16259 0)
(0.299376 -4.50282 0)
(0.146774 -4.64652 0)
(9.9998 0.0142759 0)
(9.99817 0.042786 0)
(9.99475 0.071266 0)
(9.98944 0.0997449 0)
(9.98233 0.128247 0)
(9.97348 0.156795 0)
(9.96285 0.185416 0)
(9.95043 0.214137 0)
(9.9362 0.242987 0)
(9.92017 0.271997 0)
(9.90232 0.3012 0)
(9.88265 0.330629 0)
(9.86116 0.360319 0)
(9.83783 0.390307 0)
(9.81267 0.420631 0)
(9.78566 0.451328 0)
(9.75681 0.482441 0)
(9.72611 0.514011 0)
(9.69356 0.546082 0)
(9.65915 0.578698 0)
(9.6229 0.611909 0)
(9.58481 0.645761 0)
(9.54487 0.680306 0)
(9.5031 0.715597 0)
(9.45951 0.751685 0)
(9.41411 0.788627 0)
(9.36693 0.826479 0)
(9.31799 0.865296 0)
(9.26731 0.905135 0)
(9.21494 0.946052 0)
(9.16091 0.988103 0)
(9.10527 1.03134 0)
(9.04807 1.07581 0)
(8.98937 1.12156 0)
(8.92925 1.16863 0)
(8.86777 1.21705 0)
(8.80501 1.26685 0)
(8.74106 1.31804 0)
(8.67599 1.37063 0)
(8.60991 1.42462 0)
(8.54289 1.47999 0)
(8.47502 1.53672 0)
(8.4064 1.59477 0)
(8.33709 1.65409 0)
(8.26717 1.71464 0)
(8.19671 1.77635 0)
(8.12578 1.83917 0)
(8.05443 1.90302 0)
(7.98272 1.96784 0)
(7.91069 2.03357 0)
(7.83842 2.10015 0)
(7.76594 2.16752 0)
(7.69334 2.23564 0)
(7.62067 2.30448 0)
(7.54799 2.37399 0)
(7.47534 2.44414 0)
(7.40269 2.51487 0)
(7.32992 2.58611 0)
(7.25678 2.6577 0)
(7.18287 2.72941 0)
(7.10764 2.80095 0)
(7.03054 2.87196 0)
(6.95122 2.94217 0)
(6.86995 3.01157 0)
(6.78815 3.08076 0)
(6.70898 3.15133 0)
(6.63776 3.22621 0)
(6.58186 3.30971 0)
(6.5496 3.40695 0)
(6.54792 3.52238 0)
(6.57892 3.65743 0)
(6.63611 3.80758 0)
(6.70186 3.9602 0)
(6.74786 4.09447 0)
(6.73983 4.18463 0)
(6.64666 4.20702 0)
(6.45143 4.14854 0)
(6.15901 4.01221 0)
(5.79518 3.81578 0)
(5.39697 3.58362 0)
(4.99968 3.33695 0)
(4.62743 3.08761 0)
(4.29073 2.8375 0)
(3.98945 2.58195 0)
(3.71776 2.31377 0)
(3.46819 2.02596 0)
(3.23393 1.71273 0)
(3.00977 1.36951 0)
(2.7922 0.992287 0)
(2.57906 0.577071 0)
(2.36926 0.11953 0)
(2.16219 -0.384859 0)