# vtk DataFile Version 2.0
sampleSurface
ASCII
DATASET POLYDATA
POINTS 652 double
0 0 0
0.02 0 0
0.02 0 0.1
0 0 0.1
0.04 0 0
0.04 0 0.1
0.06 0 0
0.06 0 0.1
0.08 0 0
0.08 0 0.1
0.1 0 0
0.1 0 0.1
0.12 0 0
0.12 0 0.1
0.14 0 0
0.14 0 0.1
0.16 0 0
0.16 0 0.1
0.18 0 0
0.18 0 0.1
0.2 0 0
0.2 0 0.1
0.22 0 0
0.22 0 0.1
0.24 0 0
0.24 0 0.1
0.26 0 0
0.26 0 0.1
0.28 0 0
0.28 0 0.1
0.3 0 0
0.3 0 0.1
0.32 0 0
0.32 0 0.1
0.34 0 0
0.34 0 0.1
0.36 0 0
0.36 0 0.1
0.38 0 0
0.38 0 0.1
0.4 0 0
0.4 0 0.1
0.42 0 0
0.42 0 0.1
0.44 0 0
0.44 0 0.1
0.46 0 0
0.46 0 0.1
0.48 0 0
0.48 0 0.1
0.5 0 0
0.5 0 0.1
0.52 0 0
0.52 0 0.1
0.54 0 0
0.54 0 0.1
0.56 0 0
0.56 0 0.1
0.58 0 0
0.58 0 0.1
0.6 0 0
0.6 0 0.1
0.62 0 0
0.62 0 0.1
0.64 0 0
0.64 0 0.1
0.66 0 0
0.66 0 0.1
0.68 0 0
0.68 0 0.1
0.7 0 0
0.7 0 0.1
0.72 0 0
0.72 0 0.1
0.74 0 0
0.74 0 0.1
0.76 0 0
0.76 0 0.1
0.78 0 0
0.78 0 0.1
0.8 0 0
0.8 0 0.1
0.82 0 0
0.82 0 0.1
0.84 0 0
0.84 0 0.1
0.86 0 0
0.86 0 0.1
0.88 0 0
0.88 0 0.1
0.9 0 0
0.9 0 0.1
0.92 0 0
0.92 0 0.1
0.94 0 0
0.94 0 0.1
0.96 0 0
0.96 0 0.1
0.98 0 0
0.98 0 0.1
1 0 0
1 0 0.1
1.02 0 0
1.02 0 0.1
1.04 0 0
1.04 0 0.1
1.06 0 0
1.06 0 0.1
1.08 0 0
1.08 0 0.1
1.1 0 0
1.1 0 0.1
1.12 0 0
1.12 0 0.1
1.14 0 0
1.14 0 0.1
1.16 0 0
1.16 0 0.1
1.18 0 0
1.18 0 0.1
1.2 0 0
1.2 0 0.1
1.22 0 0
1.22 0 0.1
1.24 0 0
1.24 0 0.1
1.26 0 0
1.26 0 0.1
1.28 0 0
1.28 0 0.1
1.3 0 0
1.3 0 0.1
1.32 0 0
1.32 0 0.1
1.34 0 0
1.34 0 0.1
1.36 0 0
1.36 0 0.1
1.38 0 0
1.38 0 0.1
1.4 0 0
1.4 0 0.1
1.42 0 0
1.42 0 0.1
1.44 0 0
1.44 0 0.1
1.46 0 0
1.46 0 0.1
1.48 0 0
1.48 0 0.1
1.5 0 0
1.5 0 0.1
1.52 0 0
1.52 0 0.1
1.54 0 0
1.54 0 0.1
1.56 0 0
1.56 0 0.1
1.58 0 0
1.58 0 0.1
1.6 0 0
1.6 0 0.1
1.62 0 0
1.62 0 0.1
1.64 0 0
1.64 0 0.1
1.66 0 0
1.66 0 0.1
1.68 0 0
1.68 0 0.1
1.7 0 0
1.7 0 0.1
1.72 0 0
1.72 0 0.1
1.74 0 0
1.74 0 0.1
1.76 0 0
1.76 0 0.1
1.78 0 0
1.78 0 0.1
1.8 0 0
1.8 0 0.1
1.82 0 0
1.82 0 0.1
1.84 0 0
1.84 0 0.1
1.86 0 0
1.86 0 0.1
1.88 0 0
1.88 0 0.1
1.9 0 0
1.9 0 0.1
1.92 0 0
1.92 0 0.1
1.94 0 0
1.94 0 0.1
1.96 0 0
1.96 0 0.1
1.98 0 0
1.98 0 0.1
2 0 0
2 0 0.1
2 0.02 0
2 0.02 0.1
2 0.04 0
2 0.04 0.1
2 0.06 0
2 0.06 0.1
2 0.08 0
2 0.08 0.1
2 0.1 0
2 0.1 0.1
2 0.12 0
2 0.12 0.1
2 0.14 0
2 0.14 0.1
2 0.16 0
2 0.16 0.1
2 0.18 0
2 0.18 0.1
2 0.2 0
2 0.2 0.1
2 0.22 0
2 0.22 0.1
2 0.24 0
2 0.24 0.1
2 0.26 0
2 0.26 0.1
2 0.28 0
2 0.28 0.1
2 0.3 0
2 0.3 0.1
2 0.32 0
2 0.32 0.1
2 0.34 0
2 0.34 0.1
2 0.36 0
2 0.36 0.1
2 0.38 0
2 0.38 0.1
2 0.4 0
2 0.4 0.1
2 0.42 0
2 0.42 0.1
2 0.44 0
2 0.44 0.1
2 0.46 0
2 0.46 0.1
2 0.48 0
2 0.48 0.1
2 0.5 0
2 0.5 0.1
2 0.52 0
2 0.52 0.1
2 0.54 0
2 0.54 0.1
2 0.56 0
2 0.56 0.1
2 0.58 0
2 0.58 0.1
2 0.6 0
2 0.6 0.1
2 0.62 0
2 0.62 0.1
2 0.64 0
2 0.64 0.1
2 0.66 0
2 0.66 0.1
2 0.68 0
2 0.68 0.1
2 0.7 0
2 0.7 0.1
2 0.72 0
2 0.72 0.1
2 0.74 0
2 0.74 0.1
2 0.76 0
2 0.76 0.1
2 0.78 0
2 0.78 0.1
2 0.8 0
2 0.8 0.1
2 0.82 0
2 0.82 0.1
2 0.84 0
2 0.84 0.1
2 0.86 0
2 0.86 0.1
2 0.88 0
2 0.88 0.1
2 0.9 0
2 0.9 0.1
2 0.92 0
2 0.92 0.1
2 0.94 0
2 0.94 0.1
2 0.96 0
2 0.96 0.1
2 0.98 0
2 0.98 0.1
2 1 0
2 1 0.1
2.02 1 0
2.02 1 0.1
2.04 1 0
2.04 1 0.1
2.06 1 0
2.06 1 0.1
2.08 1 0
2.08 1 0.1
2.1 1 0
2.1 1 0.1
2.12 1 0
2.12 1 0.1
2.14 1 0
2.14 1 0.1
2.16 1 0
2.16 1 0.1
2.18 1 0
2.18 1 0.1
2.2 1 0
2.2 1 0.1
2.22 1 0
2.22 1 0.1
2.24 1 0
2.24 1 0.1
2.26 1 0
2.26 1 0.1
2.28 1 0
2.28 1 0.1
2.3 1 0
2.3 1 0.1
2.32 1 0
2.32 1 0.1
2.34 1 0
2.34 1 0.1
2.36 1 0
2.36 1 0.1
2.38 1 0
2.38 1 0.1
2.4 1 0
2.4 1 0.1
2.42 1 0
2.42 1 0.1
2.44 1 0
2.44 1 0.1
2.46 1 0
2.46 1 0.1
2.48 1 0
2.48 1 0.1
2.5 1 0
2.5 1 0.1
2.5 0 0
2.5 0 0.1
2.5 0.02 0.1
2.5 0.02 0
2.5 0.04 0.1
2.5 0.04 0
2.5 0.06 0.1
2.5 0.06 0
2.5 0.08 0.1
2.5 0.08 0
2.5 0.1 0.1
2.5 0.1 0
2.5 0.12 0.1
2.5 0.12 0
2.5 0.14 0.1
2.5 0.14 0
2.5 0.16 0.1
2.5 0.16 0
2.5 0.18 0.1
2.5 0.18 0
2.5 0.2 0.1
2.5 0.2 0
2.5 0.22 0.1
2.5 0.22 0
2.5 0.24 0.1
2.5 0.24 0
2.5 0.26 0.1
2.5 0.26 0
2.5 0.28 0.1
2.5 0.28 0
2.5 0.3 0.1
2.5 0.3 0
2.5 0.32 0.1
2.5 0.32 0
2.5 0.34 0.1
2.5 0.34 0
2.5 0.36 0.1
2.5 0.36 0
2.5 0.38 0.1
2.5 0.38 0
2.5 0.4 0.1
2.5 0.4 0
2.5 0.42 0.1
2.5 0.42 0
2.5 0.44 0.1
2.5 0.44 0
2.5 0.46 0.1
2.5 0.46 0
2.5 0.48 0.1
2.5 0.48 0
2.5 0.5 0.1
2.5 0.5 0
2.5 0.52 0.1
2.5 0.52 0
2.5 0.54 0.1
2.5 0.54 0
2.5 0.56 0.1
2.5 0.56 0
2.5 0.58 0.1
2.5 0.58 0
2.5 0.6 0.1
2.5 0.6 0
2.5 0.62 0.1
2.5 0.62 0
2.5 0.64 0.1
2.5 0.64 0
2.5 0.66 0.1
2.5 0.66 0
2.5 0.68 0.1
2.5 0.68 0
2.5 0.7 0.1
2.5 0.7 0
2.5 0.72 0.1
2.5 0.72 0
2.5 0.74 0.1
2.5 0.74 0
2.5 0.76 0.1
2.5 0.76 0
2.5 0.78 0.1
2.5 0.78 0
2.5 0.8 0.1
2.5 0.8 0
2.5 0.82 0.1
2.5 0.82 0
2.5 0.84 0.1
2.5 0.84 0
2.5 0.86 0.1
2.5 0.86 0
2.5 0.88 0.1
2.5 0.88 0
2.5 0.9 0.1
2.5 0.9 0
2.5 0.92 0.1
2.5 0.92 0
2.5 0.94 0.1
2.5 0.94 0
2.5 0.96 0.1
2.5 0.96 0
2.5 0.98 0.1
2.5 0.98 0
2.52 0 0
2.52 0 0.1
2.54 0 0
2.54 0 0.1
2.56 0 0
2.56 0 0.1
2.58 0 0
2.58 0 0.1
2.6 0 0
2.6 0 0.1
2.62 0 0
2.62 0 0.1
2.64 0 0
2.64 0 0.1
2.66 0 0
2.66 0 0.1
2.68 0 0
2.68 0 0.1
2.7 0 0
2.7 0 0.1
2.72 0 0
2.72 0 0.1
2.74 0 0
2.74 0 0.1
2.76 0 0
2.76 0 0.1
2.78 0 0
2.78 0 0.1
2.8 0 0
2.8 0 0.1
2.82 0 0
2.82 0 0.1
2.84 0 0
2.84 0 0.1
2.86 0 0
2.86 0 0.1
2.88 0 0
2.88 0 0.1
2.9 0 0
2.9 0 0.1
2.92 0 0
2.92 0 0.1
2.94 0 0
2.94 0 0.1
2.96 0 0
2.96 0 0.1
2.98 0 0
2.98 0 0.1
3 0 0
3 0 0.1
3.02 0 0
3.02 0 0.1
3.04 0 0
3.04 0 0.1
3.06 0 0
3.06 0 0.1
3.08 0 0
3.08 0 0.1
3.1 0 0
3.1 0 0.1
3.12 0 0
3.12 0 0.1
3.14 0 0
3.14 0 0.1
3.16 0 0
3.16 0 0.1
3.18 0 0
3.18 0 0.1
3.2 0 0
3.2 0 0.1
3.22 0 0
3.22 0 0.1
3.24 0 0
3.24 0 0.1
3.26 0 0
3.26 0 0.1
3.28 0 0
3.28 0 0.1
3.3 0 0
3.3 0 0.1
3.32 0 0
3.32 0 0.1
3.34 0 0
3.34 0 0.1
3.36 0 0
3.36 0 0.1
3.38 0 0
3.38 0 0.1
3.4 0 0
3.4 0 0.1
3.42 0 0
3.42 0 0.1
3.44 0 0
3.44 0 0.1
3.46 0 0
3.46 0 0.1
3.48 0 0
3.48 0 0.1
3.5 0 0
3.5 0 0.1
3.52 0 0
3.52 0 0.1
3.54 0 0
3.54 0 0.1
3.56 0 0
3.56 0 0.1
3.58 0 0
3.58 0 0.1
3.6 0 0
3.6 0 0.1
3.62 0 0
3.62 0 0.1
3.64 0 0
3.64 0 0.1
3.66 0 0
3.66 0 0.1
3.68 0 0
3.68 0 0.1
3.7 0 0
3.7 0 0.1
3.72 0 0
3.72 0 0.1
3.74 0 0
3.74 0 0.1
3.76 0 0
3.76 0 0.1
3.78 0 0
3.78 0 0.1
3.8 0 0
3.8 0 0.1
3.82 0 0
3.82 0 0.1
3.84 0 0
3.84 0 0.1
3.86 0 0
3.86 0 0.1
3.88 0 0
3.88 0 0.1
3.9 0 0
3.9 0 0.1
3.92 0 0
3.92 0 0.1
3.94 0 0
3.94 0 0.1
3.96 0 0
3.96 0 0.1
3.98 0 0
3.98 0 0.1
4 0 0
4 0 0.1
4.02 0 0
4.02 0 0.1
4.04 0 0
4.04 0 0.1
4.06 0 0
4.06 0 0.1
4.08 0 0
4.08 0 0.1
4.1 0 0
4.1 0 0.1
4.12 0 0
4.12 0 0.1
4.14 0 0
4.14 0 0.1
4.16 0 0
4.16 0 0.1
4.18 0 0
4.18 0 0.1
4.2 0 0
4.2 0 0.1
4.22 0 0
4.22 0 0.1
4.24 0 0
4.24 0 0.1
4.26 0 0
4.26 0 0.1
4.28 0 0
4.28 0 0.1
4.3 0 0
4.3 0 0.1
4.32 0 0
4.32 0 0.1
4.34 0 0
4.34 0 0.1
4.36 0 0
4.36 0 0.1
4.38 0 0
4.38 0 0.1
4.4 0 0
4.4 0 0.1
4.42 0 0
4.42 0 0.1
4.44 0 0
4.44 0 0.1
4.46 0 0
4.46 0 0.1
4.48 0 0
4.48 0 0.1
4.5 0 0
4.5 0 0.1

POLYGONS 325 1625
4 0 1 2 3
4 1 4 5 2
4 4 6 7 5
4 6 8 9 7
4 8 10 11 9
4 10 12 13 11
4 12 14 15 13
4 14 16 17 15
4 16 18 19 17
4 18 20 21 19
4 20 22 23 21
4 22 24 25 23
4 24 26 27 25
4 26 28 29 27
4 28 30 31 29
4 30 32 33 31
4 32 34 35 33
4 34 36 37 35
4 36 38 39 37
4 38 40 41 39
4 40 42 43 41
4 42 44 45 43
4 44 46 47 45
4 46 48 49 47
4 48 50 51 49
4 50 52 53 51
4 52 54 55 53
4 54 56 57 55
4 56 58 59 57
4 58 60 61 59
4 60 62 63 61
4 62 64 65 63
4 64 66 67 65
4 66 68 69 67
4 68 70 71 69
4 70 72 73 71
4 72 74 75 73
4 74 76 77 75
4 76 78 79 77
4 78 80 81 79
4 80 82 83 81
4 82 84 85 83
4 84 86 87 85
4 86 88 89 87
4 88 90 91 89
4 90 92 93 91
4 92 94 95 93
4 94 96 97 95
4 96 98 99 97
4 98 100 101 99
4 100 102 103 101
4 102 104 105 103
4 104 106 107 105
4 106 108 109 107
4 108 110 111 109
4 110 112 113 111
4 112 114 115 113
4 114 116 117 115
4 116 118 119 117
4 118 120 121 119
4 120 122 123 121
4 122 124 125 123
4 124 126 127 125
4 126 128 129 127
4 128 130 131 129
4 130 132 133 131
4 132 134 135 133
4 134 136 137 135
4 136 138 139 137
4 138 140 141 139
4 140 142 143 141
4 142 144 145 143
4 144 146 147 145
4 146 148 149 147
4 148 150 151 149
4 150 152 153 151
4 152 154 155 153
4 154 156 157 155
4 156 158 159 157
4 158 160 161 159
4 160 162 163 161
4 162 164 165 163
4 164 166 167 165
4 166 168 169 167
4 168 170 171 169
4 170 172 173 171
4 172 174 175 173
4 174 176 177 175
4 176 178 179 177
4 178 180 181 179
4 180 182 183 181
4 182 184 185 183
4 184 186 187 185
4 186 188 189 187
4 188 190 191 189
4 190 192 193 191
4 192 194 195 193
4 194 196 197 195
4 196 198 199 197
4 198 200 201 199
4 200 202 203 201
4 202 204 205 203
4 204 206 207 205
4 206 208 209 207
4 208 210 211 209
4 210 212 213 211
4 212 214 215 213
4 214 216 217 215
4 216 218 219 217
4 218 220 221 219
4 220 222 223 221
4 222 224 225 223
4 224 226 227 225
4 226 228 229 227
4 228 230 231 229
4 230 232 233 231
4 232 234 235 233
4 234 236 237 235
4 236 238 239 237
4 238 240 241 239
4 240 242 243 241
4 242 244 245 243
4 244 246 247 245
4 246 248 249 247
4 248 250 251 249
4 250 252 253 251
4 252 254 255 253
4 254 256 257 255
4 256 258 259 257
4 258 260 261 259
4 260 262 263 261
4 262 264 265 263
4 264 266 267 265
4 266 268 269 267
4 268 270 271 269
4 270 272 273 271
4 272 274 275 273
4 274 276 277 275
4 276 278 279 277
4 278 280 281 279
4 280 282 283 281
4 282 284 285 283
4 284 286 287 285
4 286 288 289 287
4 288 290 291 289
4 290 292 293 291
4 292 294 295 293
4 294 296 297 295
4 296 298 299 297
4 298 300 301 299
4 300 302 303 301
4 302 304 305 303
4 304 306 307 305
4 306 308 309 307
4 308 310 311 309
4 310 312 313 311
4 312 314 315 313
4 314 316 317 315
4 316 318 319 317
4 318 320 321 319
4 320 322 323 321
4 322 324 325 323
4 324 326 327 325
4 326 328 329 327
4 328 330 331 329
4 330 332 333 331
4 332 334 335 333
4 334 336 337 335
4 336 338 339 337
4 338 340 341 339
4 340 342 343 341
4 342 344 345 343
4 344 346 347 345
4 346 348 349 347
4 348 350 351 349
4 352 353 354 355
4 355 354 356 357
4 357 356 358 359
4 359 358 360 361
4 361 360 362 363
4 363 362 364 365
4 365 364 366 367
4 367 366 368 369
4 369 368 370 371
4 371 370 372 373
4 373 372 374 375
4 375 374 376 377
4 377 376 378 379
4 379 378 380 381
4 381 380 382 383
4 383 382 384 385
4 385 384 386 387
4 387 386 388 389
4 389 388 390 391
4 391 390 392 393
4 393 392 394 395
4 395 394 396 397
4 397 396 398 399
4 399 398 400 401
4 401 400 402 403
4 403 402 404 405
4 405 404 406 407
4 407 406 408 409
4 409 408 410 411
4 411 410 412 413
4 413 412 414 415
4 415 414 416 417
4 417 416 418 419
4 419 418 420 421
4 421 420 422 423
4 423 422 424 425
4 425 424 426 427
4 427 426 428 429
4 429 428 430 431
4 431 430 432 433
4 433 432 434 435
4 435 434 436 437
4 437 436 438 439
4 439 438 440 441
4 441 440 442 443
4 443 442 444 445
4 445 444 446 447
4 447 446 448 449
4 449 448 450 451
4 451 450 351 350
4 352 452 453 353
4 452 454 455 453
4 454 456 457 455
4 456 458 459 457
4 458 460 461 459
4 460 462 463 461
4 462 464 465 463
4 464 466 467 465
4 466 468 469 467
4 468 470 471 469
4 470 472 473 471
4 472 474 475 473
4 474 476 477 475
4 476 478 479 477
4 478 480 481 479
4 480 482 483 481
4 482 484 485 483
4 484 486 487 485
4 486 488 489 487
4 488 490 491 489
4 490 492 493 491
4 492 494 495 493
4 494 496 497 495
4 496 498 499 497
4 498 500 501 499
4 500 502 503 501
4 502 504 505 503
4 504 506 507 505
4 506 508 509 507
4 508 510 511 509
4 510 512 513 511
4 512 514 515 513
4 514 516 517 515
4 516 518 519 517
4 518 520 521 519
4 520 522 523 521
4 522 524 525 523
4 524 526 527 525
4 526 528 529 527
4 528 530 531 529
4 530 532 533 531
4 532 534 535 533
4 534 536 537 535
4 536 538 539 537
4 538 540 541 539
4 540 542 543 541
4 542 544 545 543
4 544 546 547 545
4 546 548 549 547
4 548 550 551 549
4 550 552 553 551
4 552 554 555 553
4 554 556 557 555
4 556 558 559 557
4 558 560 561 559
4 560 562 563 561
4 562 564 565 563
4 564 566 567 565
4 566 568 569 567
4 568 570 571 569
4 570 572 573 571
4 572 574 575 573
4 574 576 577 575
4 576 578 579 577
4 578 580 581 579
4 580 582 583 581
4 582 584 585 583
4 584 586 587 585
4 586 588 589 587
4 588 590 591 589
4 590 592 593 591
4 592 594 595 593
4 594 596 597 595
4 596 598 599 597
4 598 600 601 599
4 600 602 603 601
4 602 604 605 603
4 604 606 607 605
4 606 608 609 607
4 608 610 611 609
4 610 612 613 611
4 612 614 615 613
4 614 616 617 615
4 616 618 619 617
4 618 620 621 619
4 620 622 623 621
4 622 624 625 623
4 624 626 627 625
4 626 628 629 627
4 628 630 631 629
4 630 632 633 631
4 632 634 635 633
4 634 636 637 635
4 636 638 639 637
4 638 640 641 639
4 640 642 643 641
4 642 644 645 643
4 644 646 647 645
4 646 648 649 647
4 648 650 651 649
POINT_DATA 652
FIELD attributes 1
U 3 652 float
2.45382 -0.0354809 -0.00988837
1.22741 -0.0177429 -0.00494419
1.22741 -0.0177429 -0.00494419
2.45382 -0.0354809 -0.00988837
0.000989328 -2.98621e-06 0
0.000989328 -2.98621e-06 0
0.000992589 -1.12916e-06 0
0.000992589 -1.12916e-06 0
0.000994618 -1.78117e-06 0
0.000994618 -1.78117e-06 0
0.000995343 -2.38784e-06 0
0.000995343 -2.38784e-06 0
0.000994548 -1.98173e-06 0
0.000994548 -1.98173e-06 0
0.000992677 -8.5993e-07 0
0.000992677 -8.5993e-07 0
0.000990804 3.12514e-07 0
0.000990804 3.12514e-07 0
0.00098983 1.02259e-06 0
0.00098983 1.02259e-06 0
0.000989775 1.14505e-06 0
0.000989775 1.14505e-06 0
0.000989613 9.74358e-07 0
0.000989613 9.74358e-07 0
0.000988117 8.88178e-07 0
0.000988117 8.88178e-07 0
0.000984985 8.99455e-07 0
0.000984985 8.99455e-07 0
0.000981093 6.75127e-07 0
0.000981093 6.75127e-07 0
0.000977626 8.71046e-08 0
0.000977626 8.71046e-08 0
0.00097502 -4.64105e-07 0
0.00097502 -4.64105e-07 0
0.000972726 -4.62364e-07 0
0.000972726 -4.62364e-07 0
0.000969943 1.26534e-07 0
0.000969943 1.26534e-07 0
0.000966469 8.2895e-07 0
0.000966469 8.2895e-07 0
0.000962814 1.23076e-06 0
0.000962814 1.23076e-06 0
0.000959551 1.47591e-06 0
0.000959551 1.47591e-06 0
0.000956673 2.0964e-06 0
0.000956673 2.0964e-06 0
0.000953586 3.30531e-06 0
0.000953586 3.30531e-06 0
0.000949712 4.56835e-06 0
0.000949712 4.56835e-06 0
0.000945067 5.00237e-06 0
0.000945067 5.00237e-06 0
0.000940235 4.2704e-06 0
0.000940235 4.2704e-06 0
0.000935758 3.08522e-06 0
0.000935758 3.08522e-06 0
0.000931547 2.70768e-06 0
0.000931547 2.70768e-06 0
0.00092691 3.8151e-06 0
0.00092691 3.8151e-06 0
0.000921179 5.8186e-06 0
0.000921179 5.8186e-06 0
0.000914394 7.27993e-06 0
0.000914394 7.27993e-06 0
0.000907352 7.0556e-06 0
0.000907352 7.0556e-06 0
0.000900966 5.23773e-06 0
0.000900966 5.23773e-06 0
0.000895524 3.14622e-06 0
0.000895524 3.14622e-06 0
0.0008904 2.3801e-06 0
0.0008904 2.3801e-06 0
0.000884379 3.64379e-06 0
0.000884379 3.64379e-06 0
0.000876424 6.12902e-06 0
0.000876424 6.12902e-06 0
0.000866441 7.94987e-06 0
0.000866441 7.94987e-06 0
0.000855474 7.51797e-06 0
0.000855474 7.51797e-06 0
0.000845078 4.90683e-06 0
0.000845078 4.90683e-06 0
0.000836312 1.98759e-06 0
0.000836312 1.98759e-06 0
0.000829082 9.77298e-07 0
0.000829082 9.77298e-07 0
0.000822291 2.61015e-06 0
0.000822291 2.61015e-06 0
0.000814696 5.61259e-06 0
0.000814696 5.61259e-06 0
0.000805777 7.9225e-06 0
0.000805777 7.9225e-06 0
0.000795862 8.44558e-06 0
0.000795862 8.44558e-06 0
0.000785551 7.66454e-06 0
0.000785551 7.66454e-06 0
0.000775123 6.79635e-06 0
0.000775123 6.79635e-06 0
0.000764421 6.68697e-06 0
0.000764421 6.68697e-06 0
0.000753072 7.45852e-06 0
0.000753072 7.45852e-06 0
0.000740696 8.75198e-06 0
0.000740696 8.75198e-06 0
0.000727092 9.95922e-06 0
0.000727092 9.95922e-06 0
0.000712464 1.04107e-05 0
0.000712464 1.04107e-05 0
0.000697446 9.78727e-06 0
0.000697446 9.78727e-06 0
0.000682701 8.46608e-06 0
0.000682701 8.46608e-06 0
0.000668389 7.21721e-06 0
0.000668389 7.21721e-06 0
0.000654115 6.48118e-06 0
0.000654115 6.48118e-06 0
0.000639446 6.21941e-06 0
0.000639446 6.21941e-06 0
0.000624243 6.58403e-06 0
0.000624243 6.58403e-06 0
0.000608303 8.22823e-06 0
0.000608303 8.22823e-06 0
0.000590888 1.13244e-05 0
0.000590888 1.13244e-05 0
0.000571177 1.45275e-05 0
0.000571177 1.45275e-05 0
0.000549257 1.60081e-05 0
0.000549257 1.60081e-05 0
0.000526055 1.59318e-05 0
0.000526055 1.59318e-05 0
0.00050179 1.68566e-05 0
0.00050179 1.68566e-05 0
0.000474957 2.06494e-05 0
0.000474957 2.06494e-05 0
0.000443709 2.55895e-05 0
0.000443709 2.55895e-05 0
0.000408293 2.77817e-05 0
0.000408293 2.77817e-05 0
0.000371479 2.53295e-05 0
0.000371479 2.53295e-05 0
0.000336497 1.99187e-05 0
0.000336497 1.99187e-05 0
0.000305042 1.4581e-05 0
0.000305042 1.4581e-05 0
0.000277121 1.11776e-05 0
0.000277121 1.11776e-05 0
0.000251924 9.8316e-06 0
0.000251924 9.8316e-06 0
0.000228483 9.70734e-06 0
0.000228483 9.70734e-06 0
0.000205985 9.96465e-06 0
0.000205985 9.96465e-06 0
0.000183896 1.01522e-05 0
0.000183896 1.01522e-05 0
0.000161967 1.01093e-05 0
0.000161967 1.01093e-05 0
0.00014016 9.82405e-06 0
0.00014016 9.82405e-06 0
0.000118579 9.32954e-06 0
0.000118579 9.32954e-06 0
9.74125e-05 8.65253e-06 0
9.74125e-05 8.65253e-06 0
7.68951e-05 7.80487e-06 0
7.68951e-05 7.80487e-06 0
5.72781e-05 6.79128e-06 0
5.72781e-05 6.79128e-06 0
3.88148e-05 5.61899e-06 0
3.88148e-05 5.61899e-06 0
2.17471e-05 4.30967e-06 0
2.17471e-05 4.30967e-06 0
6.2959e-06 2.90495e-06 0
6.2959e-06 2.90495e-06 0
-7.35337e-06 1.44738e-06 0
-7.35337e-06 1.44738e-06 0
-1.9054e-05 -2.25651e-08 0
-1.9054e-05 -2.25651e-08 0
-2.86942e-05 -1.46576e-06 0
-2.86942e-05 -1.46576e-06 0
-3.62112e-05 -2.85283e-06 0
-3.62112e-05 -2.85283e-06 0
-4.15929e-05 -4.15942e-06 0
-4.15929e-05 -4.15942e-06 0
-4.48654e-05 -5.36875e-06 0
-4.48654e-05 -5.36875e-06 0
-4.60903e-05 -6.4751e-06 0
-4.60903e-05 -6.4751e-06 0
-4.53351e-05 -7.46604e-06 0
-4.53351e-05 -7.46604e-06 0
-4.27178e-05 -8.31241e-06 0
-4.27178e-05 -8.31241e-06 0
-3.84239e-05 -8.99269e-06 0
-3.84239e-05 -8.99269e-06 0
-3.266e-05 -9.50868e-06 0
-3.266e-05 -9.50868e-06 0
-2.56729e-05 -9.89272e-06 0
-2.56729e-05 -9.89272e-06 0
-1.76899e-05 -1.02034e-05 0
-1.76899e-05 -1.02034e-05 0
-9.00401e-06 -1.03334e-05 0
-9.00401e-06 -1.03334e-05 0
-4.53565e-06 -1.03182e-05 0
-4.53565e-06 -1.03182e-05 0
6.49397e-07 -9.02625e-06 0
6.49397e-07 -9.02625e-06 0
9.24849e-06 2.89415e-06 0
9.24849e-06 2.89415e-06 0
1.41869e-05 2.83861e-05 0
1.41869e-05 2.83861e-05 0
1.60569e-05 5.97226e-05 0
1.60569e-05 5.97226e-05 0
1.60871e-05 9.23737e-05 0
1.60871e-05 9.23737e-05 0
1.51883e-05 0.000123762 0
1.51883e-05 0.000123762 0
1.39821e-05 0.000152907 0
1.39821e-05 0.000152907 0
1.28159e-05 0.000179599 0
1.28159e-05 0.000179599 0
1.18562e-05 0.000204179 0
1.18562e-05 0.000204179 0
1.11575e-05 0.000227155 0
1.11575e-05 0.000227155 0
1.07137e-05 0.000249032 0
1.07137e-05 0.000249032 0
1.04881e-05 0.000270264 0
1.04881e-05 0.000270264 0
1.04339e-05 0.000291242 0
1.04339e-05 0.000291242 0
1.0506e-05 0.000312266 0
1.0506e-05 0.000312266 0
1.06661e-05 0.000333538 0
1.06661e-05 0.000333538 0
1.08843e-05 0.000355197 0
1.08843e-05 0.000355197 0
1.11392e-05 0.000377332 0
1.11392e-05 0.000377332 0
1.14169e-05 0.000399998 0
1.14169e-05 0.000399998 0
1.17092e-05 0.000423231 0
1.17092e-05 0.000423231 0
1.2012e-05 0.000447054 0
1.2012e-05 0.000447054 0
1.23243e-05 0.000471486 0
1.23243e-05 0.000471486 0
1.26476e-05 0.000496548 0
1.26476e-05 0.000496548 0
1.29842e-05 0.000522262 0
1.29842e-05 0.000522262 0
1.33383e-05 0.000548662 0
1.33383e-05 0.000548662 0
1.37131e-05 0.000575783 0
1.37131e-05 0.000575783 0
1.41152e-05 0.000603678 0
1.41152e-05 0.000603678 0
1.4547e-05 0.000632398 0
1.4547e-05 0.000632398 0
1.50193e-05 0.00066202 0
1.50193e-05 0.00066202 0
1.55305e-05 0.000692613 0
1.55305e-05 0.000692613 0
1.61012e-05 0.000724293 0
1.61012e-05 0.000724293 0
1.67194e-05 0.000757137 0
1.67194e-05 0.000757137 0
1.74294e-05 0.000791328 0
1.74294e-05 0.000791328 0
1.8184e-05 0.000826936 0
1.8184e-05 0.000826936 0
1.91066e-05 0.000864264 0
1.91066e-05 0.000864264 0
2.00289e-05 0.000903341 0
2.00289e-05 0.000903341 0
2.12807e-05 0.000944695 0
2.12807e-05 0.000944695 0
2.24181e-05 0.000988227 0
2.24181e-05 0.000988227 0
2.42195e-05 0.00103493 0
2.42195e-05 0.00103493 0
2.55868e-05 0.00108435 0
2.55868e-05 0.00108435 0
2.84135e-05 0.00113844 0
2.84135e-05 0.00113844 0
2.99711e-05 0.00119599 0
2.99711e-05 0.00119599 0
3.48621e-05 0.00126088 0
3.48621e-05 0.00126088 0
3.63753e-05 0.00133038 0
3.63753e-05 0.00133038 0
4.59481e-05 0.0014124 0
4.59481e-05 0.0014124 0
4.72377e-05 0.00150203 0
4.72377e-05 0.00150203 0
6.91227e-05 0.00161485 0
6.91227e-05 0.00161485 0
7.26154e-05 0.00174705 0
7.26154e-05 0.00174705 0
0.000134704 0.00192666 0
0.000134704 0.00192666 0
0.000164607 0.00216825 0
0.000164607 0.00216825 0
0.000189234 0.00136074 0
0.000189234 0.00136074 0
-0.000249659 -1.8487e-05 0
-0.000249659 -1.8487e-05 0
-0.000151875 -0.000489403 0
-0.000151875 -0.000489403 0
0.000148035 -0.000182857 0
0.000148035 -0.000182857 0
-0.000355832 0.000272193 0
-0.000355832 0.000272193 0
-0.000968663 0.000408564 0
-0.000968663 0.000408564 0
-0.00166262 0.000371005 0
-0.00166262 0.000371005 0
-0.00216636 0.000278238 0
-0.00216636 0.000278238 0
-0.00254784 0.000192176 0
-0.00254784 0.000192176 0
-0.00279159 0.000120028 0
-0.00279159 0.000120028 0
-0.0029398 6.08083e-05 0
-0.0029398 6.08083e-05 0
-0.00299237 1.18854e-05 0
-0.00299237 1.18854e-05 0
-0.00297011 -2.90652e-05 0
-0.00297011 -2.90652e-05 0
-0.00287614 -6.55236e-05 0
-0.00287614 -6.55236e-05 0
-0.00271609 -0.000100027 0
-0.00271609 -0.000100027 0
-0.00248761 -0.000132668 0
-0.00248761 -0.000132668 0
-0.00219445 -0.000161509 0
-0.00219445 -0.000161509 0
-0.00184171 -0.000182529 0
-0.00184171 -0.000182529 0
-0.00144469 -0.00019042 0
-0.00144469 -0.00019042 0
-0.00102805 -0.00018393 0
-0.00102805 -0.00018393 0
-0.00062033 -0.000173206 0
-0.00062033 -0.000173206 0
-0.000245445 -0.000170973 0
-0.000245445 -0.000170973 0
6.24342e-05 -0.000141658 0
6.24342e-05 -0.000141658 0
0.000282966 -7.15363e-05 0
0.000282966 -7.15363e-05 0
0.000440302 -8.56619e-05 0
0.000440302 -8.56619e-05 0
0.000313167 -8.4446e-05 0
0.000313167 -8.4446e-05 0
-6.66953e-06 4.31909e-06 0
-6.66953e-06 4.31909e-06 0
-8.30918e-06 1.30366e-05 0
-8.30918e-06 1.30366e-05 0
-9.92071e-06 3.22184e-05 0
-9.92071e-06 3.22184e-05 0
-9.60578e-06 5.16796e-05 0
-9.60578e-06 5.16796e-05 0
-9.10422e-06 6.95793e-05 0
-9.10422e-06 6.95793e-05 0
-8.7457e-06 8.69375e-05 0
-8.7457e-06 8.69375e-05 0
-8.48866e-06 0.000103626 0
-8.48866e-06 0.000103626 0
-8.26405e-06 0.000119891 0
-8.26405e-06 0.000119891 0
-8.02897e-06 0.00013573 0
-8.02897e-06 0.00013573 0
-7.76365e-06 0.000151079 0
-7.76365e-06 0.000151079 0
-7.46075e-06 0.00016587 0
-7.46075e-06 0.00016587 0
-7.11802e-06 0.000180025 0
-7.11802e-06 0.000180025 0
-6.73516e-06 0.000193465 0
-6.73516e-06 0.000193465 0
-6.31225e-06 0.000206107 0
-6.31225e-06 0.000206107 0
-5.84945e-06 0.000217874 0
-5.84945e-06 0.000217874 0
-5.34735e-06 0.000228686 0
-5.34735e-06 0.000228686 0
-4.80776e-06 0.000238466 0
-4.80776e-06 0.000238466 0
-4.23316e-06 0.000247143 0
-4.23316e-06 0.000247143 0
-3.62657e-06 0.000254643 0
-3.62657e-06 0.000254643 0
-2.99165e-06 0.000260906 0
-2.99165e-06 0.000260906 0
-2.33153e-06 0.000265869 0
-2.33153e-06 0.000265869 0
-1.65026e-06 0.000269492 0
-1.65026e-06 0.000269492 0
-9.46654e-07 0.000271718 0
-9.46654e-07 0.000271718 0
-2.14488e-07 0.000272541 0
-2.14488e-07 0.000272541 0
5.44535e-07 0.000271876 0
5.44535e-07 0.000271876 0
1.31843e-06 0.000269776 0
1.31843e-06 0.000269776 0
2.09611e-06 0.000266116 0
2.09611e-06 0.000266116 0
2.84836e-06 0.000261107 0
2.84836e-06 0.000261107 0
3.59442e-06 0.000254513 0
3.59442e-06 0.000254513 0
4.32941e-06 0.000246776 0
4.32941e-06 0.000246776 0
5.07192e-06 0.000237404 0
5.07192e-06 0.000237404 0
5.77374e-06 0.000227135 0
5.77374e-06 0.000227135 0
6.48747e-06 0.000215263 0
6.48747e-06 0.000215263 0
7.10743e-06 0.000202684 0
7.10743e-06 0.000202684 0
7.79166e-06 0.000188676 0
7.79166e-06 0.000188676 0
8.31377e-06 0.000173991 0
8.31377e-06 0.000173991 0
8.6973e-06 0.00015826 0
8.6973e-06 0.00015826 0
9.48204e-06 0.000142152 0
9.48204e-06 0.000142152 0
8.87699e-06 0.000124323 0
8.87699e-06 0.000124323 0
1.02038e-05 0.000107904 0
1.02038e-05 0.000107904 0
1.11576e-05 8.90664e-05 0
1.11576e-05 8.90664e-05 0
8.2913e-06 6.57692e-05 0
8.2913e-06 6.57692e-05 0
9.9586e-06 5.72523e-05 0
9.9586e-06 5.72523e-05 0
1.66009e-05 2.60039e-05 0
1.66009e-05 2.60039e-05 0
8.68444e-06 1.00785e-05 0
8.68444e-06 1.00785e-05 0
2.26641e-06 -8.15397e-06 0
2.26641e-06 -8.15397e-06 0
8.54952e-06 -2.42547e-05 0
8.54952e-06 -2.42547e-05 0
-7.71484e-06 -3.85225e-05 0
-7.71484e-06 -3.85225e-05 0
-2.79668e-05 -1.66011e-05 0
-2.79668e-05 -1.66011e-05 0
4.33437e-05 3.88588e-06 0
4.33437e-05 3.88588e-06 0
-1.29548e-05 4.36297e-06 0
-1.29548e-05 4.36297e-06 0
-2.59752e-05 4.5946e-06 0
-2.59752e-05 4.5946e-06 0
-3.96039e-05 5.01084e-06 0
-3.96039e-05 5.01084e-06 0
-5.37628e-05 5.52347e-06 0
-5.37628e-05 5.52347e-06 0
-6.87088e-05 6.13255e-06 0
-6.87088e-05 6.13255e-06 0
-8.44949e-05 6.80042e-06 0
-8.44949e-05 6.80042e-06 0
-0.000101178 7.49063e-06 0
-0.000101178 7.49063e-06 0
-0.000118771 8.17524e-06 0
-0.000118771 8.17524e-06 0
-0.000137252 8.83392e-06 0
-0.000137252 8.83392e-06 0
-0.000156597 9.45978e-06 0
-0.000156597 9.45978e-06 0
-0.00017677 1.00554e-05 0
-0.00017677 1.00554e-05 0
-0.000197751 1.06278e-05 0
-0.000197751 1.06278e-05 0
-0.000219514 1.11819e-05 0
-0.000219514 1.11819e-05 0
-0.000242039 1.17168e-05 0
-0.000242039 1.17168e-05 0
-0.00026529 1.2225e-05 0
-0.00026529 1.2225e-05 0
-0.000289218 1.26935e-05 0
-0.000289218 1.26935e-05 0
-0.000313752 1.31054e-05 0
-0.000313752 1.31054e-05 0
-0.000338801 1.34431e-05 0
-0.000338801 1.34431e-05 0
-0.000364245 1.36957e-05 0
-0.000364245 1.36957e-05 0
-0.000389921 1.38518e-05 0
-0.000389921 1.38518e-05 0
-0.000415639 1.38921e-05 0
-0.000415639 1.38921e-05 0
-0.000441178 1.37954e-05 0
-0.000441178 1.37954e-05 0
-0.000466289 1.35414e-05 0
-0.000466289 1.35414e-05 0
-0.00049069 1.31116e-05 0
-0.00049069 1.31116e-05 0
-0.000514069 1.24905e-05 0
-0.000514069 1.24905e-05 0
-0.000536093 1.16671e-05 0
-0.000536093 1.16671e-05 0
-0.000556407 1.06353e-05 0
-0.000556407 1.06353e-05 0
-0.000574644 9.39435e-06 0
-0.000574644 9.39435e-06 0
-0.000590437 7.95022e-06 0
-0.000590437 7.95022e-06 0
-0.000603429 6.31838e-06 0
-0.000603429 6.31838e-06 0
-0.000613298 4.52401e-06 0
-0.000613298 4.52401e-06 0
-0.000619763 2.61182e-06 0
-0.000619763 2.61182e-06 0
-0.000622576 6.56507e-07 0
-0.000622576 6.56507e-07 0
-0.000621648 -1.2828e-06 0
-0.000621648 -1.2828e-06 0
-0.000616992 -3.18487e-06 0
-0.000616992 -3.18487e-06 0
-0.000608596 -5.04601e-06 0
-0.000608596 -5.04601e-06 0
-0.000596501 -6.86168e-06 0
-0.000596501 -6.86168e-06 0
-0.000580818 -8.60915e-06 0
-0.000580818 -8.60915e-06 0
-0.000561716 -1.02599e-05 0
-0.000561716 -1.02599e-05 0
-0.000539419 -1.17886e-05 0
-0.000539419 -1.17886e-05 0
-0.000514199 -1.31741e-05 0
-0.000514199 -1.31741e-05 0
-0.000486361 -1.4401e-05 0
-0.000486361 -1.4401e-05 0
-0.000456239 -1.54593e-05 0
-0.000456239 -1.54593e-05 0
-0.000424176 -1.63447e-05 0
-0.000424176 -1.63447e-05 0
-0.000390523 -1.70578e-05 0
-0.000390523 -1.70578e-05 0
-0.000355621 -1.76032e-05 0
-0.000355621 -1.76032e-05 0
-0.000319799 -1.79895e-05 0
-0.000319799 -1.79895e-05 0
-0.000283368 -1.8228e-05 0
-0.000283368 -1.8228e-05 0
-0.000246616 -1.83316e-05 0
-0.000246616 -1.83316e-05 0
-0.000209798 -1.83133e-05 0
-0.000209798 -1.83133e-05 0
-0.000173126 -1.81897e-05 0
-0.000173126 -1.81897e-05 0
-0.00013679 -1.79743e-05 0
-0.00013679 -1.79743e-05 0
-0.000100957 -1.76816e-05 0
-0.000100957 -1.76816e-05 0
-6.57644e-05 -1.73265e-05 0
-6.57644e-05 -1.73265e-05 0
-3.13321e-05 -1.69211e-05 0
-3.13321e-05 -1.69211e-05 0
2.21886e-06 -1.648e-05 0
2.21886e-06 -1.648e-05 0
3.48227e-05 -1.6012e-05 0
3.48227e-05 -1.6012e-05 0
6.64677e-05 -1.55251e-05 0
6.64677e-05 -1.55251e-05 0
9.71343e-05 -1.50285e-05 0
9.71343e-05 -1.50285e-05 0
0.000126803 -1.45289e-05 0
0.000126803 -1.45289e-05 0
0.000155474 -1.40317e-05 0
0.000155474 -1.40317e-05 0
0.000183156 -1.35414e-05 0
0.000183156 -1.35414e-05 0
0.000209867 -1.30615e-05 0
0.000209867 -1.30615e-05 0
0.00023563 -1.25945e-05 0
0.00023563 -1.25945e-05 0
0.000260474 -1.21424e-05 0
0.000260474 -1.21424e-05 0
0.000284429 -1.17065e-05 0
0.000284429 -1.17065e-05 0
0.000307529 -1.12875e-05 0
0.000307529 -1.12875e-05 0
0.000329809 -1.08859e-05 0
0.000329809 -1.08859e-05 0
0.000351303 -1.05017e-05 0
0.000351303 -1.05017e-05 0
0.000372045 -1.01347e-05 0
0.000372045 -1.01347e-05 0
0.00039207 -9.78468e-06 0
0.00039207 -9.78468e-06 0
0.000411412 -9.45121e-06 0
0.000411412 -9.45121e-06 0
0.000430103 -9.13381e-06 0
0.000430103 -9.13381e-06 0
0.000448174 -8.83197e-06 0
0.000448174 -8.83197e-06 0
0.000465656 -8.54513e-06 0
0.000465656 -8.54513e-06 0
0.000482579 -8.27276e-06 0
0.000482579 -8.27276e-06 0
0.00049897 -8.01431e-06 0
0.00049897 -8.01431e-06 0
0.000514857 -7.76927e-06 0
0.000514857 -7.76927e-06 0
0.000530268 -7.53714e-06 0
0.000530268 -7.53714e-06 0
0.000545225 -7.31747e-06 0
0.000545225 -7.31747e-06 0
0.000559756 -7.10984e-06 0
0.000559756 -7.10984e-06 0
0.000573881 -6.91386e-06 0
0.000573881 -6.91386e-06 0
0.000587627 -6.72912e-06 0
0.000587627 -6.72912e-06 0
0.00060101 -6.55528e-06 0
0.00060101 -6.55528e-06 0
0.000614062 -6.3919e-06 0
0.000614062 -6.3919e-06 0
0.000626785 -6.23872e-06 0
0.000626785 -6.23872e-06 0
0.000639229 -6.09532e-06 0
0.000639229 -6.09532e-06 0
0.000651368 -5.96156e-06 0
0.000651368 -5.96156e-06 0
0.000663288 -5.83695e-06 0
0.000663288 -5.83695e-06 0
0.000674907 -5.72162e-06 0
0.000674907 -5.72162e-06 0
0.000686395 -5.61483e-06 0
0.000686395 -5.61483e-06 0
0.000697536 -5.51719e-06 0
0.000697536 -5.51719e-06 0
0.000708703 -5.42742e-06 0
0.000708703 -5.42742e-06 0
0.000719376 -5.3471e-06 0
0.000719376 -5.3471e-06 0
0.000730379 -5.27366e-06 0
0.000730379 -5.27366e-06 0
0.000740513 -5.21061e-06 0
0.000740513 -5.21061e-06 0
0.000751616 -5.15267e-06 0
0.000751616 -5.15267e-06 0
0.000760975 -5.1074e-06 0
0.000760975 -5.1074e-06 0
0.978166 -0.00629619 0
0.978166 -0.00629619 0
1.95557 -0.0125873 0
1.95557 -0.0125873 0
