/*--------------------------------*- C++ -*----------------------------------*\
| =========                 |                                                 |
| \\      /  F ield         | OpenFOAM: The Open Source CFD Toolbox           |
|  \\    /   O peration     | Version:  4.1                                   |
|   \\  /    A nd           | Web:      www.OpenFOAM.org                      |
|    \\/     M anipulation  |                                                 |
\*---------------------------------------------------------------------------*/
FoamFile
{
    version     2.0;
    format      ascii;
    class       volScalarField;
    location    "0.41";
    object      epsilon;
}
// * * * * * * * * * * * * * * * * * * * * * * * * * * * * * * * * * * * * * //

dimensions      [0 2 -3 0 0 0 0];

internalField   nonuniform List<scalar> 
43750
(
9.54017
9.87115
10.1951
10.5109
10.8178
11.115
11.4018
11.6773
11.9407
12.1911
12.4279
12.6501
12.857
13.0478
13.2219
13.3784
13.5166
13.636
13.7358
13.8154
13.8742
13.9116
13.927
13.9199
13.8898
13.836
13.7581
13.6556
13.528
13.3748
13.1956
12.9898
12.7572
12.4973
12.2099
11.8948
11.552
11.1817
10.7845
10.3616
9.91446
9.44593
8.95991
8.46204
7.96024
7.46535
6.99188
6.55889
6.19099
5.91917
5.7815
5.82262
6.09037
6.62553
7.44247
8.58077
10.0966
11.581
12.7793
13.5587
13.8972
13.8474
13.4907
12.901
12.1472
11.3043
10.4229
9.54365
8.69354
7.88288
7.11124
6.39466
5.66085
4.77489
3.8611
3.14759
2.71213
2.46722
2.37348
2.38411
2.46152
2.57946
2.71976
2.86987
3.02176
3.17114
3.31687
3.46059
3.60669
3.76298
3.90625
4.03192
4.13525
4.20636
4.22765
4.16721
3.95863
3.45671
2.38561
0.457065
12.9875
11.4424
10.1595
9.08711
8.18532
7.42317
6.77629
6.22539
5.75508
5.35298
5.00904
4.71506
4.4643
4.25118
4.0711
3.9202
3.79528
3.69365
3.6131
3.55178
3.5082
3.48116
3.46976
3.47332
3.49147
3.52407
3.57127
3.63351
3.71156
3.80658
3.92018
4.05452
4.2124
4.39748
4.61443
4.86926
5.16969
5.52561
5.94974
6.45844
7.07276
7.81962
8.73322
9.85642
11.2418
12.9517
15.0566
17.6299
20.7384
24.4264
28.6929
33.4645
38.5661
43.7012
48.4521
52.3213
54.8208
55.5745
54.4432
51.5914
47.4482
42.5699
37.4682
32.3105
27.5437
23.5063
20.0141
16.9862
14.3671
12.1359
10.2646
8.65671
7.24324
6.00933
4.95045
4.06996
3.38049
2.88089
2.53262
2.29153
2.12709
2.02071
1.95885
1.92996
1.92473
1.93735
1.96688
2.01789
2.09992
2.22646
2.37537
2.54623
2.73956
2.95329
3.18438
3.42309
3.62653
3.66154
3.22302
1.25974
13.0026
11.458
10.1624
9.06616
8.13153
7.32908
6.63575
6.03325
5.50696
5.04508
4.63803
4.27795
3.95837
3.67394
3.42016
3.1933
2.9902
2.8082
2.64504
2.49882
2.36791
2.25093
2.14674
2.05436
1.97298
1.90195
1.84078
1.78908
1.74664
1.71338
1.68936
1.67486
1.67032
1.67648
1.69437
1.72544
1.77164
1.8356
1.92085
2.0321
2.17565
2.35992
2.59613
2.89926
3.28911
3.79167
4.44053
5.27818
6.35682
7.7381
9.49116
11.688
14.3958
17.6643
21.51
25.8949
30.7028
35.7126
40.5848
44.8753
48.0948
49.8159
49.7989
48.0581
44.889
40.8046
36.2854
31.7102
27.1722
23.1679
19.939
17.2932
15.0231
12.9601
11.0078
9.18229
7.58639
6.31607
5.38867
4.73831
4.26582
3.88633
3.54976
3.24052
2.96567
2.74035
2.57698
2.48055
2.44829
2.4721
2.52048
2.58597
2.65992
2.73231
2.79595
2.85894
2.95383
3.11189
3.24375
2.02487
13.0027
11.458
10.1621
9.0655
8.13016
7.32662
6.63176
6.02721
5.49828
5.03313
4.62209
4.25727
3.93214
3.64128
3.38015
3.14496
2.9325
2.74005
2.56528
2.40623
2.2612
2.12873
2.00758
1.89668
1.79509
1.70204
1.61685
1.53896
1.46791
1.40333
1.34494
1.29255
1.24606
1.20549
1.17095
1.14271
1.12119
1.10705
1.10117
1.10481
1.1197
1.14819
1.19348
1.2599
1.35337
1.48186
1.65609
1.89032
2.20323
2.61891
3.16768
3.88694
4.82153
6.02383
7.55297
9.47276
11.8471
14.7309
18.1543
22.0995
26.4702
31.0604
35.5368
39.4526
42.3195
43.7411
43.5372
41.8159
38.9236
35.3915
31.774
28.3589
25.0375
22.0578
19.1835
16.3562
13.7346
11.5282
9.82639
8.57211
7.61874
6.82164
6.09299
5.40764
4.77968
4.23402
3.78802
3.44634
3.20516
3.05619
2.96604
2.90538
2.86503
2.83304
2.79518
2.74682
2.7198
2.80485
3.10764
2.76481
13.0027
11.458
10.1621
9.06534
8.1299
7.32627
6.63131
6.02666
5.49763
5.03235
4.62117
4.25616
3.93079
3.63961
3.37809
3.1424
2.9293
2.73607
2.56034
2.40012
2.25367
2.1195
1.99632
1.883
1.77857
1.68217
1.59306
1.51059
1.43418
1.36336
1.29768
1.23681
1.18042
1.12829
1.08024
1.03615
0.995977
0.959769
0.927675
0.899974
0.877114
0.859769
0.84891
0.845909
0.852686
0.871897
0.907193
0.963539
1.04763
1.16834
1.3373
1.56945
1.88365
2.30336
2.85741
3.58088
4.51611
5.71349
7.2315
9.13483
11.4886
14.3464
17.7285
21.5898
25.7802
30.0167
33.888
36.9268
38.7468
39.1977
38.4249
36.7399
34.4025
31.5942
28.3503
24.6026
20.8493
17.5556
14.9142
12.9376
11.4627
10.2812
9.228
8.22853
7.28032
6.41081
5.64532
4.99586
4.46583
4.05606
3.76056
3.51859
3.31736
3.14983
3.00769
2.88241
2.78085
2.77331
3.06276
3.44771
13.0027
11.458
10.162
9.06526
8.12977
7.3261
6.63111
6.02644
5.49741
5.03213
4.62095
4.25595
3.93059
3.63942
3.3779
3.14221
2.92911
2.73585
2.56008
2.39979
2.25325
2.11895
1.9956
1.88206
1.77734
1.68058
1.591
1.50794
1.43081
1.35908
1.2923
1.23004
1.17196
1.11774
1.06711
1.01982
0.975696
0.934571
0.896339
0.860941
0.828379
0.798737
0.772201
0.749102
0.729966
0.715592
0.707161
0.706379
0.715667
0.738405
0.77923
0.844374
0.94205
1.08285
1.2802
1.55083
1.91538
2.39918
3.03323
3.85545
4.91198
6.25803
7.9571
10.076
12.6725
15.7729
19.3378
23.2265
27.1784
30.8406
33.8482
35.9075
36.8247
36.4877
34.8442
31.9631
28.2318
24.3102
20.7731
17.9047
15.719
14.0866
12.7113
11.4324
10.2041
9.0447
7.9855
7.03878
6.20249
5.47793
4.92296
4.44739
4.03088
3.67203
3.37527
3.14539
2.9855
2.9202
3.14127
4.06832
13.0027
11.4581
10.162
9.06523
8.12972
7.32603
6.63102
6.02633
5.49728
5.032
4.62082
4.25582
3.93046
3.6393
3.37779
3.14211
2.92902
2.73577
2.56001
2.39974
2.2532
2.11892
1.99557
1.88202
1.77729
1.68049
1.59087
1.50775
1.43053
1.35868
1.29173
1.22926
1.1709
1.11631
1.0652
1.01731
0.972402
0.93027
0.890739
0.85366
0.818914
0.786412
0.756106
0.728
0.70216
0.678746
0.658046
0.640537
0.626956
0.618425
0.616591
0.623833
0.643504
0.680225
0.740212
0.831634
0.964994
1.15353
1.4137
1.76568
2.23414
2.84922
3.64774
4.67471
5.9842
7.63826
9.70138
12.2276
15.2391
18.6985
22.4819
26.3556
29.963
32.8324
34.4415
34.3888
32.6533
29.7166
26.3216
23.1077
20.3987
18.2339
16.4477
14.858
13.3267
11.8841
10.5638
9.36818
8.28334
7.27213
6.40736
5.65552
4.98166
4.39047
3.8986
3.52608
3.28945
3.19201
3.33668
4.64212
13.0027
11.4581
10.162
9.06523
8.12971
7.326
6.63098
6.02629
5.49724
5.03196
4.62079
4.2558
3.93045
3.63931
3.37782
3.14216
2.92909
2.73586
2.56013
2.39987
2.25336
2.11909
1.99576
1.88223
1.77751
1.68073
1.59112
1.508
1.43078
1.35892
1.29194
1.22944
1.17103
1.11637
1.06516
1.01713
0.972037
0.929662
0.889809
0.852306
0.817
0.783759
0.752474
0.723057
0.69545
0.66963
0.645619
0.623504
0.603462
0.585803
0.571033
0.559936
0.553699
0.554077
0.563603
0.585845
0.625717
0.68982
0.786816
0.927824
1.12683
1.40115
1.77193
2.26477
2.9106
3.74688
4.81913
6.18215
7.89959
10.0395
12.6622
15.793
19.3728
23.1861
26.798
29.5863
30.9627
30.7092
29.1206
26.8006
24.3183
22.0081
19.9542
18.1039
16.3766
14.7421
13.2133
11.8031
10.5127
9.3189
8.10709
7.04158
6.08495
5.24317
4.54304
4.01646
3.69094
3.57015
3.648
5.19492
13.0027
11.4581
10.1621
9.06525
8.12972
7.32602
6.631
6.02631
5.49726
5.03199
4.62083
4.25585
3.93052
3.63939
3.37792
3.14227
2.92922
2.73601
2.5603
2.40006
2.25357
2.11932
1.99601
1.8825
1.7778
1.68104
1.59145
1.50834
1.43114
1.35929
1.29232
1.22983
1.17141
1.11675
1.06553
1.01747
0.972338
0.929904
0.889967
0.852347
0.816881
0.783421
0.751839
0.722021
0.693871
0.667311
0.642286
0.618768
0.596765
0.576333
0.557603
0.540805
0.526324
0.514765
0.507059
0.504593
0.509398
0.524378
0.553594
0.6026
0.678814
0.791927
0.954322
1.18149
1.49244
1.91004
2.46157
3.17972
4.1045
5.28622
6.78833
8.68581
11.0507
13.9124
17.1874
20.5998
23.6712
25.8668
26.8522
26.6555
25.5935
24.0548
22.3292
20.5666
18.822
17.1185
15.4788
13.9235
12.4642
11.0913
9.7152
8.41394
7.20654
6.13226
5.24059
4.57751
4.17616
4.04156
4.08381
5.76231
13.0027
11.4581
10.1621
9.06528
8.12976
7.32605
6.63104
6.02636
5.49732
5.03206
4.62091
4.25595
3.93063
3.63952
3.37807
3.14245
2.92942
2.73623
2.56054
2.40033
2.25386
2.11963
1.99634
1.88285
1.77817
1.68143
1.59185
1.50877
1.43157
1.35974
1.29279
1.23031
1.17191
1.11725
1.06603
1.01798
0.972843
0.930401
0.890449
0.852802
0.817295
0.783774
0.752104
0.722161
0.693835
0.667029
0.64166
0.617662
0.594985
0.573604
0.553524
0.534792
0.517517
0.501894
0.488248
0.477094
0.469225
0.465824
0.468633
0.480157
0.503924
0.544807
0.609393
0.7064
0.847105
1.04576
1.31994
1.69082
2.18357
2.82837
3.66265
4.73424
6.10298
7.83411
9.97417
12.5038
15.2818
18.0243
20.3672
22.001
22.7905
22.7932
22.1813
21.1463
19.8443
18.3888
16.8618
15.3218
13.8077
12.3382
10.8887
9.44307
8.07323
6.84983
5.84272
5.10771
4.6806
4.56465
4.62571
6.32446
13.0027
11.4581
10.1621
9.06532
8.1298
7.32611
6.6311
6.02643
5.49741
5.03216
4.62103
4.25609
3.93079
3.6397
3.37827
3.14267
2.92966
2.7365
2.56083
2.40064
2.25419
2.11998
1.99672
1.88325
1.77859
1.68186
1.59231
1.50924
1.43206
1.36025
1.29331
1.23084
1.17245
1.11781
1.0666
1.01855
0.973426
0.930989
0.891039
0.853391
0.817879
0.784347
0.752657
0.722682
0.694306
0.667426
0.641946
0.617786
0.594873
0.573152
0.55258
0.533136
0.514829
0.497703
0.48186
0.467481
0.454867
0.444492
0.437082
0.43372
0.435994
0.446186
0.467514
0.504436
0.563008
0.651302
0.779839
0.962016
1.21446
1.55734
2.01478
2.61567
3.39498
4.39409
5.65685
7.21616
9.06924
11.1492
13.3108
15.349
17.0497
18.2501
18.8768
18.9447
18.5295
17.7347
16.6667
15.4195
14.0688
12.6704
11.2625
9.84229
8.46133
7.22277
6.21569
5.50273
5.12182
5.07658
5.19444
6.77325
13.0028
11.4582
10.1622
9.06537
8.12986
7.32618
6.63119
6.02653
5.49753
5.0323
4.62118
4.25626
3.93099
3.63992
3.37851
3.14293
2.92995
2.73681
2.56116
2.40099
2.25457
2.12039
1.99714
1.88369
1.77905
1.68235
1.59281
1.50976
1.4326
1.3608
1.29388
1.23143
1.17305
1.11841
1.06722
1.01918
0.974061
0.93163
0.891685
0.854042
0.818531
0.785001
0.753309
0.72333
0.694944
0.668046
0.642538
0.61833
0.595345
0.57351
0.552766
0.533064
0.51437
0.496669
0.479973
0.464329
0.44984
0.436688
0.42517
0.41575
0.409134
0.406367
0.408975
0.419135
0.439906
0.475515
0.531704
0.616132
0.738824
0.912609
1.15351
1.48105
1.91827
2.4914
3.22826
4.15422
5.28446
6.61331
8.10382
9.68245
11.2426
12.6587
13.8084
14.5967
14.9738
14.9388
14.5319
13.8181
12.8721
11.7672
10.5725
9.37775
8.18766
7.11525
6.25701
5.67862
5.42362
5.50343
5.71704
7.06941
13.0028
11.4582
10.1622
9.06542
8.12993
7.32626
6.63129
6.02665
5.49766
5.03245
4.62136
4.25646
3.93121
3.64017
3.37878
3.14323
2.93027
2.73716
2.56153
2.40139
2.25499
2.12083
1.9976
1.88418
1.77956
1.68287
1.59335
1.51032
1.43318
1.3614
1.29449
1.23205
1.17369
1.11906
1.06788
1.01985
0.974737
0.932313
0.892374
0.854735
0.819229
0.785701
0.754012
0.724034
0.695648
0.668748
0.643234
0.619017
0.596013
0.574147
0.55335
0.533563
0.514735
0.496823
0.479801
0.463661
0.448419
0.434132
0.420908
0.40894
0.398534
0.390168
0.384558
0.382759
0.38629
0.397305
0.418804
0.454906
0.511177
0.595027
0.716149
0.886948
1.12283
1.44201
1.86448
2.40932
3.09044
3.91134
4.8608
5.91095
7.01746
8.12103
9.15042
10.0291
10.686
11.0684
11.1513
10.9402
10.4678
9.78638
8.96089
8.07092
7.26086
6.5177
5.9369
5.58658
5.52027
5.766
6.10958
7.17079
13.0028
11.4582
10.1622
9.06548
8.13
7.32635
6.63139
6.02678
5.49781
5.03262
4.62156
4.25668
3.93146
3.64044
3.37908
3.14356
2.93062
2.73753
2.56194
2.40182
2.25544
2.1213
1.9981
1.8847
1.7801
1.68343
1.59394
1.51092
1.4338
1.36203
1.29514
1.23271
1.17436
1.11975
1.06857
1.02056
0.975451
0.933034
0.893101
0.855468
0.819965
0.786441
0.754755
0.724778
0.696394
0.669494
0.643981
0.619762
0.596755
0.574881
0.554071
0.53426
0.51539
0.497409
0.480273
0.463949
0.448416
0.433673
0.419745
0.406697
0.394654
0.383823
0.374536
0.367298
0.362862
0.36232
0.36723
0.379769
0.402939
0.44082
0.498877
0.584333
0.706544
0.877245
1.11035
1.42078
1.82188
2.3215
2.91802
3.59812
4.33735
5.10252
5.85412
6.54819
7.13876
7.58233
7.84441
7.90616
7.76892
7.45542
7.00816
6.48632
5.97843
5.59794
5.33152
5.23696
5.37542
5.79674
6.29016
7.04737
13.0028
11.4582
10.1623
9.06554
8.13008
7.32644
6.63151
6.02692
5.49797
5.03281
4.62177
4.25693
3.93173
3.64074
3.37941
3.14391
2.931
2.73794
2.56237
2.40227
2.25592
2.12181
1.99863
1.88525
1.78067
1.68403
1.59455
1.51156
1.43445
1.3627
1.29582
1.23341
1.17507
1.12047
1.0693
1.02129
0.976199
0.933789
0.893862
0.856234
0.820736
0.787215
0.755532
0.725557
0.697175
0.670276
0.644764
0.620545
0.597537
0.575662
0.554849
0.535032
0.51615
0.498148
0.480976
0.464589
0.448952
0.434037
0.419831
0.406341
0.393602
0.381694
0.370759
0.361031
0.352876
0.346842
0.343737
0.344711
0.351382
0.36598
0.39153
0.432087
0.493
0.581191
0.705316
0.875546
1.1026
1.39566
1.75942
2.19103
2.6785
3.2013
3.73276
4.24316
4.70237
5.08204
5.35821
5.51451
5.54575
5.46066
5.28303
5.05052
4.81254
4.63024
4.58489
4.6906
4.99165
5.55957
6.20251
6.70185
13.0028
11.4583
10.1623
9.06561
8.13016
7.32655
6.63164
6.02707
5.49815
5.03302
4.622
4.25719
3.93202
3.64106
3.37975
3.14428
2.9314
2.73837
2.56282
2.40276
2.25643
2.12234
1.99919
1.88583
1.78128
1.68465
1.59519
1.51222
1.43513
1.36339
1.29653
1.23413
1.17581
1.12122
1.07006
1.02207
0.976977
0.934575
0.894655
0.857032
0.821538
0.788021
0.75634
0.726368
0.697987
0.671091
0.645579
0.621361
0.598353
0.576478
0.555664
0.535845
0.51696
0.498952
0.481768
0.465362
0.44969
0.434714
0.420406
0.406744
0.393724
0.381362
0.369707
0.358857
0.348977
0.340337
0.333345
0.328607
0.326995
0.329732
0.338502
0.355585
0.384012
0.427744
0.491843
0.58253
0.706963
0.872484
1.08517
1.34782
1.65785
2.00608
2.3769
2.75002
3.10327
3.41539
3.66867
3.85098
3.95764
3.99286
3.97048
3.91346
3.85231
3.82314
3.86543
4.02922
4.39073
5.03542
5.80366
6.19948
13.0028
11.4583
10.1624
9.06567
8.13025
7.32666
6.63177
6.02723
5.49834
5.03323
4.62225
4.25746
3.93232
3.64139
3.38012
3.14467
2.93183
2.73882
2.5633
2.40326
2.25696
2.1229
1.99977
1.88643
1.7819
1.6853
1.59586
1.5129
1.43583
1.36411
1.29727
1.23488
1.17657
1.12199
1.07085
1.02286
0.977783
0.935388
0.895475
0.857857
0.822369
0.788855
0.757178
0.727208
0.698829
0.671934
0.646423
0.622206
0.599199
0.577324
0.55651
0.53669
0.517804
0.499794
0.482607
0.466195
0.450512
0.435517
0.421173
0.407449
0.394322
0.38178
0.369825
0.358487
0.347831
0.337977
0.329125
0.321582
0.315814
0.312489
0.31255
0.317292
0.328455
0.348328
0.379858
0.426727
0.493333
0.584567
0.705256
0.859207
1.04795
1.26944
1.51724
1.78052
2.04516
2.29579
2.51815
2.70145
2.84011
2.93489
2.99327
3.02923
3.06246
3.11782
3.22629
3.42986
3.80417
4.46388
5.30202
5.86227
13.0029
11.4583
10.1624
9.06574
8.13034
7.32677
6.63191
6.02739
5.49853
5.03346
4.6225
4.25774
3.93264
3.64174
3.3805
3.14508
2.93226
2.73929
2.5638
2.40379
2.25751
2.12347
2.00037
1.88706
1.78255
1.68597
1.59655
1.51361
1.43656
1.36486
1.29803
1.23566
1.17736
1.12279
1.07166
1.02368
0.978614
0.936227
0.89632
0.858709
0.823225
0.789716
0.758042
0.728075
0.699698
0.672804
0.647295
0.623078
0.600072
0.578197
0.557383
0.537564
0.518678
0.500668
0.48348
0.467067
0.451381
0.43638
0.422026
0.408282
0.395118
0.382508
0.370437
0.358899
0.34791
0.337514
0.327797
0.318908
0.311085
0.304688
0.300239
0.298478
0.300416
0.3074
0.321182
0.343971
0.378451
0.427713
0.495049
0.583539
0.695446
0.83147
0.990027
1.16679
1.3547
1.54468
1.72694
1.89262
2.03556
2.15358
2.2493
2.33043
2.40983
2.50597
2.64511
2.86733
3.24815
3.91271
4.791
5.55791
13.0029
11.4584
10.1625
9.06582
8.13044
7.3269
6.63206
6.02757
5.49874
5.03369
4.62277
4.25804
3.93297
3.6421
3.38089
3.14551
2.93272
2.73977
2.56431
2.40433
2.25808
2.12407
2.00099
1.8877
1.78322
1.68666
1.59726
1.51434
1.43731
1.36562
1.29881
1.23645
1.17817
1.12362
1.0725
1.02453
0.979468
0.937089
0.89719
0.859584
0.824106
0.790601
0.75893
0.728966
0.700592
0.6737
0.648192
0.623976
0.60097
0.579097
0.558283
0.538465
0.519579
0.501569
0.484383
0.46797
0.452285
0.437284
0.422929
0.409181
0.396007
0.383376
0.371264
0.359652
0.348531
0.337906
0.327808
0.318299
0.309492
0.301572
0.294824
0.289665
0.286681
0.286678
0.290717
0.300159
0.316682
0.342265
0.3791
0.429406
0.495137
0.577599
0.677022
0.792193
0.920261
1.05682
1.19634
1.33302
1.4618
1.57955
1.68603
1.78475
1.88374
1.99683
2.14648
2.37036
2.74187
3.39056
4.27908
5.25723
13.0029
11.4584
10.1625
9.06589
8.13054
7.32702
6.63221
6.02775
5.49895
5.03394
4.62304
4.25835
3.93331
3.64247
3.3813
3.14595
2.93319
2.74027
2.56484
2.40489
2.25867
2.12468
2.00163
1.88837
1.7839
1.68737
1.59799
1.51509
1.43808
1.36641
1.29961
1.23727
1.179
1.12446
1.07335
1.02539
0.980343
0.937972
0.89808
0.860481
0.825008
0.791508
0.759841
0.72988
0.701508
0.674618
0.649112
0.624898
0.601893
0.58002
0.559208
0.53939
0.520506
0.502497
0.485313
0.468902
0.453219
0.438221
0.423868
0.410123
0.39695
0.384318
0.372198
0.360564
0.349398
0.338688
0.328435
0.318657
0.309403
0.30076
0.292876
0.28598
0.280409
0.276642
0.275329
0.277325
0.283709
0.295785
0.315044
0.343081
0.381437
0.431393
0.493721
0.568454
0.65471
0.750648
0.85358
0.960285
1.06752
1.17271
1.27472
1.37485
1.47796
1.59428
1.74268
1.95772
2.30907
2.92651
3.80089
4.97635
13.0029
11.4585
10.1626
9.06597
8.13064
7.32714
6.63236
6.02794
5.49917
5.03419
4.62333
4.25867
3.93366
3.64286
3.38171
3.1464
2.93367
2.74078
2.56539
2.40546
2.25927
2.12531
2.00228
1.88905
1.78461
1.68809
1.59874
1.51586
1.43886
1.36721
1.30043
1.23811
1.17985
1.12532
1.07422
1.02628
0.981236
0.938875
0.89899
0.861397
0.82593
0.792435
0.760772
0.730815
0.702446
0.675559
0.650054
0.625842
0.602838
0.580967
0.560156
0.540339
0.521457
0.50345
0.486268
0.46986
0.454181
0.439188
0.42484
0.411101
0.397934
0.385309
0.373194
0.361562
0.350389
0.339657
0.329353
0.319474
0.310035
0.301071
0.292655
0.284906
0.278013
0.272258
0.268038
0.265894
0.266528
0.270821
0.279815
0.294681
0.316633
0.346809
0.386121
0.435094
0.493738
0.56147
0.637137
0.719128
0.805619
0.894927
0.986045
1.0794
1.17806
1.28967
1.42998
1.63018
1.95534
2.53257
3.37603
4.72673
13.0029
11.4585
10.1627
9.06605
8.13074
7.32728
6.63252
6.02813
5.49939
5.03444
4.62362
4.25899
3.93402
3.64325
3.38214
3.14686
2.93416
2.74131
2.56594
2.40604
2.25988
2.12595
2.00295
1.88974
1.78532
1.68883
1.5995
1.51664
1.43966
1.36803
1.30127
1.23896
1.18071
1.1262
1.07512
1.02718
0.982149
0.939796
0.899919
0.862333
0.826872
0.793382
0.761724
0.73177
0.703405
0.67652
0.651018
0.626807
0.603806
0.581936
0.561126
0.541311
0.522431
0.504427
0.487247
0.470843
0.455169
0.440181
0.42584
0.412109
0.398953
0.386338
0.374235
0.362616
0.351454
0.340728
0.33042
0.320518
0.311018
0.301931
0.293288
0.285148
0.277614
0.270848
0.265089
0.260678
0.258074
0.257876
0.260825
0.267792
0.27974
0.297659
0.32247
0.354912
0.395438
0.444127
0.500655
0.564321
0.63416
0.709149
0.788549
0.872495
0.963054
1.06611
1.19495
1.37758
1.6743
2.20773
3.01048
4.51333
13.003
11.4585
10.1627
9.06613
8.13085
7.32741
6.63268
6.02832
5.49962
5.0347
4.62391
4.25932
3.93438
3.64365
3.38257
3.14732
2.93466
2.74184
2.56651
2.40664
2.26051
2.12661
2.00363
1.89045
1.78605
1.68959
1.60027
1.51744
1.44048
1.36887
1.30212
1.23982
1.1816
1.1271
1.07602
1.0281
0.983078
0.940734
0.900865
0.863287
0.827832
0.794347
0.762694
0.732745
0.704383
0.677501
0.652001
0.627793
0.604793
0.582925
0.562118
0.542305
0.523427
0.505426
0.48825
0.47185
0.456181
0.4412
0.426867
0.413146
0.400001
0.3874
0.375313
0.363712
0.35257
0.341864
0.331574
0.321684
0.312183
0.303068
0.294349
0.286054
0.278236
0.270987
0.264451
0.258838
0.254448
0.251689
0.251085
0.253286
0.259055
0.269238
0.284705
0.306284
0.334666
0.370326
0.413453
0.46392
0.5213
0.584968
0.654336
0.729325
0.811297
0.904854
1.02131
1.18593
1.45452
1.94425
2.70199
4.33649
13.003
11.4586
10.1628
9.06622
8.13096
7.32755
6.63285
6.02852
5.49985
5.03497
4.62421
4.25966
3.93475
3.64406
3.38302
3.1478
2.93518
2.74239
2.56708
2.40725
2.26114
2.12727
2.00432
1.89116
1.7868
1.69035
1.60106
1.51825
1.44131
1.36971
1.30299
1.24071
1.18249
1.12801
1.07695
1.02903
0.984023
0.941689
0.901828
0.864257
0.828809
0.79533
0.763682
0.733737
0.705379
0.6785
0.653003
0.628798
0.605801
0.583935
0.56313
0.54332
0.524445
0.506447
0.489275
0.47288
0.457217
0.442243
0.42792
0.414209
0.401077
0.388492
0.376423
0.364843
0.353725
0.343047
0.332787
0.322926
0.313451
0.304354
0.295633
0.287301
0.279383
0.271932
0.265032
0.258817
0.25348
0.249296
0.246636
0.245979
0.247923
0.253173
0.262516
0.276786
0.296796
0.323267
0.356747
0.397534
0.445619
0.500684
0.562223
0.629906
0.704427
0.789248
0.893998
1.0416
1.28386
1.73225
2.44442
4.19403
13.003
11.4586
10.1628
9.0663
8.13106
7.32768
6.63302
6.02872
5.50008
5.03524
4.62452
4.26
3.93513
3.64447
3.38346
3.14829
2.93569
2.74294
2.56766
2.40786
2.26179
2.12794
2.00503
1.89189
1.78755
1.69113
1.60186
1.51907
1.44215
1.37057
1.30387
1.2416
1.1834
1.12893
1.07788
1.02998
0.984983
0.942658
0.902806
0.865243
0.829802
0.796329
0.764687
0.734746
0.706392
0.679518
0.654024
0.629822
0.606827
0.584965
0.564162
0.544356
0.525483
0.50749
0.490322
0.473933
0.458277
0.443311
0.428997
0.415298
0.40218
0.389611
0.377562
0.366005
0.354914
0.344267
0.334041
0.324219
0.314785
0.305728
0.297042
0.28873
0.280805
0.273296
0.266256
0.259769
0.253963
0.249022
0.245207
0.24287
0.24247
0.244578
0.249882
0.259166
0.273279
0.29308
0.319369
0.352783
0.393693
0.442105
0.497639
0.559759
0.628494
0.706157
0.80075
0.933099
1.15154
1.56204
2.23041
4.08266
13.003
11.4587
10.1629
9.06638
8.13117
7.32782
6.63318
6.02892
5.50032
5.03551
4.62483
4.26034
3.93551
3.64489
3.38392
3.14878
2.93622
2.7435
2.56826
2.40848
2.26244
2.12863
2.00574
1.89263
1.78831
1.69192
1.60267
1.5199
1.443
1.37145
1.30476
1.24251
1.18433
1.12987
1.07883
1.03095
0.985956
0.943641
0.903798
0.866244
0.83081
0.797344
0.765707
0.735772
0.707423
0.680552
0.655063
0.630864
0.607873
0.586013
0.565214
0.545411
0.526542
0.508553
0.491391
0.475008
0.459358
0.444401
0.430097
0.41641
0.403307
0.390756
0.378728
0.367195
0.356133
0.345518
0.33533
0.325551
0.316164
0.307158
0.298525
0.290262
0.282376
0.274885
0.267822
0.261242
0.255232
0.249919
0.245489
0.242198
0.240393
0.240529
0.243184
0.24906
0.25898
0.273856
0.294641
0.322237
0.357359
0.400372
0.451141
0.509057
0.573582
0.645865
0.73222
0.851433
1.04879
1.42522
2.05284
3.99884
13.003
11.4587
10.163
9.06647
8.13128
7.32796
6.63336
6.02912
5.50056
5.03578
4.62514
4.26069
3.9359
3.64531
3.38438
3.14927
2.93675
2.74406
2.56885
2.40911
2.2631
2.12932
2.00645
1.89337
1.78909
1.69271
1.60349
1.52074
1.44387
1.37233
1.30566
1.24343
1.18526
1.13082
1.0798
1.03192
0.986942
0.944637
0.904804
0.867258
0.831832
0.798373
0.766743
0.736814
0.70847
0.681604
0.656118
0.631923
0.608936
0.58708
0.566285
0.546485
0.527621
0.509637
0.49248
0.476103
0.460461
0.445513
0.43122
0.417546
0.404458
0.391925
0.379918
0.36841
0.357378
0.346797
0.336649
0.326914
0.317578
0.308629
0.300056
0.291857
0.284034
0.276598
0.269572
0.262994
0.256927
0.251461
0.246732
0.242928
0.240313
0.239244
0.240191
0.243762
0.25071
0.261935
0.27846
0.301363
0.331652
0.370063
0.416807
0.4714
0.532927
0.601458
0.681537
0.789819
0.968809
1.31496
1.90543
3.93926
13.0031
11.4587
10.163
9.06655
8.13139
7.3281
6.63353
6.02933
5.5008
5.03606
4.62545
4.26105
3.93629
3.64574
3.38484
3.14977
2.93728
2.74463
2.56946
2.40975
2.26377
2.13001
2.00718
1.89413
1.78986
1.69352
1.60432
1.52159
1.44474
1.37322
1.30657
1.24435
1.1862
1.13178
1.08077
1.03291
0.98794
0.945646
0.905823
0.868287
0.832869
0.799417
0.767794
0.73787
0.709532
0.682671
0.65719
0.633
0.610016
0.588165
0.567374
0.547579
0.528719
0.51074
0.493589
0.477219
0.461586
0.446647
0.432365
0.418705
0.405632
0.393118
0.381132
0.36965
0.358647
0.348101
0.337993
0.328304
0.31902
0.310129
0.301621
0.293492
0.285744
0.278382
0.271424
0.264899
0.258853
0.253357
0.248511
0.24446
0.241406
0.239627
0.239505
0.241548
0.246419
0.25496
0.268194
0.287293
0.31348
0.347836
0.390979
0.442726
0.502046
0.568132
0.643748
0.743256
0.906462
1.22587
1.78297
3.90099
13.0031
11.4588
10.1631
9.06664
8.13151
7.32824
6.6337
6.02954
5.50104
5.03634
4.62577
4.2614
3.93668
3.64617
3.38531
3.15027
2.93782
2.7452
2.57006
2.41039
2.26444
2.13072
2.00791
1.89489
1.79065
1.69433
1.60516
1.52245
1.44562
1.37412
1.30749
1.24529
1.18716
1.13275
1.08175
1.0339
0.98895
0.946668
0.906855
0.869328
0.833919
0.800475
0.768859
0.738942
0.710609
0.683754
0.658278
0.634092
0.611114
0.589267
0.568481
0.54869
0.529836
0.511863
0.494719
0.478356
0.462731
0.447802
0.433532
0.419885
0.406829
0.394333
0.382369
0.370913
0.359939
0.349428
0.339359
0.329716
0.320484
0.311652
0.303211
0.295155
0.287485
0.280207
0.273333
0.266888
0.260907
0.255448
0.25059
0.246448
0.243181
0.241011
0.240246
0.241306
0.244759
0.251363
0.262087
0.278126
0.300836
0.331575
0.371379
0.420495
0.478038
0.542612
0.615325
0.708083
0.857917
1.15382
1.6812
3.88158
13.0031
11.4588
10.1632
9.06672
8.13161
7.32838
6.63387
6.02974
5.50128
5.03662
4.62609
4.26175
3.93707
3.6466
3.38578
3.15078
2.93837
2.74578
2.57068
2.41103
2.26512
2.13142
2.00865
1.89565
1.79144
1.69515
1.606
1.52332
1.44651
1.37503
1.30841
1.24624
1.18812
1.13373
1.08275
1.03491
0.98997
0.9477
0.907898
0.870381
0.834981
0.801546
0.769937
0.740027
0.711701
0.684852
0.659382
0.635201
0.612228
0.590386
0.569605
0.54982
0.530972
0.513004
0.495867
0.479512
0.463896
0.448977
0.434719
0.421086
0.408046
0.395569
0.383628
0.372197
0.361253
0.350776
0.340747
0.331149
0.321969
0.313195
0.30482
0.296838
0.289249
0.282058
0.275276
0.268923
0.263031
0.257646
0.252836
0.248694
0.245352
0.242992
0.241865
0.242318
0.244834
0.250074
0.258926
0.272546
0.292344
0.319878
0.356556
0.40312
0.459053
0.522708
0.593776
0.681627
0.82033
1.09567
1.59676
3.87905
13.0031
11.4589
10.1632
9.06681
8.13173
7.32852
6.63405
6.02995
5.50153
5.0369
4.62641
4.26211
3.93747
3.64704
3.38625
3.15129
2.93891
2.74636
2.57129
2.41168
2.2658
2.13214
2.00939
1.89642
1.79224
1.69597
1.60685
1.52419
1.4474
1.37594
1.30935
1.24719
1.18909
1.13471
1.08375
1.03593
0.991001
0.948743
0.908953
0.871446
0.836055
0.802629
0.771028
0.741127
0.712807
0.685964
0.660501
0.636326
0.613358
0.591522
0.570746
0.550967
0.532125
0.514164
0.497034
0.480687
0.46508
0.450172
0.435926
0.422307
0.409284
0.396826
0.384906
0.373501
0.362587
0.352143
0.342153
0.3326
0.323471
0.314755
0.306444
0.298535
0.291027
0.283924
0.277236
0.270983
0.265191
0.259902
0.255174
0.251087
0.247755
0.245329
0.244022
0.244126
0.246049
0.25036
0.257854
0.269608
0.287021
0.311762
0.345542
0.389596
0.44393
0.506979
0.577357
0.661937
0.791597
1.04903
1.52701
3.89183
13.0032
11.4589
10.1633
9.06689
8.13184
7.32866
6.63422
6.03016
5.50177
5.03718
4.62673
4.26247
3.93787
3.64747
3.38673
3.1518
2.93946
2.74695
2.57191
2.41234
2.26649
2.13285
2.01014
1.8972
1.79305
1.6968
1.6077
1.52507
1.4483
1.37687
1.31029
1.24815
1.19007
1.13571
1.08476
1.03696
0.992042
0.949796
0.910018
0.872522
0.837141
0.803725
0.772133
0.742239
0.713927
0.687091
0.661634
0.637466
0.614504
0.592674
0.571904
0.552132
0.533296
0.515342
0.49822
0.481881
0.466284
0.451387
0.437153
0.423548
0.410541
0.398102
0.386205
0.374824
0.363939
0.353529
0.343577
0.334068
0.324989
0.316329
0.308082
0.300244
0.292815
0.285799
0.279207
0.273055
0.26737
0.262188
0.257562
0.253564
0.250291
0.24788
0.246512
0.246439
0.248011
0.25172
0.258264
0.268623
0.284135
0.306503
0.33765
0.379261
0.431944
0.494499
0.564865
0.647594
0.770156
1.01212
1.4699
3.91867
13.0032
11.4589
10.1633
9.06698
8.13195
7.3288
6.63439
6.03036
5.50201
5.03746
4.62705
4.26283
3.93827
3.64791
3.3872
3.15232
2.94001
2.74754
2.57253
2.41299
2.26717
2.13357
2.01089
1.89798
1.79385
1.69764
1.60856
1.52595
1.44921
1.37779
1.31124
1.24912
1.19106
1.13671
1.08578
1.03799
0.993091
0.950859
0.911093
0.873608
0.838238
0.804832
0.773249
0.743364
0.71506
0.688232
0.662782
0.638621
0.615666
0.593842
0.573079
0.553313
0.534484
0.516538
0.499423
0.483094
0.467506
0.45262
0.438399
0.424808
0.411818
0.399397
0.387522
0.376166
0.36531
0.354933
0.345018
0.335551
0.32652
0.317916
0.309731
0.301962
0.29461
0.28768
0.281182
0.275132
0.269556
0.264487
0.259975
0.256085
0.252906
0.25056
0.249209
0.249076
0.250468
0.253813
0.259725
0.269082
0.283129
0.303543
0.332367
0.371656
0.422638
0.48469
0.555491
0.637571
0.754854
0.983624
1.42385
3.95868
13.0032
11.459
10.1634
9.06706
8.13206
7.32894
6.63457
6.03057
5.50226
5.03774
4.62737
4.26319
3.93866
3.64835
3.38768
3.15283
2.94056
2.74812
2.57316
2.41365
2.26786
2.1343
2.01164
1.89876
1.79466
1.69847
1.60943
1.52684
1.45012
1.37873
1.31219
1.25009
1.19205
1.13772
1.08681
1.03903
0.994149
0.95193
0.912177
0.874705
0.839346
0.80595
0.774377
0.744501
0.716206
0.689386
0.663943
0.63979
0.616842
0.595025
0.574269
0.55451
0.535689
0.51775
0.500644
0.484324
0.468746
0.453872
0.439663
0.426087
0.413113
0.400711
0.388857
0.377526
0.366697
0.356352
0.346474
0.337049
0.328065
0.319513
0.311388
0.303687
0.29641
0.289564
0.283158
0.27721
0.271742
0.26679
0.262398
0.258628
0.255564
0.253318
0.252037
0.251925
0.253256
0.256412
0.261935
0.270611
0.28358
0.302442
0.329287
0.366441
0.415715
0.477203
0.548709
0.631143
0.744849
0.962569
1.38769
4.01118
13.0032
11.459
10.1635
9.06714
8.13217
7.32908
6.63474
6.03078
5.5025
5.03802
4.62769
4.26355
3.93906
3.64878
3.38815
3.15334
2.94111
2.74871
2.57378
2.41431
2.26856
2.13502
2.0124
1.89955
1.79548
1.69931
1.61029
1.52773
1.45104
1.37967
1.31315
1.25108
1.19305
1.13874
1.08785
1.04008
0.995214
0.95301
0.91327
0.87581
0.840464
0.807079
0.775516
0.74565
0.717364
0.690552
0.665118
0.640972
0.618033
0.596223
0.575475
0.555724
0.53691
0.51898
0.501882
0.485572
0.470004
0.455141
0.440945
0.427384
0.414425
0.402042
0.390209
0.378902
0.368101
0.357787
0.347944
0.338559
0.329621
0.321121
0.313054
0.305418
0.298214
0.291449
0.285133
0.279284
0.273925
0.269089
0.264821
0.26118
0.258245
0.256122
0.254949
0.254915
0.256271
0.259365
0.264687
0.27294
0.285161
0.302854
0.328081
0.363352
0.410979
0.471843
0.544203
0.627815
0.739546
0.948287
1.36058
4.07573
13.0032
11.4591
10.1635
9.06722
8.13228
7.32922
6.63491
6.03098
5.50274
5.0383
4.628
4.26391