/*--------------------------------*- C++ -*----------------------------------*\
| =========                 |                                                 |
| \\      /  F ield         | OpenFOAM: The Open Source CFD Toolbox           |
|  \\    /   O peration     | Version:  4.1                                   |
|   \\  /    A nd           | Web:      www.OpenFOAM.org                      |
|    \\/     M anipulation  |                                                 |
\*---------------------------------------------------------------------------*/
FoamFile
{
    version     2.0;
    format      ascii;
    class       volScalarField;
    location    "0.41";
    object      k;
}
// * * * * * * * * * * * * * * * * * * * * * * * * * * * * * * * * * * * * * //

dimensions      [0 2 -2 0 0 0 0];

internalField   nonuniform List<scalar> 
43750
(
0.384095
0.392928
0.401478
0.409727
0.417665
0.42528
0.432563
0.439502
0.446085
0.452301
0.458136
0.46358
0.46862
0.473243
0.47744
0.481197
0.484503
0.487347
0.489718
0.491603
0.492991
0.49387
0.494228
0.494052
0.493329
0.492046
0.490187
0.487737
0.484679
0.480998
0.476673
0.471685
0.466014
0.459638
0.452534
0.444682
0.43606
0.426651
0.416441
0.405427
0.393622
0.381059
0.367806
0.353983
0.339779
0.325487
0.311534
0.298527
0.287302
0.278955
0.274843
0.2765
0.285383
0.302388
0.327233
0.360709
0.402148
0.440028
0.46897
0.486888
0.494076
0.492138
0.483005
0.46825
0.449368
0.427962
0.405125
0.381809
0.358675
0.335998
0.313802
0.292731
0.269481
0.239923
0.207751
0.181167
0.164328
0.154753
0.151367
0.152387
0.156196
0.161605
0.167787
0.174196
0.180509
0.186573
0.192366
0.197972
0.203574
0.209469
0.214811
0.21946
0.223268
0.2259
0.226741
0.224637
0.217092
0.198248
0.154585
0.050709
0.349412
0.327138
0.307754
0.290832
0.276028
0.263056
0.251679
0.241699
0.232953
0.225304
0.218636
0.212849
0.207861
0.203602
0.20001
0.197037
0.19464
0.192784
0.191443
0.190595
0.190225
0.190325
0.190892
0.19193
0.193449
0.195468
0.198012
0.201117
0.204831
0.209212
0.214336
0.220296
0.227208
0.235217
0.244498
0.255271
0.267808
0.282443
0.299587
0.31975
0.343553
0.371748
0.405238
0.445081
0.492482
0.548761
0.61528
0.693318
0.783892
0.887504
1.00383
1.13136
1.26698
1.40567
1.54025
1.66189
1.76103
1.82865
1.8588
1.85046
1.80791
1.739
1.65216
1.55023
1.4417
1.33535
1.23163
1.13258
1.04017
0.955897
0.8781
0.799114
0.714809
0.628138
0.54161
0.458961
0.387768
0.334394
0.297416
0.272729
0.256945
0.247951
0.24434
0.244974
0.248832
0.25506
0.263012
0.272265
0.28259
0.293632
0.305399
0.317713
0.330119
0.341799
0.351684
0.357955
0.356101
0.335309
0.273919
0.100126
0.349122
0.326223
0.30592
0.287813
0.271583
0.256967
0.243752
0.23176
0.220844
0.210881
0.201766
0.193412
0.185744
0.178699
0.172221
0.166265
0.160791
0.155764
0.151155
0.14694
0.143096
0.139607
0.136459
0.13364
0.131141
0.128959
0.12709
0.125536
0.124303
0.123399
0.122841
0.12265
0.122855
0.123498
0.124631
0.126325
0.128672
0.131793
0.135842
0.141021
0.147589
0.155879
0.166317
0.179441
0.195927
0.216615
0.24253
0.2749
0.315165
0.364961
0.42609
0.500445
0.589884
0.696021
0.819899
0.961516
1.11917
1.28861
1.46242
1.62993
1.77827
1.89459
1.96908
1.99707
1.98043
1.92713
1.84659
1.748
1.63585
1.52532
1.42537
1.33207
1.23738
1.13304
1.01584
0.892061
0.775302
0.678408
0.606415
0.556003
0.519799
0.490716
0.464145
0.43838
0.413906
0.392287
0.375111
0.363358
0.35714
0.355908
0.35657
0.35798
0.358895
0.357853
0.353427
0.34502
0.333019
0.315808
0.280745
0.137611
0.349121
0.326216
0.305898
0.287767
0.271499
0.25683
0.243541
0.231452
0.220412
0.210294
0.200992
0.192413
0.184479
0.177124
0.170289
0.163925
0.157988
0.152441
0.147251
0.14239
0.137833
0.133559
0.129549
0.125788
0.122264
0.118965
0.115883
0.113013
0.11035
0.107893
0.105644
0.103607
0.101788
0.100199
0.098856
0.0977789
0.0969962
0.0965445
0.0964719
0.0968416
0.0977359
0.0992634
0.101567
0.104833
0.109309
0.115316
0.123268
0.133698
0.147275
0.164834
0.187399
0.216213
0.252766
0.298822
0.356437
0.427939
0.515829
0.622535
0.749953
0.898727
1.06728
1.25075
1.44018
1.62257
1.78241
1.90506
1.98057
2.00652
1.9882
1.93831
1.87243
1.79962
1.71561
1.61873
1.49958
1.36001
1.21495
1.08376
0.978223
0.898357
0.835805
0.780694
0.726494
0.671342
0.616803
0.565779
0.520866
0.483624
0.454704
0.434032
0.419015
0.406478
0.39525
0.383864
0.370431
0.353354
0.332737
0.310127
0.28121
0.169572
0.349121
0.326216
0.305897
0.287764
0.271494
0.256821
0.243529
0.231436
0.220391
0.210266
0.200955
0.192365
0.184416
0.177042
0.170184
0.16379
0.157816
0.152223
0.146977
0.142047
0.137408
0.133034
0.128906
0.125006
0.121316
0.117823
0.114514
0.111378
0.108406
0.10559
0.102924
0.100402
0.0980234
0.0957851
0.0936885
0.0917367
0.089936
0.0882964
0.0868323
0.0855644
0.0845211
0.0837413
0.0832774
0.0831999
0.0836029
0.0846113
0.0863896
0.0891529
0.0931798
0.0988291
0.106558
0.116945
0.130718
0.148784
0.172275
0.202589
0.241452
0.290957
0.353592
0.432185
0.529724
0.648955
0.791656
0.957519
1.14276
1.33893
1.53274
1.70793
1.84943
1.94863
2.00608
2.02809
2.0193
1.97885
1.89967
1.7736
1.61907
1.4648
1.331
1.22546
1.14257
1.07115
1.00138
0.928978
0.854678
0.781565
0.712689
0.650027
0.594798
0.548058
0.511042
0.478736
0.449995
0.424139
0.400207
0.3767
0.35187
0.324607
0.291805
0.196623
0.349121
0.326216
0.305896
0.287763
0.271492
0.256818
0.243525
0.231431
0.220386
0.210261
0.20095
0.192359
0.184411
0.177036
0.170177
0.163782
0.157806
0.152211
0.146961
0.142026
0.137379
0.132996
0.128856
0.12494
0.12123
0.117712
0.114372
0.111197
0.108177
0.105302
0.102563
0.0999534
0.0974659
0.0950951
0.0928367
0.0906873
0.0886448
0.0867083
0.0848791
0.08316
0.081557
0.0800796
0.0787423
0.0775664
0.0765828
0.0758351
0.0753849
0.0753174
0.0757492
0.0768374
0.0787908
0.0818828
0.0864666
0.0929942
0.10204
0.11433
0.130776
0.152523
0.180995
0.217958
0.265576
0.326455
0.403616
0.500319
0.619609
0.763478
0.931596
1.11991
1.3198
1.51886
1.70349
1.86162
1.98334
2.05909
2.0781
2.03219
1.92768
1.78949
1.64766
1.52295
1.42184
1.3397
1.26252
1.18238
1.09783
1.01146
0.926672
0.845369
0.767991
0.69495
0.632959
0.576924
0.525856
0.480059
0.440209
0.406666
0.378286
0.350576
0.313972
0.219677
0.349121
0.326216
0.305896
0.287763
0.271491
0.256817
0.243523
0.231429
0.220383
0.210259
0.200947
0.192356
0.184408
0.177033
0.170174
0.163779
0.157803
0.152208
0.146958
0.142023
0.137376
0.132992
0.128852
0.124934
0.121223
0.117702
0.114357
0.111177
0.10815
0.105265
0.102514
0.0998879
0.0973794
0.094982
0.0926896
0.0904972
0.0884002
0.086395
0.0844786
0.0826492
0.0809058
0.0792489
0.0776806
0.0762054
0.0748307
0.0735684
0.0724366
0.0714619
0.0706838
0.0701592
0.0699693
0.0702285
0.0710953
0.0727856
0.0755888
0.0798865
0.0861739
0.0950855
0.107424
0.124196
0.146649
0.176323
0.215108
0.265309
0.329685
0.411404
0.513821
0.639958
0.791649
0.968447
1.16654
1.37784
1.58917
1.7817
1.93185
2.0166
2.02464
1.96594
1.86732
1.75808
1.65708
1.56948
1.48896
1.40735
1.31841
1.22536
1.13216
1.04063
0.950756
0.859961
0.773554
0.693
0.617846
0.549657
0.490706
0.443324
0.408616
0.382081
0.345297
0.239927
0.349121
0.326216
0.305897
0.287763
0.271491
0.256817
0.243523
0.231429
0.220383
0.210258
0.200947
0.192356
0.184408
0.177034
0.170175
0.163781
0.157806
0.152211
0.146962
0.142027
0.137381
0.132998
0.128858
0.124941
0.12123
0.11771
0.114365
0.111185
0.108157
0.105271
0.102518
0.0998886
0.0973759
0.0949725
0.0926721
0.0904689
0.0883576
0.0863337
0.084393
0.082532
0.0807479
0.0790384
0.077402
0.0758385
0.0743485
0.0729345
0.0716012
0.070356
0.0692109
0.068184
0.0673023
0.0666058
0.0661531
0.0660291
0.0663561
0.0673074
0.0691247
0.0721392
0.0767949
0.0836736
0.0935218
0.107278
0.126104
0.151414
0.184924
0.228703
0.28524
0.357496
0.448874
0.563036
0.703387
0.871999
1.0676
1.28249
1.49942
1.69157
1.83022
1.89865
1.90108
1.85801
1.79287
1.72136
1.64835
1.57205
1.4893
1.39994
1.30653
1.21156
1.11644
1.02024
0.914099
0.811255
0.713754
0.624486
0.547224
0.485864
0.443286
0.416913
0.38243
0.25859
0.349122
0.326217
0.305897
0.287763
0.271491
0.256817
0.243524
0.23143
0.220384
0.210259
0.200948
0.192358
0.18441
0.177037
0.170179
0.163785
0.15781
0.152216
0.146967
0.142034
0.137388
0.133006
0.128867
0.124951
0.121241
0.117721
0.114377
0.111198
0.10817
0.105285
0.102532
0.0999025
0.0973895
0.0949854
0.0926836
0.0904781
0.0883634
0.0863346
0.084387
0.0825165
0.0807195
0.0789928
0.0773335
0.0757395
0.0742093
0.0727423
0.0713388
0.0700003
0.0687304
0.0675348
0.0664226
0.0654079
0.0645115
0.0637644
0.0632123
0.0629228
0.0629951
0.0635739
0.0648677
0.0671714
0.0708921
0.076577
0.0849406
0.0968899
0.113546
0.136265
0.166664
0.206666
0.258592
0.325288
0.410255
0.517584
0.651345
0.813883
1.00266
1.20648
1.40431
1.57063
1.68625
1.7466
1.76061
1.74233
1.70312
1.64904
1.58247
1.50503
1.41904
1.327
1.23091
1.13117
1.02254
0.90958
0.797748
0.693107
0.601965
0.529989
0.481145
0.454116
0.421909
0.276962
0.349122
0.326217
0.305898
0.287764
0.271492
0.256819
0.243525
0.231431
0.220386
0.210261
0.20095
0.192361
0.184413
0.17704
0.170183
0.16379
0.157816
0.152223
0.146975
0.142042
0.137398
0.133017
0.128879
0.124963
0.121254
0.117735
0.114393
0.111214
0.108187
0.105303
0.10255
0.099922
0.0974095
0.0950057
0.0927041
0.0904985
0.0883835
0.0863537
0.0844046
0.0825318
0.0807313
0.0789994
0.0773327
0.0757285
0.0741842
0.0726977
0.0712677
0.0698933
0.0685747
0.0673133
0.0661119
0.0649756
0.0639124
0.0629342
0.0620589
0.0613132
0.0607363
0.0603866
0.0603508
0.0607573
0.0617948
0.0637355
0.0669635
0.0720052
0.0795579
0.0905152
0.105984
0.127297
0.156031
0.194055
0.243633
0.307585
0.389364
0.492774
0.620844
0.773587
0.945194
1.12268
1.28823
1.4251
1.52343
1.58178
1.60444
1.59739
1.56602
1.51477
1.44754
1.36781
1.2785
1.1816
1.07702
0.963083
0.847035
0.73694
0.640907
0.565762
0.516051
0.490871
0.46071
0.294821
0.349122
0.326218
0.305899
0.287765
0.271494
0.25682
0.243527
0.231433
0.220388
0.210264
0.200954
0.192365
0.184418
0.177046
0.170189
0.163797
0.157824
0.152231
0.146985
0.142053
0.137409
0.133029
0.128892
0.124978
0.121269
0.117751
0.11441
0.111232
0.108206
0.105323
0.102571
0.0999436
0.0974319
0.0950288
0.0927278
0.0905228
0.0884081
0.0863786
0.0844296
0.0825566
0.0807554
0.0790224
0.0773541
0.0757471
0.0741985
0.0727058
0.0712666
0.0698792
0.068542
0.0672545
0.0660168
0.06483
0.0636968
0.0626219
0.0616127
0.0606804
0.0598417
0.0591215
0.0585565
0.0582012
0.0581373
0.0584863
0.0594283
0.0612257
0.064253
0.0690285
0.076245
0.0867951
0.101788
0.122559
0.150686
0.18803
0.236801
0.299586
0.379163
0.477838
0.596159
0.731379
0.876541
1.02111
1.15329
1.26292
1.3435
1.39256
1.41078
1.40085
1.36648
1.31166
1.24022
1.15556
1.06069
0.957683
0.849165
0.744979
0.654447
0.584896
0.541113
0.522555
0.497772
0.308787
0.349122
0.326218
0.305899
0.287766
0.271495
0.256821
0.243528
0.231435
0.220391
0.210268
0.200958
0.192369
0.184423
0.177052
0.170196
0.163805
0.157833
0.152241
0.146995
0.142064
0.137422
0.133043
0.128907
0.124993
0.121286
0.117769
0.114429
0.111252
0.108227
0.105345
0.102594
0.0999674
0.0974565
0.0950542
0.0927539
0.0905495
0.0884354
0.0864065
0.0844578
0.0825851
0.0807842
0.0790513
0.0773827
0.0757753
0.0742259
0.0727317
0.0712901
0.0698987
0.0685555
0.0672589
0.0660075
0.0648008
0.0636388
0.0625227
0.0614551
0.0604406
0.0594864
0.0586036
0.0578089
0.0571269
0.0565945
0.0562662
0.0562237
0.0565887
0.0575416
0.0593461
0.0623785
0.0671608
0.074392
0.0849738
0.100028
0.1209
0.149162
0.186583
0.235058
0.296397
0.371913
0.461801
0.564495
0.676259
0.791243
0.902097
1.00106
1.0812
1.13754
1.16752
1.17095
1.14953
1.10615
1.04438
0.968457
0.886215
0.7975
0.711595
0.637592
0.582522
0.551289
0.544028
0.528237
0.317976
0.349123
0.326219
0.3059
0.287767
0.271496
0.256824
0.243531
0.231438
0.220394
0.210272
0.200963
0.192375
0.18443
0.177059
0.170204
0.163814
0.157843
0.152252
0.147007
0.142078
0.137436
0.133058
0.128923
0.125011
0.121305
0.117789
0.11445
0.111274
0.10825
0.105368
0.102619
0.0999932
0.0974832
0.0950818
0.0927822
0.0905786
0.0884651
0.0864367
0.0844886
0.0826163
0.0808158
0.0790832
0.0774149
0.0758076
0.0742583
0.072764
0.071322
0.0699299
0.0685852
0.0672861
0.0660305
0.064817
0.0636444
0.0625123
0.0614206
0.0603707
0.0593652
0.0584086
0.0575086
0.0566766
0.0559299
0.0552946
0.0548092
0.0545311
0.0545462
0.0549818
0.056026
0.0579515
0.061146
0.0661437
0.0736568
0.0845988
0.100093
0.121454
0.150119
0.187501
0.23475
0.292444
0.360303
0.437006
0.52011
0.606069
0.690332
0.767669
0.832756
0.880949
0.908988
0.915403
0.900564
0.8665
0.816708
0.756639
0.698671
0.640881
0.591645
0.557469
0.543443
0.550831
0.54725
0.321349
0.349123
0.326219
0.305901
0.287769
0.271498
0.256826
0.243534
0.231442
0.220398
0.210276
0.200968
0.192381
0.184437
0.177067
0.170213
0.163824
0.157854
0.152264
0.14702
0.142092
0.137451
0.133075
0.128941
0.12503
0.121325
0.11781
0.114472
0.111297
0.108275
0.105394
0.102646
0.100021
0.0975116
0.095111
0.0928124
0.0906095
0.0884967
0.086469
0.0845215
0.0826498
0.0808497
0.0791175
0.0774496
0.0758427
0.0742937
0.0727996
0.0713578
0.0699658
0.068621
0.0673215
0.0660649
0.0648497
0.0636739
0.0625364
0.0614361
0.0603725
0.0593458
0.0583574
0.0574101
0.0565087
0.0556614
0.0548805
0.054185
0.0536031
0.053177
0.0529693
0.0530734
0.0536266
0.0548296
0.0569705
0.0604532
0.0658274
0.0738145
0.0853182
0.101404
0.123221
0.15184
0.188018
0.231943
0.283066
0.340076
0.400974
0.463175
0.523578
0.578703
0.624961
0.659096
0.678693
0.682617
0.671292
0.646817
0.612989
0.576745
0.547949
0.524998
0.513031
0.517176
0.540153
0.550853
0.318063
0.349123
0.32622
0.305902
0.28777
0.2715
0.256828
0.243537
0.231445
0.220402
0.210281
0.200974
0.192388
0.184444
0.177076
0.170223
0.163834
0.157865
0.152277
0.147034
0.142107
0.137468
0.133092
0.128959
0.12505
0.121346
0.117832
0.114495
0.111322
0.1083
0.105421
0.102673
0.10005
0.0975417
0.095142
0.0928442
0.0906422
0.0885302
0.0865032
0.0845564
0.0826852
0.0808858
0.0791541
0.0774866
0.0758802
0.0743315
0.0728378
0.0713964
0.0700046
0.0686602
0.0673608
0.0661043
0.0648888
0.0637125
0.0625736
0.0614707
0.0604026
0.0593683
0.0583675
0.0574006
0.0564691
0.0555761
0.0547271
0.0539311
0.0532018
0.0525606
0.0520392
0.0516849
0.051568
0.0517919
0.0525072
0.0539306
0.0563674
0.060237
0.066095
0.0746437
0.086713
0.10319
0.12488
0.152303
0.185494
0.223862
0.266192
0.310747
0.355426
0.397912
0.435819
0.466882
0.489227
0.501689
0.504118
0.497599
0.484516
0.468508
0.454635
0.450104
0.455785
0.474869
0.511582
0.537028
0.307982
0.349124
0.326221
0.305903
0.287771
0.271502
0.25683
0.24354
0.231449
0.220407
0.210287
0.20098
0.192395
0.184452
0.177085
0.170233
0.163845
0.157878
0.152291
0.147049
0.142123
0.137485
0.133111
0.128979
0.125071
0.121368
0.117856
0.11452
0.111348
0.108327
0.105449
0.102703
0.10008
0.097573
0.0951744
0.0928775
0.0906764
0.0885653
0.0865391
0.084593
0.0827225
0.0809237
0.0791926
0.0775257
0.0759198
0.0743716
0.0728784
0.0714373
0.070046
0.0687019
0.0674029
0.0661468
0.0649316
0.0637554
0.0626165
0.0615131
0.0604439
0.0594074
0.0584025
0.0574285
0.0564852
0.0555732
0.0546944
0.0538522
0.0530532
0.0523075
0.0516311
0.0510485
0.0505962
0.0503284
0.0503249
0.0507013
0.0516232
0.0533233
0.0561201
0.0604351
0.0667993
0.0758358
0.0882029
0.104487
0.125052
0.149885
0.178485
0.20985
0.242561
0.274941
0.305239
0.331816
0.353326
0.368901
0.378332
0.382209
0.381973
0.379847
0.378703
0.381848
0.393523
0.419697
0.465355
0.504218
0.292306
0.349124
0.326221
0.305904
0.287773
0.271504
0.256833
0.243543
0.231453
0.220412
0.210292
0.200986
0.192402
0.184461
0.177094
0.170243
0.163857
0.157891
0.152305
0.147064
0.142139
0.137503
0.13313
0.129
0.125092
0.121391
0.11788
0.114545
0.111374
0.108355
0.105478
0.102733
0.100112
0.0976057
0.0952081
0.0929123
0.0907121
0.0886019
0.0865765
0.0846312
0.0827615
0.0809634
0.0792329
0.0775667
0.0759613
0.0744137
0.072921
0.0714804
0.0700896
0.068746
0.0674475
0.0661918
0.0649771
0.0638014
0.0626628
0.0615598
0.0604906
0.0594539
0.0584481
0.0574721
0.056525
0.0556061
0.0547154
0.053854
0.053024
0.0522299
0.0514792
0.0507841
0.0501635
0.0496462
0.0492748
0.0491122
0.049249
0.0498139
0.0509863
0.0530092
0.0562001
0.0609531
0.0677232
0.0769822
0.0891419
0.10445
0.122883
0.144063
0.167246
0.191372
0.215201
0.237484
0.257138
0.273415
0.286031
0.295258
0.301954
0.307545
0.313992
0.32383
0.340513
0.36998
0.419665
0.467275
0.281059
0.349124
0.326222
0.305905
0.287774
0.271506
0.256836
0.243546
0.231457
0.220416
0.210298
0.200993
0.19241
0.18447
0.177104
0.170254
0.163869
0.157904
0.152319
0.147081
0.142157
0.137521
0.13315
0.129021
0.125115
0.121415
0.117905
0.114572
0.111402
0.108385
0.105509
0.102765
0.100144
0.0976395
0.0952431
0.0929483
0.0907491
0.0886398
0.0866153
0.0846709
0.082802
0.0810046
0.0792749
0.0776093
0.0760046
0.0744576
0.0729655
0.0715255
0.0701352
0.0687922
0.0674943
0.0662392
0.065025
0.0638499
0.062712
0.0616095
0.060541
0.0595047
0.0584992
0.0575232
0.0565754
0.0556547
0.0547604
0.053892
0.0530498
0.0522353
0.0514514
0.0507036
0.0500014
0.0493594
0.0488007
0.0483595
0.0480862
0.0480533
0.0483628
0.0491551
0.0506171
0.0529883
0.0565595
0.0616579
0.0686142
0.0777091
0.089105
0.102777
0.118461
0.13564
0.153591
0.171469
0.188449
0.203863
0.217336
0.228874
0.238933
0.248445
0.258865
0.272338
0.292145
0.32426
0.377026
0.430901
0.271194
0.349125
0.326223
0.305907
0.287776
0.271508
0.256838
0.24355
0.231461
0.220422
0.210304
0.201
0.192418
0.184479
0.177114
0.170266
0.163882
0.157918
0.152335
0.147097
0.142175
0.137541
0.133171
0.129043
0.125138
0.12144
0.117931
0.114599
0.111431
0.108415
0.10554
0.102797
0.100178
0.0976745
0.0952791
0.0929854
0.0907872
0.088679
0.0866555
0.0847119
0.0828439
0.0810473
0.0793184
0.0776535
0.0760495
0.0745032
0.0730117
0.0715725
0.0701828
0.0688404
0.0675431
0.0662887
0.0650752
0.0639008
0.0627636
0.0616619
0.0605942
0.0595587
0.0585541
0.057579
0.0566318
0.0557115
0.0548168
0.0539469
0.0531011
0.0522794
0.0514826
0.0507126
0.0499736
0.0492727
0.0486219
0.0480397
0.0475541
0.0472065
0.0470561
0.0471854
0.0477062
0.0487647
0.0505435
0.0532585
0.0571456
0.0624359
0.0693193
0.0779015
0.0881616
0.0999235
0.112852
0.126482
0.140284
0.153757
0.166531
0.178468
0.189752
0.200973
0.213238
0.228405
0.249602
0.282756
0.336758
0.39459
0.261252
0.349125
0.326224
0.305908
0.287778
0.27151
0.256841
0.243553
0.231466
0.220427
0.21031
0.201007
0.192426
0.184488
0.177125
0.170278
0.163895
0.157933
0.152351
0.147114
0.142193
0.137561
0.133192
0.129066
0.125162
0.121465
0.117958
0.114628
0.111461
0.108446
0.105572
0.102831
0.100213
0.0977104
0.0953162
0.0930236
0.0908265
0.0887193
0.0866968
0.0847542
0.0828871
0.0810914
0.0793633
0.0776992
0.076096
0.0745504
0.0730596
0.0716211
0.0702321
0.0688904
0.0675938
0.0663401
0.0651274
0.0639538
0.0628175
0.0617167
0.06065
0.0596156
0.0586122
0.0576382
0.0566924
0.0557733
0.0548799
0.0540108
0.0531653
0.0523425
0.0515422
0.0507648
0.0500117
0.0492859
0.0485934
0.0479438
0.0473524
0.0468428
0.0464498
0.0462228
0.0462301
0.0465631
0.0473387
0.0486993
0.050809
0.0538416
0.0579629
0.0633056
0.0699425
0.0778623
0.0869559
0.0970178
0.10777
0.118904
0.13015
0.141351
0.152556
0.164134
0.176931
0.192551
0.213938
0.24688
0.300581
0.360329
0.251754
0.349126
0.326225
0.305909
0.28778
0.271513
0.256844
0.243557
0.23147
0.220432
0.210316
0.201015
0.192435
0.184498
0.177136
0.17029
0.163909
0.157948
0.152367
0.147132
0.142212
0.137581
0.133214
0.129089
0.125187
0.121491
0.117986
0.114657
0.111491
0.108477
0.105605
0.102865
0.100248
0.0977471
0.0953542
0.0930627
0.0908668
0.0887607
0.0867392
0.0847976
0.0829315
0.0811367
0.0794095
0.0777463
0.0761438
0.0745991
0.0731091
0.0716713
0.0702831
0.0689422
0.0676463
0.0663934
0.0651816
0.0640088
0.0628734
0.0617737
0.0607081
0.059675
0.0586729
0.0577005
0.0567563
0.0558391
0.0549476
0.0540806
0.053237
0.052416
0.0516167
0.0508388
0.0500825
0.0493489
0.0486406
0.0479624
0.0473227
0.0467345
0.0462182
0.0458038
0.0455339
0.0454666
0.0456788
0.0462671
0.0473467
0.0490473
0.0515035
0.0548411
0.0591606
0.0645201
0.070922
0.0783069
0.0865592
0.0955253
0.105048
0.115017
0.125447
0.136586
0.149097
0.16437
0.185149
0.217025
0.269321
0.329374
0.24313
0.349126
0.326225
0.30591
0.287781
0.271515
0.256847
0.243561
0.231475
0.220438
0.210323
0.201022
0.192444
0.184508
0.177147
0.170303
0.163923
0.157963
0.152383
0.14715
0.142232
0.137602
0.133236
0.129113
0.125212
0.121518
0.118014
0.114686
0.111522
0.10851
0.105639
0.1029
0.100285
0.0977848
0.0953931
0.0931028
0.0909081
0.0888031
0.0867827
0.0848421
0.082977
0.0811832
0.0794569
0.0777946
0.076193
0.0746491
0.07316
0.071723
0.0703356
0.0689955
0.0677005
0.0664485
0.0652375
0.0640658
0.0629314
0.0618328
0.0607684
0.0597367
0.0587361
0.0577654
0.0568232
0.0559081
0.055019
0.0541547
0.053314
0.052496
0.0516998
0.0509248
0.0501706
0.0494374
0.0487262
0.0480395
0.0473815
0.0467597
0.046186
0.0456784
0.0452639
0.04498
0.0448783
0.0450255
0.0455048
0.0464143
0.0478623
0.0499606
0.0528134
0.0565062
0.0610941
0.0665943
0.0729837
0.0802057
0.0881876
0.0968728
0.106279
0.116599
0.128375
0.142829
0.162519
0.192809
0.243007
0.302207
0.235611
0.349126
0.326226
0.305912
0.287783
0.271517
0.25685
0.243565
0.231479
0.220443
0.21033
0.20103
0.192453
0.184518
0.177159
0.170315
0.163937
0.157978
0.1524
0.147168
0.142251
0.137623
0.133259
0.129137
0.125238
0.121545
0.118043
0.114716
0.111553
0.108543
0.105673
0.102936
0.100322
0.0978231
0.0954327
0.0931437
0.0909501
0.0888463
0.0868271
0.0848876
0.0830236
0.0812308
0.0795055
0.0778441
0.0762435
0.0747005
0.0732122
0.0717761
0.0703896
0.0690504
0.0677563
0.0665052
0.0652953
0.0641245
0.0629913
0.0618939
0.0608308
0.0598005
0.0588017
0.0578328
0.0568926
0.05598
0.0550936
0.0542323
0.0533951
0.0525809
0.0517889
0.0510184
0.0502688
0.0495399
0.0488322
0.0481468
0.047486
0.0468542
0.0462585
0.0457101
0.0452258
0.0448305
0.0445589
0.044458
0.0445885
0.0450254
0.0458568
0.04718
0.0490952
0.051698
0.0550699
0.0592695
0.0643272
0.0702442
0.0769998
0.084573
0.0929868
0.102397
0.113264
0.126679
0.145036
0.173482
0.221209
0.278797
0.229269
0.349127
0.326227
0.305913
0.287785
0.27152
0.256854
0.243569
0.231484
0.220449
0.210336
0.201038
0.192462
0.184528
0.17717
0.170328
0.163951
0.157994
0.152417
0.147187
0.142272
0.137645
0.133282
0.129161
0.125264
0.121573
0.118072
0.114747
0.111586
0.108576
0.105708
0.102972
0.10036
0.0978623
0.0954732
0.0931855
0.0909931
0.0888905
0.0868724
0.0849341
0.0830711
0.0812794
0.0795551
0.0778948
0.0762951
0.0747531
0.0732658
0.0718306
0.070445
0.0691068
0.0678136
0.0665635
0.0653546
0.064185
0.0630529
0.0619568
0.0608951
0.0598664
0.0588693
0.0579024
0.0569645
0.0560544
0.0551709
0.0543129
0.0534795
0.0526696
0.0518824
0.0511173
0.0503736
0.0496511
0.0489498
0.0482705
0.0476146
0.0469848
0.0463857
0.0458245
0.0453123
0.0448656
0.0445082
0.0442733
0.0442055
0.0443626
0.0448156
0.0456484
0.0469544
0.0488311
0.0513738
0.0546665
0.0587742
0.0637365
0.0695665
0.0762625
0.0838426
0.0924241
0.102391
0.114723
0.131677
0.158196
0.203312
0.258838
0.224078
0.349127
0.326228
0.305914
0.287787
0.271522
0.256857
0.243572
0.231489
0.220455
0.210343
0.201046
0.192471
0.184539
0.177182
0.170341
0.163966
0.15801
0.152435
0.147206
0.142292
0.137667
0.133305
0.129187
0.125291
0.121601
0.118102
0.114778
0.111618
0.10861
0.105744
0.103009
0.100398
0.0979021
0.0955142
0.0932279
0.0910368
0.0889354
0.0869186
0.0849814
0.0831196
0.081329
0.0796058
0.0779465
0.0763479
0.0748068
0.0733205
0.0718863
0.0705018
0.0691645
0.0678724
0.0666234
0.0654155
0.064247
0.0631162
0.0620215
0.0609613
0.0599343
0.058939
0.0579741
0.0570386
0.0561311
0.0552506
0.0543962
0.0535667
0.0527614
0.0519794
0.0512202
0.0504831
0.0497679
0.0490747
0.0484039
0.0477565
0.0471347
0.0465415
0.0459822
0.0454645
0.0449999
0.0446052
0.0443041
0.0441297
0.044126
0.0443501
0.044873
0.0457788
0.0471628
0.0491264
0.0517699
0.0551839
0.0594383
0.0645744
0.0706055
0.0775386
0.0854457
0.0946278
0.105949
0.12154
0.146167
0.188678
0.24192
0.219959
0.349128
0.326229
0.305916
0.287789
0.271525
0.25686
0.243576
0.231494
0.220461
0.21035
0.201054
0.19248
0.184549
0.177194
0.170355
0.16398
0.158026
0.152452
0.147225
0.142313
0.137689
0.133329
0.129212
0.125318
0.12163
0.118131
0.11481
0.111651
0.108645
0.10578
0.103047
0.100437
0.0979424
0.095556
0.093271
0.0910812
0.0889811
0.0869655
0.0850296
0.083169
0.0813795
0.0796574
0.0779993
0.0764017
0.0748617
0.0733764
0.0719433
0.0705598
0.0692236
0.0679325
0.0666846
0.0654779
0.0643107
0.0631812
0.0620879
0.0610293
0.0600039
0.0590105
0.0580479
0.0571147
0.05621
0.0553327
0.0544818
0.0536564
0.0528558
0.0520792
0.0513261
0.050596
0.0498888
0.0492043
0.0485432
0.0479062
0.0472952
0.0467126
0.0461626
0.045651
0.0451866
0.0447817
0.0444541
0.0442284
0.0441383
0.0442293
0.0445601
0.0452047
0.0462519
0.0478037
0.04997
0.0528603
0.0565715
0.0611736
0.0666983
0.0731471
0.0805454
0.0891019
0.0995517
0.113891
0.136726
0.176729
0.227615
0.216813
0.349128
0.32623
0.305917
0.287791
0.271527
0.256863
0.243581
0.231499
0.220467
0.210357
0.201062
0.19249
0.18456
0.177206
0.170368
0.163995
0.158042
0.15247
0.147244
0.142334
0.137711
0.133353
0.129238
0.125345
0.121658
0.118162
0.114841
0.111685
0.10868
0.105816
0.103085
0.100476
0.0979833
0.0955983
0.0933147
0.0911263
0.0890275
0.0870132
0.0850786
0.0832191
0.0814309
0.07971
0.078053
0.0764565
0.0749176
0.0734335
0.0720014
0.070619
0.0692839
0.067994
0.0667473
0.0655418
0.0643758
0.0632477
0.0621559
0.0610989
0.0600753
0.0590839
0.0581234
0.0571928
0.0562909
0.0554168
0.0545695
0.0537484
0.0529525
0.0521815
0.0514346
0.0507117
0.0500125
0.0493372
0.0486862
0.0480606
0.0474617
0.0468919
0.0463548
0.0458552
0.0454004
0.0450001
0.0446682
0.0444238
0.0442933
0.0443127
0.04453
0.0450083
0.0458278
0.047086
0.048896
0.0513804
0.0546591
0.0588314
0.0639557
0.0700393
0.0770715
0.0851668
0.0949137
0.108153
0.129338
0.166974
0.215533
0.214539
0.349129
0.326231
0.305918
0.287792
0.27153
0.256866
0.243585
0.231504
0.220473
0.210365
0.201071
0.192499
0.184571
0.177218
0.170382
0.16401
0.158059
0.152488
0.147264
0.142355
0.137734
0.133377
0.129263
0.125372
0.121687
0.118192
0.114874
0.111719
0.108715
0.105853
0.103123
0.100516
0.0980249
0.0956413
0.0933591
0.0911721
0.0890747
0.0870616
0.0851283
0.0832701
0.0814831
0.0797634
0.0781076
0.0765123
0.0749746
0.0734916
0.0720607
0.0706794
0.0693455
0.0680567
0.0668112
0.065607
0.0644424
0.0633157
0.0622254
0.0611701
0.0601484
0.059159
0.0582008
0.0572726
0.0563736
0.0555027
0.0546592
0.0538422
0.0530513
0.0522857
0.0515451
0.0508294
0.0501384
0.0494723
0.0488318
0.0482177
0.0476315
0.0470756
0.046553
0.0460683
0.0456277
0.0452396
0.0449156
0.0446712
0.0445279
0.0445144
0.0446703
0.0450483
0.0457184
0.0467706
0.0483154
0.0504817
0.053407
0.057219
0.0620085
0.0678037
0.0745759
0.0823554
0.0915733
0.103887
0.123583
0.159019
0.205336
0.213041
0.349129
0.326231
0.30592
0.287794
0.271532
0.25687
0.243589
0.231509
0.220479
0.210372
0.201079
0.192509
0.184582
0.17723
0.170395
0.164025
0.158076
0.152507
0.147284
0.142376
0.137757
0.133402
0.12929
0.1254
0.121717
0.118224
0.114906
0.111753
0.108751
0.105891
0.103162
0.100557
0.0980669
0.0956848
0.093404
0.0912184
0.0891224
0.0871107
0.0851787
0.0833218
0.0815361
0.0798177
0.0781631
0.076569
0.0750325
0.0735507
0.072121
0.0707409
0.0694082
0.0681207
0.0668765
0.0656736
0.0645104
0.0633852
0.0622964
0.0612428
0.060223
0.0592356
0.0582797
0.0573542
0.056458
0.0555904
0.0547506
0.0539379
0.0531517
0.0523916
0.0516573
0.0509487
0.0502658
0.0496089
0.0489788
0.0483763
0.0478031
0.0472613
0.046754
0.0462855
0.0458614
0.0454894
0.0451796
0.0449455
0.0448051
0.0447827
0.0449107
0.0452337
0.0458113
0.0467239
0.0480753
0.0499943
0.052629
0.0561313
0.0606272
0.066178
0.0727594
0.0803383
0.0891892
0.100759
0.119138
0.152549
0.196745
0.212236
0.34913
0.326232
0.305921
0.287796
0.271535
0.256873
0.243593
0.231514
0.220485
0.210379
0.201087
0.192518
0.184593
0.177243
0.170409
0.164041
0.158092
0.152525
0.147303
0.142398
0.13778
0.133427
0.129316
0.125428
0.121746
0.118255
0.114939
0.111787
0.108787
0.105928
0.103202
0.100598
0.0981093
0.0957287
0.0934494
0.0912652
0.0891706
0.0871604
0.0852297
0.0833742
0.0815898
0.0798727
0.0782194
0.0766266
0.0750913
0.0736108
0.0721823
0.0708035
0.069472
0.0681858
0.0669429
0.0657414
0.0645796
0.0634559
0.0623688
0.061317
0.060299
0.0593138
0.0583602
0.0574373
0.056544
0.0556797
0.0548436
0.0540351
0.0532537
0.052499
0.0517709
0.0510693
0.0503944
0.0497466
0.0491266
0.0485356
0.0479752
0.0474476
0.0469558
0.0465039
0.0460974
0.0457432
0.0454509
0.0452325
0.0451041
0.0450867
0.0452082
0.0455062
0.046032
0.0468554
0.0480712
0.0498025
0.0522014
0.0554369
0.0596682
0.0649982
0.0714277
0.0788882
0.0875126
0.0985157
0.115759
0.147323
0.189531
0.212055
0.34913
0.326233
0.305922
0.287798
0.271537
0.256876
0.243597
0.231519
0.220491
0.210386
0.201096
0.192528
0.184604
0.177255
0.170423
0.164056
0.158109
0.152543
0.147323
0.142419
0.137803
0.133452
0.129342
0.125456
0.121776
0.118286
0.114972
0.111822
0.108824
0.105966
0.103241
0.100639
0.098152
0.0957729
0.0934952
0.0913125
0.0892194
0.0872106
0.0852814
0.0834273
0.0816442
0.0799285
0.0782765
0.076685
0.0751511
0.0736718
0.0722446
0.0708671
0.0695369
0.0682521
0.0670105
0.0658104
0.0646501
0.063528
0.0624426
0.0613925
0.0603765
0.0593934
0.0584422
0.0575218
0.0566315
0.0557704
0.054938
0.0541336
0.0533569
0.0526076
0.0518856
0.0511909
0.0505238
0.0498849
0.0492749
0.0486951
0.0481472
0.0476335
0.0471571
0.0467219
0.0463332
0.0459978
0.0457245
0.0455247
0.0454132
0.0454089
0.0455368
0.0458295
0.0463314
0.0471034
0.0482296
0.0498245
0.0520372
0.0550466
0.0590392
0.0641621
0.0704575
0.0778525
0.0863644
0.0969688
0.113256
0.143152
0.183514
0.212437
0.34913
0.326234
0.305924
0.2878
0.27154
0.256879
0.243601
0.231524
0.220497
0.210393
0.201104
0.192538
0.184615
0.177268
0.170437
0.164071
0.158126
0.152562
0.147344
0.142441
0.137827
0.133477
0.129369
0.125485
0.121806
0.118318
0.115006
0.111857
0.10886
0.106005
0.103281
0.10068
0.0981951
0.0958176
0.0935414
0.0913603
0.0892687
0.0872614
0.0853336
0.083481
0.0816993
0.079985
0.0783343
0.0767442
0.0752116
0.0737337
0.0723078
0.0709317
0.0696029