/*--------------------------------*- C++ -*----------------------------------*\
| =========                 |                                                 |
| \\      /  F ield         | OpenFOAM: The Open Source CFD Toolbox           |
|  \\    /   O peration     | Version:  4.1                                   |
|   \\  /    A nd           | Web:      www.OpenFOAM.org                      |
|    \\/     M anipulation  |                                                 |
\*---------------------------------------------------------------------------*/
FoamFile
{
    version     2.0;
    format      ascii;
    class       volScalarField;
    location    "0.41";
    object      nut;
}
// * * * * * * * * * * * * * * * * * * * * * * * * * * * * * * * * * * * * * //

dimensions      [0 2 -1 0 0 0 0];

internalField   nonuniform List<scalar> 
43750
(
0.00139176
0.00140767
0.0014229
0.00143745
0.0014513
0.00146447
0.00147696
0.00148875
0.00149986
0.00151027
0.00151997
0.00152897
0.00153725
0.0015448
0.00155162
0.0015577
0.00156303
0.00156759
0.00157138
0.00157437
0.00157657
0.00157794
0.00157848
0.00157816
0.00157697
0.00157486
0.00157183
0.00156784
0.00156285
0.00155683
0.00154973
0.0015415
0.00153209
0.00152145
0.0015095
0.00149619
0.00148143
0.00146514
0.00144726
0.00142772
0.00140648
0.00138351
0.00135887
0.0013327
0.0013053
0.0012772
0.00124928
0.00122287
0.00119994
0.00118317
0.0011759
0.00118172
0.00120352
0.00124209
0.00129491
0.00136468
0.00144158
0.00150473
0.00154891
0.00157356
0.00158089
0.00157416
0.00155637
0.00152958
0.00149614
0.00145817
0.00141721
0.00137474
0.00133183
0.00128893
0.00124626
0.00120604
0.00115456
0.00108498
0.00100605
0.000938474
0.000896101
0.000873596
0.000868798
0.000876618
0.000892031
0.000911216
0.000931594
0.000951606
0.000970465
0.000987922
0.00100408
0.0010193
0.00103414
0.00104942
0.00106315
0.00107508
0.00108491
0.00109186
0.00109447
0.00108983
0.00107148
0.00102329
0.000901531
0.00050633
0.000846044
0.000841759
0.000839028
0.000837726
0.000837749
0.000838977
0.000841286
0.000844551
0.000848652
0.000853466
0.000858876
0.000864768
0.000871038
0.000877597
0.000884372
0.00089131
0.000898383
0.000905586
0.000912939
0.00092049
0.000928313
0.000936507
0.000945193
0.000954518
0.000964647
0.00097577
0.000988101
0.00100188
0.00101736
0.00103486
0.00105469
0.00107725
0.00110296
0.00113233
0.00116594
0.00120444
0.00124861
0.00129934
0.00135766
0.00142474
0.0015019
0.00159058
0.00169235
0.00180885
0.00194173
0.00209258
0.00226288
0.0024539
0.00266673
0.00290218
0.00316075
0.00344239
0.0037461
0.00406924
0.00440671
0.00475083
0.0050913
0.00541537
0.00571167
0.00597346
0.00619981
0.00639351
0.00655666
0.00669411
0.00679154
0.00682733
0.00682133
0.00679647
0.00677766
0.00677633
0.00676068
0.00663906
0.00634877
0.00590917
0.00533299
0.00465805
0.00400319
0.00349329
0.00314342
0.00292131
0.00279342
0.00273823
0.00274304
0.00279856
0.00289525
0.00302216
0.00316531
0.00330619
0.00342259
0.00348526
0.00353384
0.00356792
0.00358016
0.00356022
0.00349561
0.00336885
0.00314702
0.00276357
0.00209519
0.000716236
0.000843657
0.000835915
0.000828826
0.000822321
0.000816347
0.000810863
0.000805839
0.00080125
0.00079708
0.000793319
0.000789959
0.000786997
0.000784432
0.000782263
0.000780493
0.000779123
0.000778154
0.000777587
0.000777421
0.000777652
0.000778276
0.000779285
0.000780669
0.000782417
0.000784514
0.000786947
0.000789704
0.000792775
0.000796158
0.00079986
0.000803907
0.000808345
0.000813258
0.000818767
0.000825056
0.000832379
0.000841082
0.000851625
0.000864603
0.000880772
0.000901074
0.000926665
0.000958935
0.000999535
0.0010504
0.00111375
0.00119217
0.00128857
0.0014063
0.00154917
0.00172158
0.00192848
0.00217541
0.00246826
0.0028127
0.00321322
0.0036716
0.0041847
0.00474265
0.0053281
0.00591751
0.0064849
0.00700725
0.00746899
0.00786359
0.00819135
0.00845771
0.00867216
0.00886352
0.00903819
0.00917048
0.00923469
0.00917247
0.00891498
0.00843718
0.00779974
0.00713097
0.0065581
0.00614187
0.00587182
0.00570048
0.00557652
0.005462
0.00533738
0.00519905
0.00505409
0.00491417
0.00479031
0.00468875
0.00461159
0.00453993
0.00446003
0.00435822
0.00421816
0.00402081
0.00374737
0.00337906
0.00288445
0.00218686
0.000841687
0.000843648
0.000835876
0.000828726
0.000822117
0.000815983
0.000810268
0.000804927
0.00079992
0.000795216
0.000790787
0.000786611
0.000782669
0.000778946
0.000775429
0.000772111
0.000768984
0.000766044
0.00076329
0.000760722
0.000758341
0.000756153
0.000754163
0.000752378
0.000750809
0.000749465
0.000748359
0.000747503
0.000746911
0.000746595
0.000746569
0.000746844
0.00074743
0.000748336
0.000749566
0.000751122
0.000753005
0.000755215
0.000757761
0.000760663
0.000763973
0.000767799
0.000772334
0.000777912
0.000785062
0.000794587
0.000807634
0.000825775
0.000851051
0.000886007
0.000933713
0.000997781
0.00108243
0.0011926
0.00133412
0.00151388
0.00173992
0.00202135
0.00236778
0.00278824
0.00328939
0.00387296
0.0045329
0.00525291
0.00600586
0.0067564
0.00746743
0.00810893
0.0086654
0.00914007
0.00955412
0.00993078
0.0102782
0.0105801
0.0106912
0.01055
0.0101776
0.00967259
0.00916953
0.00876444
0.0084733
0.0082522
0.0080411
0.00779607
0.00750105
0.00716368
0.00680431
0.0064459
0.00610801
0.00580566
0.00554761
0.0053275
0.00511817
0.00490747
0.00468106
0.00441822
0.00409103
0.0036636
0.00308611
0.00229019
0.000936018
0.000843648
0.000835876
0.000828725
0.000822114
0.000815976
0.000810255
0.000804904
0.000799882
0.000795157
0.000790698
0.000786481
0.000782482
0.000778685
0.000775072
0.00077163
0.000768346
0.000765211
0.000762215
0.000759353
0.000756617
0.000754005
0.000751512
0.000749138
0.000746882
0.000744745
0.00074273
0.000740841
0.000739084
0.000737466
0.000735998
0.000734689
0.00073355
0.000732596
0.00073184
0.000731297
0.000730981
0.000730904
0.000731074
0.000731492
0.000732148
0.000733022
0.000734074
0.00073525
0.000736485
0.000737728
0.000738982
0.0007404
0.00074241
0.000745899
0.000752389
0.000764158
0.000784255
0.000816414
0.000864957
0.000934789
0.00103154
0.00116182
0.00133352
0.00155603
0.00184027
0.00219823
0.00264197
0.00318158
0.00382199
0.00455895
0.00537521
0.00623929
0.00710953
0.00794477
0.00871848
0.00942593
0.0100758
0.0106673
0.0111548
0.0114563
0.0115073
0.0113157
0.0109997
0.0106906
0.0104469
0.01025
0.0100439
0.0097799
0.00943911
0.00903018
0.00857552
0.00809755
0.00761193
0.00712984
0.00666487
0.00625034
0.00586228
0.00549369
0.0051401
0.00479267
0.00443076
0.0040071
0.00341948
0.00250215
0.00100921
0.000843648
0.000835876
0.000828725
0.000822114
0.000815976
0.000810255
0.000804903
0.000799882
0.000795156
0.000790696
0.000786478
0.000782477
0.000778677
0.000775059
0.00077161
0.000768316
0.000765166
0.000762151
0.000759261
0.000756489
0.000753828
0.000751274
0.000748821
0.000746466
0.000744207
0.00074204
0.000739964
0.000737981
0.000736089
0.000734293
0.000732596
0.000731001
0.000729515
0.000728145
0.0007269
0.00072579
0.000724827
0.000724022
0.000723388
0.000722933
0.000722662
0.000722574
0.00072265
0.000722851
0.000723106
0.000723299
0.000723258
0.000722762
0.000721585
0.000719603
0.000717015
0.00071465
0.000714275
0.000718762
0.00073199
0.000758572
0.00080361
0.000872672
0.00097201
0.00110895
0.0012923
0.00153268
0.00184257
0.00223588
0.00272655
0.00332602
0.00403915
0.00485982
0.00576809
0.00673221
0.00771594
0.00868641
0.00961387
0.0104579
0.0111543
0.0116285
0.0118461
0.0118553
0.0117619
0.0116586
0.011575
0.0114671
0.0112857
0.0110057
0.0106302
0.0101799
0.00967816
0.00913771
0.00855834
0.00793475
0.00732433
0.00673558
0.00617414
0.00564841
0.00516717
0.00473199
0.00431386
0.00378785
0.00282436
0.00106757
0.000843649
0.000835877
0.000828725
0.000822114
0.000815976
0.000810255
0.000804903
0.000799882
0.000795156
0.000790696
0.000786477
0.000782477
0.000778676
0.000775058
0.000771608
0.000768313
0.000765161
0.000762143
0.00075925
0.000756474
0.000753808
0.000751247
0.000748784
0.000746416
0.000744137
0.000741945
0.000739837
0.000737811
0.000735865
0.000733999
0.000732213
0.000730506
0.000728882
0.000727343
0.000725892
0.000724534
0.000723275
0.000722122
0.000721083
0.000720169
0.000719388
0.000718751
0.000718265
0.000717931
0.000717739
0.00071766
0.000717632
0.000717543
0.000717209
0.00071635
0.000714597
0.000711544
0.000706924
0.00070094
0.000694707
0.000690649
0.000692579
0.000705408
0.000734669
0.000786226
0.000866344
0.000982053
0.00114165
0.00135517
0.00163469
0.00199427
0.00244925
0.00301443
0.00370126
0.00451426
0.00544767
0.00648288
0.00758574
0.00870184
0.00975235
0.010643
0.0112982
0.0117053
0.0119225
0.0120382
0.0121151
0.0121583
0.0121312
0.0119974
0.0117388
0.0113711
0.0109204
0.0104035
0.00982144
0.00915247
0.00840515
0.00764252
0.00689651
0.00619321
0.00555874
0.0050164
0.00456825
0.00411612
0.00321599
0.00111605
0.000843649
0.000835877
0.000828726
0.000822115
0.000815977
0.000810256
0.000804905
0.000799884
0.000795158
0.000790699
0.00078648
0.000782481
0.00077868
0.000775063
0.000771613
0.000768319
0.000765168
0.00076215
0.000759258
0.000756482
0.000753815
0.000751253
0.000748789
0.000746418
0.000744136
0.000741939
0.000739825
0.00073779
0.000735833
0.000733952
0.000732144
0.00073041
0.000728749
0.000727161
0.000725647
0.000724209
0.000722849
0.00072157
0.000720375
0.00071927
0.000718262
0.000717357
0.000716565
0.000715895
0.000715354
0.000714947
0.000714671
0.000714505
0.0007144
0.000714258
0.000713906
0.000713065
0.000711327
0.00070818
0.000703123
0.000695961
0.000687275
0.000678969
0.000674581
0.000679132
0.000698568
0.000739231
0.000807702
0.000911069
0.00105742
0.00125636
0.00151948
0.00186056
0.00229556
0.00284185
0.00351658
0.0043332
0.00529498
0.00638445
0.00755065
0.00870425
0.00973665
0.0105648
0.0111697
0.0115929
0.0118961
0.0121173
0.0122548
0.0122857
0.0121894
0.0119647
0.011627
0.0111927
0.0106709
0.0100527
0.00927607
0.00841176
0.007535
0.00669412
0.00593234
0.00528967
0.00479153
0.00438175
0.00360821
0.00115848
0.000843649
0.000835878
0.000828728
0.000822117
0.000815979
0.000810258
0.000804908
0.000799887
0.000795162
0.000790703
0.000786485
0.000782486
0.000778686
0.000775069
0.000771619
0.000768325
0.000765174
0.000762157
0.000759265
0.000756489
0.000753823
0.00075126
0.000748796
0.000746424
0.000744141
0.000741943
0.000739827
0.000737789
0.000735828
0.000733941
0.000732127
0.000730385
0.000728713
0.000727111
0.000725578
0.000724114
0.00072272
0.000721397
0.000720144
0.000718965
0.000717863
0.000716839
0.0007159
0.000715051
0.0007143
0.000713655
0.000713124
0.000712713
0.000712421
0.000712235
0.000712114
0.000711972
0.000711647
0.000710869
0.00070923
0.000706183
0.00070113
0.000693675
0.000684083
0.00067388
0.000666326
0.000666428
0.000680421
0.000715102
0.000777484
0.000874926
0.00101557
0.0012089
0.00146626
0.0018015
0.00223146
0.00277584
0.00345523
0.00428512
0.00526423
0.00635942
0.00749808
0.0085832
0.00953028
0.0103002
0.0109004
0.011358
0.0116912
0.0118998
0.0119742
0.0119088
0.0117083
0.0113824
0.0109404
0.0103829
0.00968615
0.00884963
0.0079478
0.00705054
0.00622306
0.00552265
0.00498904
0.00459227
0.00392297
0.00119808
0.00084365
0.000835879
0.000828729
0.000822119
0.000815981
0.000810261
0.000804911
0.000799891
0.000795166
0.000790707
0.00078649
0.00078249
0.000778691
0.000775074
0.000771625
0.000768331
0.000765181
0.000762165
0.000759274
0.000756499
0.000753834
0.000751272
0.000748808
0.000746436
0.000744153
0.000741954
0.000739837
0.000737798
0.000735835
0.000733946
0.00073213
0.000730383
0.000728706
0.000727097
0.000725556
0.000724081
0.000722673
0.000721331
0.000720056
0.000718848
0.000717708
0.000716636
0.000715634
0.000714706
0.000713853
0.000713082
0.000712398
0.000711807
0.000711319
0.000710938
0.000710666
0.000710491
0.000710376
0.000710238
0.000709921
0.000709162
0.000707551
0.000704533
0.000699479
0.000691921
0.000681996
0.000671063
0.00066225
0.000660571
0.000672469
0.000705103
0.000765892
0.000862545
0.00100346
0.00119827
0.00145855
0.00179855
0.0022357
0.00278964
0.00347801
0.00430742
0.0052615
0.00629356
0.00733325
0.00830793
0.00916499
0.00987941
0.0104448
0.0108599
0.0111224
0.01123
0.011184
0.0109897
0.0106543
0.0101842
0.00958768
0.0088401
0.0079983
0.00713554
0.00632729
0.00564006
0.00512067
0.00475084
0.00412971
0.00123691
0.00084365
0.00083588
0.00082873
0.000822121
0.000815984
0.000810265
0.000804915
0.000799895
0.000795171
0.000790712
0.000786495
0.000782496
0.000778698
0.000775082
0.000771634
0.000768341
0.000765193
0.000762177
0.000759286
0.000756512
0.000753848
0.000751286
0.000748822
0.00074645
0.000744166
0.000741966
0.000739848
0.000737808
0.000735844
0.000733952
0.000732132
0.000730382
0.000728701
0.000727087
0.00072554
0.000724059
0.000722643
0.000721291
0.000720005
0.000718782
0.000717625
0.000716531
0.000715503
0.00071454
0.000713644
0.000712816
0.00071206
0.000711377
0.000710775
0.000710258
0.000709833
0.000709506
0.000709275
0.000709128
0.000709026
0.000708884
0.000708543
0.000707733
0.00070604
0.000702906
0.000697705
0.000689978
0.000679883
0.000668812
0.000659955
0.000658441
0.000670904
0.000704775
0.000767802
0.000868051
0.00101429
0.00121651
0.00148653
0.00183829
0.00228729
0.00284772
0.00352692
0.00431803
0.00519497
0.00611378
0.00702111
0.00786558
0.00860582
0.00921262
0.00966715
0.0099587
0.0100832
0.0100418
0.00983975
0.00948493
0.00899058
0.00838667
0.00766987
0.00691555
0.00620158
0.00559527
0.00514509
0.004841
0.00429305
0.00126696
0.000843651
0.00083588
0.000828731
0.000822121
0.000815984
0.000810265
0.000804916
0.000799897
0.000795174
0.000790717
0.000786501
0.000782504
0.000778706
0.000775091
0.000771643
0.000768351
0.000765203
0.000762188
0.000759297
0.000756523
0.000753859
0.000751297
0.000748833
0.000746461
0.000744177
0.000741978
0.000739859
0.000737818
0.000735852
0.000733959
0.000732137
0.000730384
0.000728699
0.00072708
0.000725528
0.000724041
0.000722619
0.00072126
0.000719965
0.000718732
0.000717563
0.000716457
0.000715414
0.000714433
0.000713516
0.000712662
0.000711872
0.000711148
0.000710492
0.000709906
0.000709395
0.000708963
0.000708616
0.000708355
0.000708178
0.000708067
0.000707977
0.000707814
0.000707405
0.000706467
0.000704573
0.000701164
0.00069564
0.000687619
0.000677403
0.000666597
0.000658633
0.000658871
0.000674145
0.000712078
0.000780653
0.000888236
0.00104388
0.0012576
0.00154036
0.00190328
0.00235573
0.00290224
0.00353894
0.00425092
0.0050118
0.00578573
0.00653155
0.00720782
0.00777762
0.00821206
0.00849173
0.00860664
0.00855497
0.00834228
0.00798408
0.0075374
0.00699108
0.00640498
0.00584738
0.00537805
0.00504327
0.00484007
0.00439267
0.00128721
0.000843651
0.000835882
0.000828733
0.000822124
0.000815988
0.00081027
0.000804922
0.000799903
0.000795181
0.000790725
0.000786509
0.000782513
0.000778716
0.000775102
0.000771656
0.000768364
0.000765217
0.000762203
0.000759313
0.00075654
0.000753876
0.000751315
0.000748851
0.000746479
0.000744195
0.000741994
0.000739874
0.000737832
0.000735865
0.00073397
0.000732146
0.000730391
0.000728703
0.000727081
0.000725524
0.000724031
0.000722602
0.000721236
0.000719933
0.000718692
0.000717513
0.000716396
0.000715341
0.000714348
0.000713416
0.000712546
0.000711739
0.000710993
0.00071031
0.000709692
0.000709139
0.000708653
0.000708239
0.000707899
0.000707635
0.000707448
0.00070733
0.000707254
0.000707165
0.000706952
0.000706424
0.000705272
0.000703051
0.000699208
0.000693199
0.000684789
0.000674544
0.000664432
0.000658274
0.000661733
0.000681812
0.000726227
0.000803044
0.000920661
0.00108782
0.00131328
0.00160485
0.00196789
0.00240365
0.00290776
0.00346939
0.00407076
0.00468725
0.00528846
0.00584066
0.00631041
0.00666858
0.00689351
0.00697292
0.00690491
0.00669923
0.00638405
0.00605062
0.00567156
0.00530646
0.00500653
0.00481493
0.00473592
0.00441166
0.00129608
0.000843652
0.000835883
0.000828734
0.000822126
0.000815991
0.000810274
0.000804926
0.000799909
0.000795186
0.000790731
0.000786516
0.00078252
0.000778725
0.000775112
0.000771667
0.000768377
0.00076523
0.000762217
0.000759327
0.000756554
0.000753891
0.000751331
0.000748867
0.000746496
0.000744212
0.000742012
0.000739892
0.00073785
0.000735881
0.000733985
0.000732159
0.0007304
0.000728709
0.000727083
0.000725522
0.000724024
0.000722589
0.000721217
0.000719907
0.000718658
0.00071747
0.000716344
0.000715279
0.000714275
0.000713332
0.000712449
0.000711628
0.000710868
0.000710168
0.000709531
0.000708956
0.000708443
0.000707995
0.000707612
0.000707297
0.000707051
0.000706874
0.000706761
0.000706697
0.000706646
0.000706535
0.000706233
0.000705517
0.00070405
0.000701371
0.000696945
0.000690332
0.000681528
0.00067148
0.000662646
0.000659306
0.000667415
0.000694043
0.000746801
0.000833478
0.000961801
0.00113893
0.00137048
0.00165927
0.00200421
0.00239977
0.0028359
0.00329815
0.00376776
0.00422212
0.00463602
0.00498401
0.00524352
0.00539804
0.00543994
0.0053728
0.00521373
0.00500753
0.00482719
0.00465273
0.00452325
0.00447824
0.00452994
0.00434162
0.00129194
0.000843652
0.000835884
0.000828736
0.000822129
0.000815994
0.000810277
0.000804931
0.000799914
0.000795193
0.000790738
0.000786525
0.00078253
0.000778735
0.000775123
0.000771679
0.00076839
0.000765245
0.000762233
0.000759345
0.000756573
0.00075391
0.00075135
0.000748887
0.000746516
0.000744232
0.000742031
0.000739911
0.000737867
0.000735898
0.000734001
0.000732173
0.000730413
0.000728719
0.00072709
0.000725525
0.000724022
0.000722582
0.000721204
0.000719887
0.000718631
0.000717436
0.000716301
0.000715226
0.000714212
0.000713259
0.000712365
0.000711532
0.00071076
0.000710048
0.000709396
0.000708806
0.000708276
0.000707808
0.000707402
0.000707059
0.00070678
0.000706564
0.000706412
0.00070632
0.000706275
0.000706255
0.000706207
0.000706039
0.000705588
0.000704598
0.000702702
0.00069943
0.000694303
0.000687047
0.00067799
0.000668571
0.000661802
0.000662403
0.000676489
0.000710959
0.000772915
0.000869165
0.00100565
0.00118657
0.00141336
0.00168388
0.00199208
0.00232823
0.00267948
0.0030304
0.00336369
0.00366131
0.00390622
0.00408461
0.00418853
0.00421812
0.00418333
0.0041049
0.00401758
0.00397686
0.00398597
0.00406579
0.00423675
0.00418474
0.00127379
0.000843653
0.000835885
0.000828738
0.000822131
0.000815998
0.000810282
0.000804936
0.00079992
0.0007952
0.000790746
0.000786534
0.00078254
0.000778746
0.000775135
0.000771692
0.000768404
0.00076526
0.000762249
0.000759362
0.000756591
0.000753929
0.000751369
0.000748906
0.000746536
0.000744252
0.000742052
0.000739932
0.000737888
0.000735917
0.000734018
0.000732188
0.000730426
0.000728729
0.000727097
0.000725529
0.000724023
0.000722578
0.000721195
0.000719873
0.00071861
0.000717408
0.000716265
0.000715183
0.000714159
0.000713196
0.000712293
0.000711449
0.000710666
0.000709942
0.000709279
0.000708676
0.000708134
0.000707652
0.000707231
0.000706871
0.000706572
0.000706334
0.000706157
0.00070604
0.000705978
0.000705963
0.000705976
0.000705979
0.000705902
0.000705623
0.000704947
0.000703582
0.000701134
0.000697154
0.000691271
0.000683471
0.000674511
0.000666395
0.000662667
0.000668337
0.000689396
0.000732141
0.00080251
0.000905454
0.00104422
0.00121959
0.00142922
0.00166745
0.00192552
0.00219231
0.00245517
0.00270103
0.00291758
0.00309476
0.0032263
0.00331133
0.00335542
0.00337085
0.00337613
0.0033949
0.00345909
0.00361058
0.00387057
0.00394255
0.0012404
0.000843653
0.000835886
0.00082874
0.000822133
0.000816001
0.000810285
0.00080494
0.000799925
0.000795206
0.000790753
0.000786542
0.000782549
0.000778756
0.000775146
0.000771704
0.000768418
0.000765274
0.000762264
0.000759378
0.000756608
0.000753947
0.000751388
0.000748927
0.000746557
0.000744274
0.000742074
0.000739953
0.000737909
0.000735938
0.000734038
0.000732207
0.000730443
0.000728745
0.00072711
0.000725538
0.000724029
0.00072258
0.000721192
0.000719864
0.000718595
0.000717386
0.000716237
0.000715146
0.000714115
0.000713143
0.00071223
0.000711377
0.000710584
0.00070985
0.000709177
0.000708564
0.00070801
0.000707517
0.000707085
0.000706713
0.000706401
0.000706149
0.000705957
0.000705824
0.000705748
0.000705725
0.000705748
0.000705801
0.000705853
0.00070585
0.000705697
0.000705241
0.000704249
0.000702397
0.000699291
0.000694547
0.000687982
0.000679935
0.000671678
0.000665769
0.000666141
0.000677788
0.000706127
0.00075627
0.000832356
0.000936961
0.00107056
0.00123111
0.00141386
0.00161165
0.00181552
0.00201572
0.00220281
0.00236892
0.00250887
0.00262119
0.00270888
0.00277965
0.00284595
0.00292531
0.00304252
0.00323846
0.00355088
0.00370635
0.00121275
0.000843654
0.000835887
0.000828741
0.000822136
0.000816004
0.000810289
0.000804945
0.000799931
0.000795213
0.000790761
0.000786551
0.000782559
0.000778768
0.000775159
0.000771719
0.000768433
0.000765291
0.000762282
0.000759397
0.000756628
0.000753968
0.00075141
0.000748949
0.00074658
0.000744297
0.000742097
0.000739977
0.000737932
0.000735961
0.00073406
0.000732228
0.000730462
0.000728762
0.000727125
0.00072555
0.000724037
0.000722585
0.000721192
0.000719859
0.000718585
0.00071737
0.000716214
0.000715117
0.000714078
0.000713099
0.000712178
0.000711316
0.000710514
0.000709771
0.000709088
0.000708465
0.000707903
0.0007074
0.000706958
0.000706577
0.000706256
0.000705995
0.000705793
0.000705651
0.000705566
0.000705538
0.000705561
0.000705629
0.000705729
0.000705834
0.000705902
0.000705855
0.00070557
0.00070486
0.00070346
0.000701032
0.00069722
0.000691776
0.000684797
0.000677062
0.000670371
0.000667719
0.000673133
0.00069115
0.000726107
0.000781489
0.000859411
0.000960255
0.00108243
0.0012223
0.00137446
0.00153227
0.00168875
0.00183754
0.00197398
0.00209599
0.00220475
0.00230524
0.00240666
0.00252356
0.00267893
0.00291335
0.00326969
0.00348796
0.00119094
0.000843654
0.000835889
0.000828743
0.000822138
0.000816007
0.000810293
0.00080495
0.000799937
0.00079522
0.000790769
0.00078656
0.00078257
0.00077878
0.000775173
0.000771734
0.000768449
0.000765309
0.000762301
0.000759417
0.000756649
0.00075399
0.000751433
0.000748972
0.000746603
0.00074432
0.000742121
0.00074
0.000737956
0.000735984
0.000734083
0.00073225
0.000730484
0.000728781
0.000727142
0.000725565
0.000724048
0.000722592
0.000721196
0.000719859
0.00071858
0.00071736
0.000716198
0.000715094
0.000714049
0.000713062
0.000712134
0.000711264
0.000710454
0.000709703
0.000709012
0.00070838
0.000707809
0.000707299
0.000706849
0.00070646
0.000706132
0.000705864
0.000705657
0.00070551
0.000705421
0.00070539
0.000705415
0.000705492
0.000705614
0.00070577
0.000705938
0.000706081
0.000706136
0.000706004
0.00070553
0.000704497
0.000702624
0.000699594
0.000695151
0.000689266
0.000682403
0.000675818
0.000671754
0.000673391
0.000684448
0.000708573
0.000748728
0.000806736
0.00088302
0.000976488
0.00108458
0.0012035
0.00132869
0.00145555
0.00158015
0.00170019
0.00181568
0.00192972
0.00204942
0.00218739
0.00236552
0.00262433
0.00301029
0.0032748
0.00116843
0.000843655
0.00083589
0.000828746
0.000822142
0.000816012
0.000810299
0.000804957
0.000799945
0.000795229
0.000790779
0.000786571
0.000782582
0.000778793
0.000775186
0.000771748
0.000768465
0.000765326
0.000762319
0.000759437
0.00075667
0.000754012
0.000751456
0.000748996
0.000746628
0.000744346
0.000742147
0.000740027
0.000737982
0.000736011
0.000734109
0.000732275
0.000730508
0.000728804
0.000727163
0.000725583
0.000724064
0.000722605
0.000721205
0.000719863
0.00071858
0.000717355
0.000716187
0.000715078
0.000714026
0.000713033
0.000712098
0.000711221
0.000710403
0.000709645
0.000708946
0.000708308
0.000707729
0.000707212
0.000706756
0.000706361
0.000706027
0.000705755
0.000705545
0.000705395
0.000705307
0.000705277
0.000705307
0.000705392
0.000705532
0.000705718
0.000705942
0.000706186
0.000706417
0.000706584
0.000706605
0.000706354
0.000705653
0.000704266
0.000701928
0.000698397
0.000693591
0.000687786
0.000681865
0.000677512
0.000677216
0.000684
0.000700922
0.000730541
0.000774514
0.00083339
0.000906576
0.000992433
0.00108851
0.00119195
0.0013
0.00141067
0.00152352
0.00164051
0.00176721
0.00191476
0.00210411
0.00237563
0.00277853
0.00307436
0.00114626
0.000843656
0.000835891
0.000828748
0.000822145
0.000816015
0.000810303
0.000804962
0.000799951
0.000795236
0.000790788
0.000786581
0.000782593
0.000778806
0.000775201
0.000771765
0.000768483
0.000765345
0.00076234
0.000759459
0.000756693
0.000754036
0.00075148
0.000749022
0.000746654
0.000744373
0.000742174
0.000740055
0.000738011
0.000736039
0.000734137
0.000732302
0.000730532
0.000728827
0.000727184
0.000725603
0.000724082
0.00072262
0.000721217
0.000719872
0.000718585
0.000717355
0.000716182
0.000715067
0.00071401
0.000713011
0.000712069
0.000711186
0.000710362
0.000709597
0.000708891
0.000708246
0.000707661
0.000707138
0.000706676
0.000706277
0.000705939
0.000705665
0.000705453
0.000705304
0.000705217
0.000705193
0.00070523
0.000705328
0.000705485
0.000705698
0.000705963
0.000706271
0.000706607
0.000706947
0.000707247
0.00070744
0.000707424
0.000707053
0.000706135
0.000704448
0.000701784
0.000698047
0.000693411
0.000688517
0.000684651
0.000683781
0.000688376
0.000701022
0.000723977
0.000758816
0.000806264
0.000866184
0.000937698
0.00101941
0.00110976
0.00120745
0.00131213
0.00142523
0.00155132
0.00170042
0.00189257
0.00216789
0.00257763
0.00289211
0.00112554
0.000843656
0.000835893
0.00082875
0.000822147
0.000816018
0.000810307
0.000804967
0.000799957
0.000795244
0.000790797
0.000786592
0.000782606
0.000778819
0.000775216
0.00077178
0.0007685
0.000765363
0.000762359
0.000759479
0.000756715
0.000754059
0.000751505
0.000749048
0.000746681
0.000744401
0.000742203
0.000740084
0.00073804
0.000736068
0.000734166
0.00073233
0.00073056
0.000728854
0.000727209
0.000725626
0.000724103
0.000722638
0.000721232
0.000719884
0.000718593
0.000717359
0.000716182
0.000715063
0.000714
0.000712995
0.000712048
0.000711159
0.000710328
0.000709557
0.000708846
0.000708194
0.000707604
0.000707076
0.000706609
0.000706206
0.000705866
0.00070559
0.000705378
0.000705232
0.00070515
0.000705133
0.00070518
0.000705293
0.00070547
0.000705711
0.000706013
0.000706374
0.000706787
0.000707242
0.000707718
0.000708183
0.000708582
0.000708834
0.000708822
0.000708391
0.000707362
0.000705565
0.000702915
0.000699536
0.000695922
0.000693092
0.000692645
0.00069664
0.000707311
0.000726702
0.000756369
0.00079722
0.00084951
0.000912966
0.000987005
0.00107107
0.00116513
0.00127052
0.00139123
0.00153648
0.00172557
0.00199832
0.00240732
0.00273035
0.00110698
0.000843657
0.000835894
0.000828751
0.00082215
0.000816022
0.000810312
0.000804973
0.000799964
0.000795251
0.000790806
0.000786602
0.000782617
0.000778832
0.00077523
0.000771795
0.000768516
0.000765381
0.000762378
0.000759499
0.000756737
0.000754083
0.000751531
0.000749075
0.000746709
0.00074443
0.000742233
0.000740114
0.000738069
0.000736097
0.000734194
0.000732359
0.000730588
0.000728881
0.000727235
0.000725651
0.000724126
0.000722659
0.00072125
0.000719899
0.000718605
0.000717367
0.000716186
0.000715062
0.000713995
0.000712985
0.000712033
0.000711139
0.000710303
0.000709526
0.000708809
0.000708153
0.000707558
0.000707025
0.000706555
0.000706148
0.000705806
0.00070553
0.00070532
0.000705177
0.000705101
0.000705093
0.000705154
0.000705284
0.000705484
0.000705754
0.000706094
0.000706504
0.000706984
0.000707529
0.000708134
0.000708784
0.000709457
0.000710111
0.000710684
0.000711085
0.000711194
0.00071087
0.000709983
0.000708471
0.000706443
0.000704314
0.000702935
0.000703658
0.000708266
0.000718753
0.000737033
0.000764677
0.000802765
0.000851875
0.0009122
0.000983797
0.001067
0.00116316
0.00127599
0.00141414
0.00159638
0.00186221
0.00226514
0.00258902
0.00109093
0.000843658
0.000835895
0.000828754
0.000822153
0.000816026
0.000810317
0.000804979
0.000799971
0.00079526
0.000790815
0.000786612
0.000782629
0.000778845
0.000775245
0.000771812
0.000768535
0.0007654
0.000762399
0.000759522
0.00075676
0.000754107
0.000751557
0.000749102
0.000746738
0.00074446
0.000742264
0.000740145
0.000738102
0.000736129
0.000734226
0.00073239
0.000730619
0.000728911
0.000727265
0.000725679
0.000724152
0.000722683
0.000721272
0.000719918
0.000718621
0.00071738
0.000716195
0.000715067
0.000713996
0.000712981
0.000712024
0.000711125
0.000710284
0.000709502
0.000708781
0.00070812
0.00070752
0.000706984
0.00070651
0.000706102
0.000705759
0.000705483
0.000705276
0.000705137
0.000705069
0.000705072
0.000705148
0.000705297
0.000705522
0.000705823
0.000706203
0.000706663
0.000707205
0.000707832
0.000708543
0.000709337
0.000710209
0.000711144
0.000712116
0.000713081
0.000713972
0.000714701
0.000715165
0.00071527
0.000714985
0.000714428
0.000713978
0.000714394
0.000716885
0.000723065
0.000734791
0.000753919
0.000782063
0.000820454
0.000869918
0.000931015
0.00100438
0.00109138
0.00119552
0.00132497
0.00149817
0.00175436
0.00214763
0.00246675
0.00107748
0.000843658
0.000835897
0.000828756
0.000822156
0.00081603
0.000810322
0.000804985
0.000799978
0.000795268
0.000790825
0.000786624
0.000782642
0.000778859
0.00077526
0.000771829
0.000768553
0.000765421
0.000762421
0.000759546
0.000756786
0.000754135
0.000751585
0.000749131
0.000746768
0.00074449
0.000742294
0.000740176
0.000738133
0.000736161
0.000734259
0.000732423
0.000730651
0.000728942
0.000727295
0.000725707
0.000724179
0.000722709
0.000721296
0.00071994
0.00071864
0.000717396
0.000716208
0.000715077
0.000714001
0.000712983
0.000712021
0.000711118
0.000710272
0.000709486
0.00070876
0.000708095
0.000707492
0.000706952
0.000706476
0.000706066
0.000705723
0.000705449
0.000705244
0.000705111
0.000705051
0.000705066
0.000705157
0.000705327
0.000705578
0.000705913
0.000706334
0.000706845
0.00070745
0.000708154
0.000708962
0.00070988
0.000710913
0.000712064
0.000713329
0.000714697
0.000716141
0.000717621
0.000719077
0.00072044
0.000721656
0.000722727
0.000723794
0.000725232
0.000727769
0.000732549
0.000741115
0.000755276
0.00077689
0.000807637
0.000848865
0.00090158
0.000966668
0.00104549
0.00114125
0.00126165
0.00142479
0.00166979
0.00205114
0.00236157
0.00106655
0.000843659
0.000835898
0.000828759
0.00082216
0.000816035
0.000810328
0.000804991
0.000799986
0.000795277
0.000790835
0.000786635
0.000782654
0.000778873
0.000775275
0.000771846
0.000768572
0.00076544
0.000762443
0.000759568
0.00075681
0.00075416