/*--------------------------------*- C++ -*----------------------------------*\
| =========                 |                                                 |
| \\      /  F ield         | OpenFOAM: The Open Source CFD Toolbox           |
|  \\    /   O peration     | Version:  4.1                                   |
|   \\  /    A nd           | Web:      www.OpenFOAM.org                      |
|    \\/     M anipulation  |                                                 |
\*---------------------------------------------------------------------------*/
FoamFile
{
    version     2.0;
    format      ascii;
    class       volScalarField;
    location    "0.41";
    object      p;
}
// * * * * * * * * * * * * * * * * * * * * * * * * * * * * * * * * * * * * * //

dimensions      [0 2 -2 0 0 0 0];

internalField   nonuniform List<scalar> 
43750
(
173.215
173.12
173.076
173.104
173.167
173.246
173.342
173.461
173.603
173.766
173.95
174.155
174.38
174.626
174.892
175.18
175.487
175.816
176.165
176.536
176.928
177.341
177.776
178.233
178.713
179.214
179.738
180.285
180.855
181.448
182.065
182.705
183.368
184.053
184.761
185.49
186.238
187.004
187.785
188.578
189.378
190.181
190.982
191.774
192.552
193.311
194.045
194.751
195.427
196.073
196.692
197.288
197.863
198.423
198.97
199.502
200.018
200.513
200.982
201.419
201.822
202.19
202.523
202.821
203.085
203.316
203.514
203.682
203.826
203.951
204.058
204.146
204.204
204.198
204.099
203.907
203.648
203.334
202.972
202.565
202.119
201.648
201.171
200.719
200.328
200.033
199.872
199.883
200.11
200.594
201.401
202.519
203.916
205.539
207.305
209.066
210.541
211.39
211.543
211.285
173.053
173.02
173.004
173.032
173.093
173.174
173.275
173.396
173.54
173.704
173.889
174.094
174.32
174.565
174.831
175.118
175.425
175.752
176.1
176.469
176.859
177.27
177.702
178.156
178.632
179.129
179.649
180.191
180.757
181.344
181.955
182.589
183.246
183.925
184.627
185.35
186.093
186.856
187.635
188.429
189.233
190.044
190.856
191.664
192.463
193.246
194.008
194.744
195.451
196.13
196.779
197.402
198.002
198.58
199.139
199.678
200.194
200.682
201.14
201.566
201.959
202.319
202.646
202.94
203.198
203.421
203.607
203.759
203.881
203.988
204.096
204.204
204.295
204.339
204.315
204.196
203.96
203.616
203.18
202.672
202.113
201.531
200.956
200.417
199.951
199.596
199.397
199.403
199.651
200.178
200.959
202.02
203.348
204.896
206.583
208.284
209.807
210.887
211.301
211.163
172.95
172.951
172.962
172.997
173.058
173.141
173.243
173.364
173.506
173.668
173.85
174.052
174.274
174.517
174.779
175.061
175.363
175.686
176.029
176.392
176.775
177.179
177.604
178.049
178.516
179.003
179.512
180.041
180.592
181.164
181.757
182.372
183.006
183.662
184.337
185.031
185.743
186.472
187.216
187.973
188.742
189.519
190.302
191.087
191.87
192.649
193.419
194.177
194.921
195.648
196.356
197.045
197.713
198.359
198.982
199.577
200.14
200.667
201.155
201.603
202.01
202.377
202.705
202.998
203.254
203.476
203.664
203.819
203.95
204.068
204.186
204.306
204.415
204.484
204.481
204.367
204.109
203.698
203.158
202.536
201.885
201.247
200.65
200.115
199.662
199.313
199.099
199.066
199.262
199.69
200.394
201.38
202.63
204.097
205.696
207.314
208.834
210.113
210.871
210.914
172.85
172.858
172.878
172.916
172.977
173.059
173.16
173.281
173.423
173.584
173.766
173.968
174.189
174.431
174.692
174.973
175.274
175.595
175.935
176.296
176.677
177.078
177.5
177.941
178.403
178.885
179.388
179.911
180.454
181.017
181.599
182.201
182.822
183.462
184.119
184.792
185.481
186.183
186.898
187.623
188.355
189.093
189.834
190.576
191.315
192.05
192.779
193.5
194.214
194.919
195.616
196.305
196.986
197.659
198.322
198.971
199.6
200.204
200.775
201.305
201.79
202.224
202.606
202.938
203.221
203.461
203.663
203.835
203.985
204.122
204.256
204.385
204.497
204.559
204.535
204.382
204.067
203.586
202.975
202.293
201.601
200.94
200.329
199.779
199.304
198.924
198.671
198.583
198.7
199.069
199.702
200.615
201.795
203.199
204.742
206.311
207.805
209.155
210.169
210.484
172.74
172.75
172.776
172.819
172.883
172.967
173.07
173.193
173.334
173.496
173.677
173.877
174.097
174.337
174.595
174.874
175.172
175.49
175.827
176.184
176.56
176.956
177.372
177.808
178.264
178.739
179.234
179.748
180.282
180.834
181.406
181.996
182.604
183.229
183.87
184.526
185.196
185.879
186.573
187.275
187.984
188.697
189.412
190.126
190.837
191.542
192.241
192.932
193.613
194.286
194.951
195.609
196.26
196.907
197.55
198.187
198.817
199.437
200.041
200.623
201.176
201.694
202.167
202.59
202.959
203.272
203.533
203.75
203.935
204.099
204.249
204.382
204.481
204.516
204.45
204.248
203.884
203.361
202.719
202.019
201.316
200.646
200.023
199.455
198.953
198.538
198.243
198.107
198.169
198.468
199.029
199.868
200.98
202.328
203.836
205.39
206.875
208.213
209.313
209.9
172.616
172.628
172.657
172.704
172.77
172.854
172.957
173.079
173.22
173.38
173.559
173.758
173.976
174.213
174.47
174.746
175.041
175.355
175.689
176.042
176.414
176.806
177.217
177.647
178.096
178.564
179.052
179.558
180.083
180.626
181.186
181.765
182.36
182.971
183.597
184.237
184.891
185.555
186.23
186.912
187.601
188.293
188.987
189.68
190.37
191.056
191.735
192.406
193.068
193.721
194.364
194.998
195.623
196.24
196.85
197.453
198.049
198.639
199.22
199.792
200.351
200.892
201.41
201.899
202.351
202.76
203.12
203.43
203.692
203.913
204.097
204.239
204.326
204.334
204.231
203.991
203.598
203.063
202.421
201.727
201.03
200.361
199.733
199.153
198.635
198.198
197.877
197.708
197.731
197.982
198.488
199.267
200.32
201.621
203.102
204.656
206.151
207.466
208.523
209.305
172.478
172.491
172.521
172.57
172.637
172.722
172.825
172.947
173.087
173.247
173.425
173.622
173.839
174.074
174.328
174.601
174.893
175.204
175.533
175.882
176.25
176.636
177.041
177.465
177.908
178.368
178.848
179.345
179.86
180.393
180.942
181.509
182.09
182.688
183.299
183.923
184.56
185.207
185.863
186.527
187.196
187.869
188.544
189.219
189.891
190.56
191.223
191.879
192.527
193.166
193.795
194.415
195.024
195.623
196.212
196.791
197.359
197.917
198.466
199.004
199.533
200.051
200.558
201.052
201.527
201.98
202.405
202.796
203.146
203.45
203.701
203.886
203.991
203.995
203.877
203.622
203.226
202.703
202.086
201.418
200.743
200.087
199.466
198.891
198.375
197.94
197.618
197.444
197.455
197.686
198.165
198.911
199.929
201.2
202.666
204.224
205.734
207.042
208.027
208.883
172.324
172.337
172.368
172.418
172.486
172.571
172.674
172.795
172.935
173.093
173.27
173.466
173.68
173.913
174.164
174.434
174.722
175.029
175.355
175.699
176.061
176.442
176.841
177.259
177.694
178.148
178.619
179.107
179.613
180.135
180.673
181.227
181.797
182.38
182.977
183.586
184.206
184.836
185.475
186.121
186.772
187.427
188.084
188.741
189.396
190.049
190.697
191.339
191.974
192.601
193.219
193.828
194.427
195.016
195.593
196.158
196.712
197.252
197.779
198.293
198.794
199.283
199.76
200.226
200.682
201.126
201.556
201.968
202.357
202.712
203.02
203.264
203.421
203.466
203.378
203.148
202.779
202.291
201.717
201.094
200.458
199.834
199.24
198.689
198.198
197.791
197.496
197.346
197.377
197.623
198.111
198.86
199.88
201.151
202.623
204.194
205.722
207.04
207.986
208.805
172.153
172.167
172.198
172.249
172.317
172.402
172.504
172.625
172.764
172.921
173.096
173.29
173.502
173.732
173.98
174.247
174.532
174.835
175.156
175.495
175.852
176.228
176.621
177.031
177.46
177.905
178.368
178.847
179.343
179.855
180.382
180.924
181.481
182.051
182.633
183.227
183.832
184.446
185.068
185.697
186.331
186.968
187.608
188.248
188.887
189.524
190.157
190.785
191.407
192.022
192.63
193.228
193.818
194.397
194.966
195.524
196.068
196.6
197.117
197.619
198.105
198.576
199.033
199.474
199.903
200.319
200.724
201.116
201.493
201.848
202.17
202.442
202.642
202.743
202.721
202.561
202.263
201.843
201.334
200.773
200.193
199.62
199.073
198.57
198.129
197.773
197.532
197.436
197.518
197.812
198.344
199.137
200.196
201.506
203.013
204.616
206.171
207.507
208.462
209.19
171.966
171.98
172.011
172.062
172.13
172.215
172.317
172.437
172.575
172.73
172.904
173.095
173.304
173.532
173.777
174.04
174.321
174.62
174.936
175.27
175.622
175.992
176.378
176.782
177.203
177.641
178.095
178.565
179.051
179.552
180.068
180.599
181.143
181.7
182.268
182.848
183.438
184.037
184.643
185.256
185.873
186.494
187.118
187.742
188.366
188.987
189.606
190.22
190.829
191.432
192.028
192.616
193.196
193.767
194.327
194.877
195.415
195.94
196.451
196.948
197.428
197.892
198.34
198.77
199.183
199.58
199.961
200.326
200.675
201.004
201.307
201.573
201.785
201.921
201.96
201.884
201.685
201.369
200.958
200.484
199.981
199.477
198.997
198.562
198.192
197.911
197.748
197.733
197.898
198.274
198.888
199.76
200.896
202.277
203.847
205.501
207.09
208.447
209.428
210.08
171.762
171.776
171.807
171.858
171.926
172.01
172.111
172.23
172.367
172.521
172.692
172.881
173.088
173.312
173.554
173.814
174.09
174.385
174.697
175.026
175.372
175.735
176.115
176.512
176.925
177.355
177.8
178.261
178.738
179.228
179.734
180.252
180.784
181.328
181.884
182.45
183.025
183.609
184.2
184.797
185.4
186.005
186.613
187.222
187.831
188.439
189.043
189.645
190.241
190.832
191.417
191.994
192.564
193.125
193.677
194.219
194.75
195.269
195.775
196.268
196.746
197.207
197.652
198.079
198.488
198.878
199.248
199.598
199.928
200.235
200.516
200.765
200.972
201.123
201.203
201.197
201.094
200.894
200.605
200.249
199.852
199.444
199.053
198.704
198.423
198.237
198.174
198.264
198.537
199.024
199.751
200.733
201.976
203.454
205.104
206.815
208.437
209.806
210.794
211.438
171.542
171.555
171.587
171.637
171.704
171.788
171.888
172.006
172.141
172.293
172.462
172.649
172.853
173.074
173.313
173.568
173.841
174.131
174.438
174.761
175.102
175.459
175.832
176.222
176.627
177.049
177.485
177.937
178.404
178.884
179.379
179.886
180.406
180.937
181.48
182.032
182.594
183.163
183.74
184.323
184.91
185.501
186.095
186.689
187.284
187.878
188.47
189.058
189.643
190.222
190.796
191.364
191.924
192.476
193.019
193.553
194.077
194.59
195.091
195.58
196.054
196.514
196.959
197.386
197.796
198.186
198.557
198.905
199.23
199.53
199.803
200.044
200.249
200.412
200.522
200.572
200.553
200.462
200.301
200.081
199.819
199.539
199.267
199.032
198.863
198.79
198.844
199.055
199.456
200.074
200.933
202.044
203.407
204.988
206.714
208.47
210.108
211.47
212.454
213.103
171.304
171.318
171.349
171.399
171.465
171.548
171.648
171.764
171.897
172.047
172.215
172.399
172.6
172.818
173.052
173.304
173.573
173.858
174.159
174.477
174.812
175.163
175.529
175.912
176.309
176.723
177.151
177.593
178.05
178.52
179.004
179.5
180.008
180.527
181.057
181.596
182.144
182.7
183.263
183.832
184.405
184.982
185.562
186.143
186.724
187.305
187.884
188.461
189.034
189.602
190.166
190.723
191.274
191.818
192.354
192.88
193.398
193.905
194.401
194.885
195.357
195.815
196.259
196.688
197.1
197.494
197.869
198.224
198.555
198.861
199.14
199.39
199.607
199.788
199.931
200.031
200.086
200.094
200.056
199.976
199.866
199.741
199.622
199.535
199.509
199.575
199.766
200.116
200.655
201.411
202.406
203.648
205.116
206.778
208.552
210.321
211.942
213.273
214.237
214.879
171.051
171.064
171.095
171.144
171.21
171.292
171.39
171.505
171.636
171.784
171.949
172.131
172.329
172.543
172.774
173.022
173.286
173.566
173.862
174.175
174.503
174.848
175.207
175.582
175.972
176.377
176.797
177.23
177.677
178.137
178.61
179.095
179.591
180.099
180.616
181.143
181.678
182.221
182.77
183.325
183.885
184.449
185.015
185.583
186.151
186.72
187.287
187.852
188.414
188.972
189.525
190.074
190.616
191.151
191.68
192.2
192.711
193.213
193.704
194.185
194.654
195.111
195.555
195.985
196.4
196.799
197.181
197.545
197.887
198.208
198.503
198.773
199.014
199.226
199.408
199.561
199.685
199.782
199.856
199.911
199.953
199.994
200.049
200.138
200.285
200.519
200.872
201.375
202.06
202.952
204.068
205.409
206.954
208.653
210.43
212.169
213.739
215.014
215.938
216.556
170.781
170.793
170.824
170.873
170.938
171.019
171.115
171.229
171.358
171.504
171.666
171.845
172.04
172.251
172.478
172.721
172.981
173.256
173.547
173.854
174.176
174.514
174.867
175.234
175.617
176.013
176.424
176.848
177.285
177.735
178.198
178.672
179.157
179.653
180.158
180.672
181.195
181.725
182.261
182.803
183.35
183.901
184.454
185.009
185.566
186.122
186.677
187.231
187.782
188.33
188.875
189.414
189.948
190.476
190.997
191.511
192.016
192.513
193.001
193.479
193.946
194.403
194.847
195.279
195.698
196.103
196.492
196.866
197.222
197.56
197.877
198.173
198.446
198.697
198.926
199.134
199.326
199.506
199.679
199.852
200.033
200.231
200.458
200.727
201.059
201.476
202.004
202.67
203.5
204.516
205.729
207.134
208.708
210.399
212.129
213.799
215.292
216.496
217.371
217.95
170.494
170.507
170.537
170.585
170.649
170.729
170.824
170.936
171.064
171.207
171.367
171.542
171.734
171.941
172.165
172.404
172.658
172.929
173.214
173.515
173.831
174.162
174.508
174.868
175.243
175.631
176.033
176.448
176.876
177.316
177.768
178.231
178.705
179.189
179.683
180.185
180.696
181.213
181.737
182.266
182.801
183.339
183.88
184.423
184.967
185.512
186.056
186.599
187.14
187.678
188.213
188.744
189.27
189.79
190.305
190.813
191.313
191.806
192.291
192.766
193.233
193.689
194.135
194.57
194.993
195.404
195.802
196.187
196.558
196.914
197.255
197.579
197.888
198.18
198.459
198.725
198.985
199.242
199.505
199.781
200.08
200.411
200.786
201.215
201.715
202.301
202.992
203.808
204.768
205.886
207.166
208.602
210.166
211.811
213.467
215.046
216.449
217.579
218.403
218.945
170.192
170.205
170.234
170.282
170.345
170.423
170.517
170.627
170.752
170.894
171.051
171.223
171.411
171.615
171.834
172.069
172.319
172.584
172.864
173.159
173.469
173.793
174.132
174.485
174.851
175.231
175.624
176.03
176.448
176.879
177.321
177.773
178.236
178.709
179.191
179.682
180.18
180.686
181.197
181.715
182.237
182.762
183.291
183.823
184.355
184.889
185.422
185.955
186.486
187.014
187.54
188.063
188.581
189.094
189.603
190.105
190.601
191.09
191.572
192.046
192.511
192.968
193.416
193.855
194.283
194.702
195.11
195.507
195.893
196.268
196.632
196.986
197.329
197.664
197.992
198.316
198.64
198.971
199.316
199.682
200.08
200.52
201.013
201.57
202.201
202.921
203.741
204.673
205.728
206.914
208.23
209.664
211.191
212.769
214.339
215.823
217.138
218.198
218.975
219.493
169.874
169.886
169.916
169.962
170.024
170.102
170.194
170.302
170.425
170.564
170.718
170.887
171.072
171.272
171.487
171.717
171.962
172.222
172.497
172.786
173.089
173.407
173.738
174.084
174.442
174.814
175.198
175.595
176.004
176.425
176.856
177.299
177.751
178.213
178.684
179.163
179.649
180.143
180.643
181.148
181.658
182.172
182.69
183.209
183.731
184.253
184.776
185.298
185.82
186.339
186.856
187.37
187.881
188.388
188.89
189.387
189.879
190.364
190.844
191.316
191.782
192.24
192.69
193.133
193.567
193.993
194.411
194.821
195.223
195.618
196.006
196.387
196.765
197.139
197.514
197.891
198.277
198.676
199.095
199.542
200.025
200.555
201.141
201.794
202.522
203.335
204.241
205.247
206.358
207.574
208.889
210.293
211.761
213.256
214.731
216.12
217.353
218.351
219.082
219.584
169.541
169.553
169.582
169.627
169.688
169.764
169.855
169.961
170.082
170.218
170.369
170.536
170.717
170.913
171.124
171.349
171.589
171.844
172.113
172.396
172.693
173.004
173.328
173.666
174.017
174.38
174.756
175.144
175.544
175.954
176.376
176.808
177.25
177.701
178.16
178.628
179.103
179.585
180.074
180.567
181.066
181.568
182.074
182.583
183.093
183.605
184.117
184.63
185.141
185.652
186.16
186.667
187.17
187.67
188.166
188.658
189.145
189.628
190.105
190.576
191.041
191.501
191.954
192.401
192.842
193.276
193.705
194.128
194.545
194.959
195.37
195.778
196.187
196.599
197.016
197.443
197.883
198.343
198.828
199.345
199.903
200.508
201.17
201.896
202.694
203.57
204.529
205.573
206.702
207.915
209.201
210.55
211.939
213.339
214.71
216.001
217.15
218.086
218.773
219.252
169.192
169.204
169.232
169.277
169.337
169.412
169.501
169.605
169.723
169.857
170.005
170.168
170.346
170.538
170.744
170.965
171.2
171.45
171.713
171.99
172.281
172.585
172.902
173.232
173.575
173.93
174.297
174.676
175.067
175.468
175.88
176.301
176.733
177.173
177.622
178.078
178.542
179.013
179.49
179.972
180.459
180.951
181.445
181.943
182.442
182.944
183.446
183.948
184.451
184.952
185.452
185.951
186.447
186.94
187.431
187.918
188.401
188.88
189.354
189.824
190.29
190.751
191.206
191.658
192.105
192.547
192.986
193.422
193.855
194.287
194.719
195.153
195.592
196.037
196.492
196.962
197.451
197.963
198.505
199.083
199.703
200.371
201.094
201.878
202.728
203.646
204.635
205.693
206.819
208.005
209.243
210.52
211.817
213.112
214.373
215.559
216.619
217.49
218.128
218.58
168.829
168.841
168.868
168.912
168.971
169.044
169.131
169.233
169.35
169.48
169.626
169.785
169.959
170.147
170.35
170.566
170.796
171.04
171.297
171.568
171.852
172.15
172.46
172.782
173.117
173.464
173.823
174.193
174.574
174.966
175.368
175.779
176.2
176.63
177.068
177.514
177.967
178.427
178.892
179.363
179.839
180.319
180.803
181.29
181.779
182.27
182.762
183.254
183.747
184.24
184.732
185.223
185.712
186.198
186.683
187.165
187.643
188.119
188.591
189.06
189.525
189.987
190.446
190.901
191.353
191.804
192.252
192.7
193.148
193.597
194.049
194.507
194.972
195.447
195.936
196.444
196.973
197.53
198.119
198.746
199.417
200.136
200.908
201.737
202.625
203.572
204.577
205.637
206.746
207.895
209.075
210.274
211.475
212.66
213.807
214.884
215.848
216.646
217.231
217.65
168.451
168.462
168.489
168.533
168.59
168.662
168.747
168.847
168.961
169.089
169.231
169.388
169.558
169.742
169.94
170.151
170.376
170.615
170.866
171.131
171.409
171.699
172.002
172.317
172.644
172.983
173.333
173.695
174.066
174.449
174.841
175.243
175.653
176.073
176.5
176.935
177.377
177.826
178.28
178.74
179.205
179.674
180.147
180.623
181.102
181.582
182.064
182.548
183.031
183.515
183.999
184.481
184.963
185.443
185.922
186.398
186.873
187.345
187.814
188.281
188.746
189.209
189.669
190.128
190.586
191.043
191.501
191.959
192.42
192.885
193.355
193.834
194.322
194.824
195.342
195.881
196.445
197.038
197.665
198.332
199.041
199.799
200.608
201.469
202.383
203.349
204.362
205.416
206.503
207.613
208.734
209.855
210.961
212.04
213.074
214.04
214.905
215.625
216.152
216.536
168.059
168.07
168.096
168.138
168.195
168.265
168.349
168.446
168.558
168.683
168.822
168.975
169.141
169.321
169.515
169.722
169.941
170.174
170.42
170.679
170.95
171.234
171.53
171.837
172.156
172.487
172.829
173.181
173.544
173.917
174.299
174.691
175.092
175.501
175.918
176.342
176.773
177.211
177.655
178.104
178.558
179.016
179.478
179.943
180.411
180.882
181.354
181.828
182.302
182.777
183.252
183.727
184.201
184.675
185.147
185.618
186.088
186.556
187.022
187.488
187.951
188.414
188.876
189.338
189.8
190.263
190.728
191.196
191.668
192.147
192.633
193.129
193.638
194.162
194.705
195.27
195.862
196.484
197.14
197.836
198.575
199.36
200.193
201.075
202.004
202.979
203.992
205.035
206.098
207.169
208.236
209.285
210.304
211.284
212.211
213.07
213.837
214.478
214.945
215.29
167.652
167.663
167.689
167.73
167.786
167.854
167.936
168.031
168.14
168.263
168.399
168.548
168.711
168.887
169.076
169.278
169.492
169.72
169.96
170.212
170.477
170.754
171.042
171.342
171.654
171.976
172.31
172.653
173.007
173.37
173.743
174.125
174.516
174.915
175.321
175.735
176.155
176.582
177.015
177.453
177.896
178.344
178.795
179.25
179.708
180.168
180.63
181.094
181.559
182.025
182.492
182.959
183.425
183.892
184.358
184.823
185.287
185.751
186.215
186.677
187.139
187.602
188.064
188.528
188.993
189.461
189.932
190.408
190.889
191.379
191.878
192.389
192.914
193.457
194.019
194.605
195.219
195.863
196.541
197.258
198.016
198.818
199.665
200.557
201.492
202.465
203.471
204.498
205.536
206.57
207.586
208.572
209.515
210.406
211.236
211.997
212.67
213.233
213.641
213.948
167.232
167.243
167.268
167.308
167.362
167.429
167.509
167.603
167.709
167.829
167.962
168.107
168.266
168.438
168.622
168.819
169.029
169.251
169.485
169.732
169.99
170.26
170.541
170.834
171.137
171.451
171.776
172.111
172.456
172.81
173.173
173.546
173.926
174.315
174.711
175.114
175.524
175.94
176.362
176.79
177.222
177.659
178.099
178.544
178.991
179.441
179.893
180.348
180.803
181.26
181.718
182.176
182.635
183.094
183.553
184.012
184.471
184.93
185.39
185.849
186.309
186.77
187.232
187.696
188.164
188.634
189.11
189.591
190.08
190.579
191.088
191.61
192.148
192.705
193.282
193.884
194.513
195.173
195.866
196.596
197.365
198.175
199.026
199.919
200.849
201.814
202.804
203.811
204.821
205.819
206.79
207.72
208.596
209.41
210.156
210.828
211.417
211.907
212.259
212.53
166.799
166.809
166.834
166.873
166.926
166.991
167.069
167.16
167.264
167.381
167.511
167.653
167.808
167.975
168.155
168.348
168.552
168.768
168.997
169.237
169.489
169.752
170.026
170.311
170.607
170.913
171.229
171.555
171.891
172.236
172.59
172.952
173.323
173.701
174.087
174.48
174.879
175.285
175.696
176.113
176.534
176.96
177.39
177.824
178.261
178.701
179.143
179.587
180.033
180.481
180.93
181.38
181.83
182.281
182.733
183.186
183.639
184.092
184.547
185.002
185.459
185.917
186.378
186.842
187.309
187.782
188.26
188.745
189.239
189.743
190.259
190.79
191.337
191.902
192.49
193.102
193.741
194.41
195.112
195.848
196.621
197.431
198.279
199.164
200.083
201.03
201.999
202.979
203.958
204.92
205.848
206.729
207.548
208.296
208.97
209.566
210.079
210.503
210.804
211.042
166.352
166.362
166.386
166.425
166.476
166.54
166.616
166.705
166.806
166.92
167.047
167.185
167.336
167.5
167.675
167.862
168.062
168.273
168.495
168.729
168.974
169.23
169.497
169.775
170.063
170.361
170.669
170.986
171.313
171.649
171.993
172.346
172.707
173.075
173.45
173.833
174.222
174.617
175.017
175.423
175.834
176.249
176.668
177.091
177.518
177.947
178.379
178.813
179.249
179.687
180.127
180.568
181.01
181.453
181.897
182.342
182.789
183.236
183.685
184.135
184.588
185.043
185.501
185.963
186.429
186.901
187.38
187.866
188.362
188.87
189.39
189.924
190.476
191.048
191.641
192.258
192.901
193.574
194.277
195.013
195.783
196.588
197.426
198.297
199.196
200.12
201.062
202.01
202.954
203.877
204.765
205.6
206.369
207.062
207.674
208.205
208.653
209.019
209.275
209.483
165.893
165.903
165.926
165.964
166.014
166.076
166.15
166.237
166.335
166.446
166.57
166.705
166.852
167.011
167.182
167.364
167.558
167.764
167.98
168.208
168.446
168.696
168.955
169.225
169.506
169.795
170.095
170.404
170.722
171.048
171.383
171.726
172.077
172.435
172.801
173.173
173.551
173.935
174.325
174.72
175.12
175.525
175.933
176.345
176.761
177.18
177.601
178.025
178.451
178.879
179.309
179.741
180.174
180.609
181.045
181.482
181.921
182.361
182.803
183.248
183.695
184.145
184.599
185.058
185.521
185.991
186.468
186.954
187.449
187.957
188.477
189.013
189.566
190.138
190.732
191.349
191.992
192.662
193.361
194.091
194.852
195.645
196.467
197.317
198.193
199.088
199.996
200.908
201.813
202.696
203.542
204.335
205.059
205.703
206.263
206.74
207.133
207.449
207.665
207.847
165.421
165.431
165.454
165.49
165.539
165.599
165.672
165.756
165.852
165.96
166.08
166.212
166.355
166.51
166.676
166.853
167.042
167.242
167.453
167.674
167.906
168.148
168.401
168.663
168.936
169.218
169.509
169.809
170.118
170.435
170.761
171.094
171.435
171.783
172.138
172.5
172.868
173.241
173.621
174.005
174.394
174.787
175.185
175.586
175.991
176.399
176.81
177.223
177.639
178.057
178.477
178.899
179.322
179.748
180.175
180.604
181.034
181.467
181.902
182.339
182.78
183.224
183.672
184.125
184.584
185.05
185.523
186.005
186.498
187.002
187.52
188.053
188.603
189.172
189.762
190.374
191.011
191.674
192.363
193.082
193.828
194.602
195.403
196.228
197.074
197.935
198.806
199.678
200.541
201.381
202.184
202.934
203.615
204.217
204.732
205.162
205.508
205.781
205.963
206.123
164.937
164.946
164.969
165.004
165.052
165.111
165.181
165.263
165.357
165.462
165.578
165.706
165.846
165.996
166.158
166.33
166.514
166.708
166.913
167.128
167.353
167.589
167.834
168.089
168.354
168.627
168.91
169.202
169.502
169.81
170.126
170.45
170.781
171.119
171.464
171.815
172.172
172.535
172.903
173.277
173.655
174.037
174.424
174.814
175.208
175.605
176.005
176.407
176.813
177.22
177.63
178.041
178.455
178.87
179.288
179.707
180.129
180.553
180.979
181.408
181.841
182.278
182.719
183.165
183.617
184.076
184.544
185.02
185.506
186.005
186.517
187.043
187.587
188.148
188.729
189.332
189.958
190.608
191.283
191.983
192.71
193.46
194.234
195.029
195.841
196.664
197.494
198.322
199.139
199.933
200.691
201.397
202.037
202.599
203.074
203.464
203.77
204.006
204.159
204.299
164.441
164.45
164.472
164.507
164.553
164.61
164.678
164.758
164.849
164.951
165.065
165.189
165.324
165.471
165.628
165.795
165.973
166.162
166.361
166.57
166.789
167.017
167.255
167.503
167.76
168.025
168.3
168.583
168.874
169.173
169.479
169.793
170.115
170.443
170.777
171.118
171.465
171.817
172.174
172.536
172.903
173.275
173.65
174.029
174.412
174.798
175.186
175.578
175.972
176.368
176.767
177.168
177.571
177.976
178.383
178.792
179.204
179.618
180.035
180.455
180.879
181.306
181.739
182.176
182.62
183.07
183.529
183.997
184.475
184.964
185.467
185.983
186.516
187.066
187.634
188.223
188.832
189.464
190.119
190.797
191.498
192.22
192.962
193.721
194.494
195.276
196.06
196.84
197.608
198.353
199.062
199.723
200.321
200.844
201.282
201.636
201.906
202.11
202.238
202.361
163.934
163.943
163.964
163.998
164.042
164.098
164.164
164.242
164.33
164.429
164.539
164.66
164.792
164.933
165.086
165.249
165.421
165.604
165.797
166
166.212
166.434
166.665
166.905
167.154
167.412
167.678
167.952
168.234
168.524
168.821
169.125
169.437
169.755
170.079
170.409
170.745
171.086
171.433
171.784
172.14
172.5
172.864
173.232
173.603
173.977
174.354
174.734
175.117
175.502
175.889
176.279
176.671
177.064
177.461
177.859
178.26
178.663
179.069
179.479
179.892
180.309
180.731
181.158
181.591
182.031
182.479
182.935
183.401
183.879
184.368
184.872
185.39
185.924
186.475
187.045
187.634
188.243
188.873
189.523
190.192
190.881
191.586
192.304
193.034
193.769
194.504
195.233
195.948
196.639
197.297
197.91
198.463
198.945
199.347
199.667
199.905
200.08
200.185
200.294
163.416
163.424
163.445
163.477
163.521
163.575
163.639
163.714
163.8
163.896
164.003
164.12
164.248
164.385
164.533
164.691
164.858
165.036
165.223
165.419
165.625
165.84
166.063
166.296
166.537
166.787
167.044
167.31
167.583
167.864
168.151
168.446
168.747
169.055
169.369
169.689
170.014
170.344
170.68
171.02
171.364
171.713
172.065
172.421
172.781
173.143
173.509
173.877
174.248
174.621
174.996
175.374
175.754
176.136
176.52
176.907
177.296
177.687
178.082
178.479
178.88
179.285
179.695
180.11
180.53
180.957
181.392
181.834
182.286
182.749
183.222
183.708
184.208
184.723
185.253
185.799
186.363
186.944
187.543
188.16
188.794
189.443
190.105
190.779
191.459
192.143
192.825
193.498
194.155
194.79
195.392
195.951
196.457
196.896
197.259
197.545
197.752
197.9
197.983
198.079
162.887
162.895
162.915
162.946
162.989
163.041
163.103
163.176
163.259
163.352
163.456
163.569
163.693
163.826
163.969
164.122
164.284
164.456
164.637
164.827
165.026
165.234
165.451
165.676
165.909
166.151
166.4
166.657
166.921
167.192
167.471
167.756
168.047
168.345
168.648
168.957
169.271
169.591
169.915
170.244
170.577
170.914
171.254
171.599
171.946
172.297
172.65
173.006
173.365
173.725
174.088
174.454
174.821
175.191
175.562
175.936
176.312
176.691
177.072
177.456
177.844
178.236
178.631
179.032
179.438
179.85
180.268
180.695
181.129
181.574
182.028
182.494
182.971
183.462
183.966
184.485
185.019
185.567
186.131
186.71
187.302
187.906
188.521
189.144
189.77
190.397
191.02
191.632
192.227
192.8
193.341
193.842
194.294
194.685
195.007
195.257
195.432
195.553
195.615
195.698
162.347
162.355
162.374
162.405
162.446
162.496
162.557
162.627
162.708
162.798
162.898
163.008
163.127
163.256
163.395
163.543
163.7
163.866
164.041
164.225
164.417
164.618
164.828
165.045
165.271
165.504
165.745
165.993
166.248
166.511
166.779
167.055
167.336
167.623
167.916
168.215
168.518
168.826
169.139
169.457
169.778
170.103
170.432
170.764
171.099
171.437
171.778
172.122
172.467
172.815
173.166
173.518
173.872
174.228
174.586
174.946
175.309
175.673
176.041
176.41
176.783
177.16
177.54
177.924
178.313
178.708
179.109
179.516
179.931
180.354
180.786
181.227
181.679
182.142
182.617
183.103
183.602
184.114
184.637
185.172
185.717
186.271
186.833
187.399
187.966
188.53
189.087
189.632
190.16
190.663
191.137
191.574
191.965
192.302
192.577
192.786
192.926
193.018
193.058
193.129
161.797
161.805
161.824
161.853
161.893
161.942
162
162.068
162.146
162.233
162.33
162.436
162.552
162.677
162.81
162.953
163.105
163.265
163.435
163.612
163.798
163.992
164.195
164.405
164.622
164.848
165.08
165.319
165.566
165.819
166.078
166.343
166.615
166.892
167.174
167.462
167.754
168.051
168.353
168.658
168.968
169.281
169.598
169.917
170.24
170.566
170.894
171.224
171.557
171.891
172.228
172.567
172.907
173.249
173.593
173.939
174.286
174.636
174.987
175.341
175.698
176.058
176.42
176.787
177.157
177.533
177.913
178.299
178.691
179.089
179.496
179.91
180.332
180.764
181.205
181.655
182.114
182.584
183.061
183.547
184.04
184.539
185.041
185.543
186.044
186.539
187.024
187.495
187.947
188.374
188.773
189.136
189.458
189.732
189.951
190.113
190.213
190.271
190.287
190.344
161.238
161.245
161.263
161.292
161.33
161.377
161.434
161.499
161.575
161.659
161.752
161.855
161.966
162.087
162.216
162.354
162.5
162.655
162.818
162.99
163.169
163.357
163.552
163.754
163.964
164.181
164.405
164.636
164.873
165.117
165.366
165.622
165.883
166.15
166.422
166.698
166.98
167.266
167.556
167.849
168.147
168.448
168.752
169.059
169.369
169.682
169.997
170.314
170.633
170.953
171.276
171.6
171.926
172.253
172.582
172.912
173.244
173.578
173.913
174.25
174.589
174.93
175.274
175.62
175.97
176.324
176.681
177.043
177.41
177.781
178.159
178.542
178.932
179.328
179.731
180.141
180.556
180.978
181.406
181.838
182.273
182.709
183.145
183.578
184.005
184.423
184.828
185.216
185.583
185.925
186.238
186.517
186.759
186.959
187.111
187.215
187.266