/*--------------------------------*- C++ -*----------------------------------*\
| =========                 |                                                 |
| \\      /  F ield         | OpenFOAM: The Open Source CFD Toolbox           |
|  \\    /   O peration     | Version:  4.1                                   |
|   \\  /    A nd           | Web:      www.OpenFOAM.org                      |
|    \\/     M anipulation  |                                                 |
\*---------------------------------------------------------------------------*/
FoamFile
{
    version     2.0;
    format      ascii;
    class       surfaceScalarField;
    location    "0.41";
    object      phi;
}
// * * * * * * * * * * * * * * * * * * * * * * * * * * * * * * * * * * * * * //

dimensions      [0 3 -1 0 0 0 0];

internalField   nonuniform List<scalar> 
87025
(
0.0199632
3.67762e-05
0.0199043
5.89404e-05
0.0198329
7.13727e-05
0.0197508
8.20786e-05
0.0196587
9.21465e-05
0.0195572
0.000101471
0.0194471
0.000110155
0.0193286
0.000118466
0.019202
0.000126604
0.0190673
0.000134654
0.0189247
0.000142659
0.018774
0.000150664
0.0186153
0.000158717
0.0184484
0.000166865
0.0182733
0.000175146
0.0180897
0.000183596
0.0178974
0.000192252
0.0176963
0.000201155
0.0174859
0.00021035
0.0172661
0.00021988
0.0170363
0.000229795
0.0167961
0.000240144
0.0165451
0.000250984
0.0162828
0.00026237
0.0160084
0.000274372
0.0157213
0.00028706
0.0154208
0.000300512
0.015106
0.00031481
0.014776
0.000330039
0.0144297
0.000346289
0.014066
0.000363652
0.0136838
0.000382218
0.0132817
0.000402066
0.0128585
0.000423258
0.0124126
0.000445835
0.0119429
0.000469793
0.0114478
0.000495079
0.0109262
0.000521549
0.0103773
0.000548965
0.00980031
0.00057695
0.00919533
0.000604982
0.00856297
0.000632354
0.0079048
0.00065817
0.00722346
0.000681346
0.00652283
0.000700632
0.00580817
0.000714658
0.00508614
0.00072203
0.0043647
0.000721438
0.0036529
0.000711797
0.00296047
0.000692436
0.00229721
0.00066326
0.00167228
0.000624924
0.00109335
0.000578933
0.000565744
0.000527607
9.18998e-05
0.000473844
-0.000329475
0.000421375
-0.000703074
0.000373599
-0.00103512
0.000332049
-0.00133238
0.000297259
-0.00160082
0.000268433
-0.00184482
0.000244004
-0.00206759
0.000222767
-0.00227185
0.000204262
-0.00246066
0.000188814
-0.00263728
0.000176614
-0.00280486
0.000167583
-0.00296578
0.000160924
-0.00311817
0.000152388
-0.00325149
0.000133314
-0.00334468
9.31962e-05
-0.00337274
2.80537e-05
-0.0033268
-4.59337e-05
-0.00322844
-9.8363e-05
-0.00312164
-0.0001068
-0.00306499
-5.66461e-05
-0.00311832
5.33225e-05
-0.00331457
0.000196255
-0.00367362
0.000359053
-0.00418036
0.000506734
-0.0047982
0.000617842
-0.00548288
0.000684679
-0.00619134
0.000708458
-0.00688491
0.000693576
-0.00752873
0.000643815
-0.0080937
0.000564969
-0.00855424
0.000460548
-0.00888647
0.000332223
-0.00906909
0.000182627
-0.00907752
8.42896e-06
-0.00894212
-0.000135401
-0.00865282
-0.000289304
-0.0081969
-0.000455922
-0.00755835
-0.000638544
-0.00671906
-0.000839294
-0.00566216
-0.0010569
-0.00437618
-0.00128597
-0.00288091
-0.00149527
-0.00132542
-0.00155549
-0.000159071
-0.00116635
-0.000159071
0.0200266
1.01959e-05
0.0200563
2.91928e-05
0.0200853
4.24391e-05
0.0201135
5.38632e-05
0.0201404
6.51906e-05
0.0201655
7.63858e-05
0.0201883
8.73268e-05
0.0202086
9.8162e-05
0.0202262
0.000109065
0.0202407
0.000120128
0.020252
0.000131397
0.0202597
0.000142915
0.0202637
0.000154732
0.0202637
0.000166889
0.0202594
0.00017943
0.0202506
0.000192406
0.020237
0.000205868
0.0202183
0.000219873
0.0201941
0.000234479
0.0201643
0.000249752
0.0201283
0.00026577
0.0200858
0.000282619
0.0200364
0.000300397
0.0199796
0.000319212
0.0199147
0.000339189
0.0198413
0.000360467
0.0197586
0.000383205
0.0196659
0.00040758
0.0195621
0.00043379
0.0194463
0.000462057
0.0193174
0.000492625
0.0191738
0.000525762
0.0190141
0.000561752
0.0188365
0.000600898
0.0186388
0.000643501
0.0184188
0.000689862
0.0181736
0.000740242
0.0179003
0.000794847
0.0175955
0.00085378
0.0172554
0.000916999
0.0168762
0.000984254
0.0164535
0.00105503
0.0159832
0.00112848
0.0154612
0.00120335
0.0148838
0.00127797
0.0142483
0.00135023
0.0135527
0.00141761
0.0127968
0.00147728
0.0119824
0.00152628
0.0111131
0.00156168
0.0101955
0.00158088
0.00923859
0.00158182
0.00825428
0.00156324
0.00725704
0.00152485
0.00626328
0.0014676
0.00529095
0.00139371
0.0043582
0.00130635
0.00348067
0.00120959
0.00266956
0.00110836
0.00193029
0.0010077
0.0012623
0.000911997
0.000660643
0.000824425
0.000118264
0.000746641
-0.000372045
0.000679123
-0.000816561
0.00062113
-0.00122013
0.000571148
-0.00158544
0.000526237
-0.00191302
0.000479968
-0.00220276
0.000423054
-0.00245832
0.000348758
-0.00269403
0.000263762
-0.00293194
0.000191975
-0.00319437
0.000164071
-0.00350816
0.000206988
-0.00389834
0.000333535
-0.0043739
0.000528886
-0.00492922
0.000751566
-0.00552873
0.000958568
-0.00613389
0.00111189
-0.00670686
0.00119081
-0.00721672
0.00119454
-0.00764381
0.00113555
-0.00798052
0.00103028
-0.0082298
0.000893093
-0.00840025
0.000735423
-0.00850393
0.000564234
-0.00855387
0.000382158
-0.00855859
0.000187345
-0.00852842
-2.17368e-05
-0.00840198
-0.000261844
-0.00816102
-0.000530261
-0.00778625
-0.000830697
-0.00726472
-0.00116007
-0.00658764
-0.00151637
-0.00574548
-0.00189906
-0.00472576
-0.0023057
-0.00351774
-0.00270328
-0.00214343
-0.00292981
-0.000772759
-0.00253702
-0.00093183
0.0200002
9.97371e-06
0.0199992
3.02534e-05
0.019994
4.75628e-05
0.0199849
6.29559e-05
0.0199723
7.78086e-05
0.0199563
9.24334e-05
0.0199368
0.000106765
0.0199141
0.000120873
0.0198883
0.000134912
0.0198594
0.000148988
0.0198277
0.000163161
0.0197931
0.000177474
0.0197559
0.000191977
0.019716
0.000206721
0.0196737
0.000221752
0.019629
0.000237118
0.019582
0.000252874
0.0195328
0.000269077
0.0194815
0.00028579
0.0194281
0.000303081
0.0193729
0.000321026
0.0193158
0.00033971
0.019257
0.000359234
0.0191965
0.00037971
0.0191344
0.000401263
0.0190708
0.000424039
0.0190058
0.0004482
0.0189395
0.000473934
0.0188718
0.000501451
0.0188029
0.000530995
0.0187326
0.000562841
0.0186611
0.0005973
0.0185881
0.000634722
0.0185135
0.000675495
0.018437
0.000720049
0.018358
0.000768851
0.0182759
0.000822395
0.0181895
0.000881192
0.0180975
0.000945753
0.017998
0.00101655
0.0178883
0.00109398
0.017765
0.0011783
0.0176239
0.00126957
0.0174597
0.00136757
0.017266
0.00147168
0.0170354
0.00158084
0.0167595
0.00169346
0.0164294
0.00180738
0.0160358
0.00191989
0.0155697
0.00202779
0.0150231
0.00212749
0.0143897
0.0022152
0.0136659
0.00228704
0.0128514
0.00233933
0.0119503
0.00236869
0.0109717
0.00237234
0.00992988
0.00234818
0.0088442
0.00229527
0.00773837
0.00221419
0.00663863
0.00210744
0.00557104
0.00197959
0.00455829
0.00183717
0.00361699
0.00168795
0.00275632
0.00153979
0.00197823
0.00139922
0.00127915
0.00127023
0.000652203
0.00115319
8.79765e-05
0.00104419
-0.000425568
0.000936599
-0.000902105
0.000825294
-0.00135415
0.000715806
-0.00179146
0.00062929
-0.00222494
0.000597552
-0.00267122
0.000653268
-0.00314634
0.000808646
-0.00365507
0.00103762
-0.00418449
0.00128098
-0.00470251
0.00147659
-0.00517615
0.00158553
-0.00558629
0.00160094
-0.00593184
0.0015401
-0.00622516
0.00142886
-0.00648382
0.00128894
-0.00672297
0.00113224
-0.00694868
0.000961128
-0.00715541
0.000770963
-0.00732723
0.000553976
-0.00744316
0.000303281
-0.00746676
1.85972e-06
-0.00739892
-0.000329687
-0.00721408
-0.000715095
-0.00690465
-0.00114013
-0.00646639
-0.00159833
-0.00590212
-0.00208064
-0.00522217
-0.002579
-0.00443788
-0.00309
-0.00353922
-0.00360194
-0.00245732
-0.00401171
-0.00112432
-0.00387001
-0.00205615
0.019999
1.10056e-05
0.0199962
3.30574e-05
0.0199899
5.38265e-05
0.0199796
7.33052e-05
0.0199652
9.21597e-05
0.0199469
0.000110759
0.0199245
0.000129143
0.019898
0.000147344
0.0198675
0.000165463
0.0198329
0.000183602
0.0197942
0.000201827
0.0197515
0.000220188
0.0197047
0.000238732
0.0196539
0.000257505
0.0195991
0.000276558
0.0195403
0.000295938
0.0194775
0.000315694
0.0194107
0.000335881
0.0193399
0.000356554
0.0192652
0.000377772
0.0191867
0.000399604
0.0191042
0.000422123
0.0190181
0.000445416
0.0189282
0.000469575
0.0188348
0.000494704
0.0187379
0.000520917
0.0186377
0.000548348
0.0185345
0.000577146
0.0184285
0.000607475
0.01832
0.000639525
0.0182093
0.000673507
0.0180969
0.000709657
0.0179834
0.000748238
0.0178694
0.000789544
0.0177555
0.000833902
0.0176427
0.00088167
0.0175319
0.000933242
0.017424
0.000989037
0.0173203
0.00104951
0.0172217
0.00111513
0.0171293
0.0011864
0.0170438
0.0012638
0.0169655
0.00134781
0.0168942
0.00143884
0.0168287
0.00153723
0.0167664
0.00164317
0.0167032
0.00175664
0.0166332
0.00187733
0.0165485
0.00200458
0.0164391
0.00213727
0.0162928
0.00227375
0.0160962
0.00241177
0.0158348
0.00254843
0.015494
0.00268016
0.01506
0.00280268
0.0145213
0.00291107
0.0138696
0.00299984
0.0131017
0.00306316
0.0122206
0.00309532
0.0112367
0.00309138
0.0101683
0.00304796
0.00904141
0.00296407
0.00788762
0.00284174
0.00674102
0.00268639
0.00563382
0.00250642
0.00459188
0.00231216
0.00363118
0.00211389
0.00275585
0.00191953
0.00195907
0.00173338
0.00122689
0.00155747
0.000545731
0.00139697
-9.08511e-05
0.00126587
-0.000682554
0.00118925
-0.00122692
0.00119764
-0.00172781
0.00130953
-0.00219657
0.00150638
-0.00264324
0.00172766
-0.00306746
0.00190081
-0.00346217
0.00198024
-0.00382381
0.00196258
-0.00415822
0.00187451
-0.0044773
0.00174794
-0.00479133
0.00160298
-0.00510257
0.00144349
-0.00540312
0.00126168
-0.00567732
0.00104516
-0.00590632
0.000782972
-0.00607053
0.000467495
-0.00616084
9.21717e-05
-0.00615389
-0.000336637
-0.0060459
-0.000823086
-0.00582413
-0.0013619
-0.00548043
-0.00194203
-0.00501554
-0.00254553
-0.00444577
-0.00314877
-0.00380558
-0.00373018
-0.00312456
-0.00428296
-0.00234595
-0.00479033
-0.00125625
-0.00495971
-0.0033124
0.0199987
1.23214e-05
0.0199948
3.69469e-05
0.0199876
6.09781e-05
0.0199767
8.42246e-05
0.019962
0.00010692
0.0199434
0.000129333
0.019921
0.000151569
0.0198946
0.000173668
0.0198644
0.000195703
0.0198302
0.000217763
0.0197921
0.000239922
0.0197501
0.000262239
0.0197041
0.000284761
0.019654
0.000307544
0.0195999
0.000330639
0.0195418
0.0003541
0.0194795
0.000377983
0.019413
0.000402342
0.0193423
0.000427236
0.0192674
0.000452731
0.0191881
0.000478895
0.0191044
0.000505805
0.0190163
0.000533543
0.0189237
0.000562197
0.0188265
0.000591868
0.0187248
0.000622665
0.0186184
0.000654705
0.0185074
0.000688119
0.0183918
0.000723053
0.0182717
0.000759663
0.0181471
0.00079812
0.0180181
0.000838607
0.0178851
0.000881322
0.0177481
0.000926479
0.0176077
0.000974302
0.0174644
0.00102502
0.0173187
0.00107889
0.0171716
0.00113614
0.0170241
0.00119704
0.0168774
0.00126182
0.016733
0.00133074
0.0165928
0.00140405
0.0164586
0.00148198
0.0163327
0.00156479
0.0162171
0.00165276
0.0161141
0.00174619
0.0160254
0.00184541
0.0159519
0.00195082
0.0158936
0.00206285
0.0158489
0.00218194
0.0158142
0.00230848
0.0157833
0.00244269
0.0157473
0.00258447
0.0156942
0.00273319
0.0156094
0.00288746
0.0154757
0.00304484
0.0152739
0.00320159
0.0149845
0.00335256
0.0145887
0.00349112
0.0140706
0.00360946
0.0134196
0.003699
0.0126325
0.00375117
0.0117158
0.00375841
0.0106869
0.00371536
0.00957329
0.00361999
0.00841088
0.00347457
0.00723888
0.0032859
0.0060936
0.00306481
0.00500218
0.0028248
0.00397923
0.00258042
0.00302931
0.00234689
0.00215389
0.00214129
0.00135889
0.00198425
0.000656366
0.00190017
5.6718e-05
0.00190918
-0.00044559
0.00200869
-0.000876134
0.0021582
-0.00126715
0.00229183
-0.00164157
0.00235466
-0.00200904
0.00233005
-0.00237214
0.00223761
-0.00273082
0.00210661
-0.00308396
0.00195612
-0.00342692
0.00178645
-0.00375097
0.00158573
-0.00404495
0.00133914
-0.00429727
0.00103529
-0.00449744
0.000667666
-0.00463777
0.000232505
-0.00470388
-0.000270525
-0.00468596
-0.000841008
-0.00457201
-0.00147585
-0.00435069
-0.00216335
-0.00401509
-0.00288114
-0.00357074
-0.00359311
-0.00304717
-0.00425376
-0.00249873
-0.0048314
-0.00194451
-0.00534454
-0.0011873
-0.00571692
-0.00449971
0.0199985
1.38194e-05
0.019994
4.14285e-05
0.0199863
6.87014e-05
0.019975
9.54955e-05
0.0199601
0.000121874
0.0199414
0.000147999
0.019919
0.000173981
0.0198928
0.000199874
0.0198628
0.000225737
0.0198289
0.000251641
0.0197911
0.000277659
0.0197495
0.000303848
0.019704
0.000330265
0.0196546
0.000356961
0.0196013
0.000383995
0.0195439
0.000411423
0.0194826
0.0004393
0.0194173
0.000467686
0.0193479
0.000496647
0.0192743
0.00052625
0.0191967
0.000556569
0.0191148
0.000587683
0.0190287
0.000619675
0.0189382
0.00065264
0.0188434
0.000686676
0.0187442
0.000721893
0.0186405
0.000758409
0.0185322
0.000796355
0.0184194
0.000835868
0.018302
0.000877098
0.0181799
0.000920203
0.0180532
0.00096535
0.0179218
0.00101272
0.0177858
0.00106249
0.0176452
0.00111485
0.0175003
0.00116998
0.0173511
0.00122807
0.0171979
0.00128929
0.0170412
0.00135378
0.0168813
0.00142167
0.016719
0.00149306
0.0165551
0.00156802
0.0163905
0.00164655
0.0162266
0.00172867
0.016065
0.00181434
0.0159077
0.00190352
0.0157569
0.00199623
0.0156152
0.00209254
0.0154853
0.00219266
0.0153703
0.00229695
0.0152728
0.00240601
0.0151948
0.00252067
0.0151373
0.00264196
0.0150995
0.00277104
0.0150779
0.00290901
0.0150661
0.00305669
0.0150534
0.00321423
0.0150253
0.00338073
0.0149626
0.0035538
0.0148429
0.00372916
0.0146415
0.00390044
0.0143335
0.00405916
0.0138968
0.00419507
0.0133153
0.00429686
0.012582
0.00435333
0.0117017
0.00435487
0.0106923
0.00429523
0.00958395
0.00417318
0.00841502
0.00399372
0.00722692
0.00376851
0.00605856
0.00351525
0.00494353
0.00325632
0.00391076
0.00301702
0.00298711
0.00282382
0.00219585
0.00270043
0.00154651
0.00265803
0.00102236
0.00268235
0.000582628
0.00273156
0.000182025
0.00275526
-0.000209439
0.00272152
-0.000599671
0.00262785
-0.000985243
0.00249219
-0.00135822
0.0023291
-0.00171192
0.00214014
-0.00204106
0.00191487
-0.00234122
0.0016393
-0.002607
0.00130107
-0.00283302
0.000893683
-0.00301345
0.000412935
-0.00313869
-0.000145285
-0.00320028
-0.000779413
-0.0031874
-0.00148874
-0.00308928
-0.00226146
-0.00289643
-0.00307399
-0.00260533
-0.00388421
-0.0022277
-0.00463139
-0.00180516
-0.00525394
-0.0014039
-0.00574581
-0.000954098
-0.00616672
-0.0054538
0.0199984
1.54147e-05
0.0199936
4.61941e-05
0.0199856
7.67533e-05
0.0199741
0.000107013
0.019959
0.000136987
0.0199402
0.000166764
0.0199177
0.000196431
0.0198916
0.000226047
0.0198616
0.000255663
0.0198279
0.000285345
0.0197904
0.000315155
0.0197491
0.000345154
0.019704
0.000375396
0.019655
0.000405938
0.0196022
0.000436838
0.0195455
0.000468154
0.0194848
0.000499945
0.0194202
0.000532273
0.0193517
0.000565203
0.0192791
0.000598808
0.0192025
0.000633161
0.0191219
0.00066834
0.0190371
0.000704431
0.0189482
0.000741527
0.0188552
0.000779726
0.0187579
0.000819139
0.0186564
0.00085988
0.0185507
0.000902071
0.0184408
0.000945848
0.0183265
0.000991352
0.018208
0.00103874
0.0180852
0.00108815
0.0179581
0.00113977
0.0178268
0.00119376
0.0176914
0.00125028
0.0175519
0.00130952
0.0174083
0.00137161
0.0172609
0.00143673
0.0171097
0.00150499
0.0169549
0.00157649
0.0167966
0.00165129
0.0166352
0.00172943
0.0164709
0.00181087
0.016304
0.00189554
0.0161351
0.0019833
0.0159646
0.00207397
0.0157935
0.00216734
0.0156228
0.0022632
0.0154541
0.00236136
0.0152893
0.00246173
0.015131
0.00256434
0.0149823
0.00266944
0.0148467
0.00277756
0.0147282
0.00288954
0.0146306
0.00300658
0.0145571
0.00313017
0.0145093
0.00326204
0.0144861
0.00340389
0.0144828
0.00355711
0.0144897
0.00372231
0.0144914
0.00389875
0.0144668
0.00408371
0.0143899
0.00427199
0.0142312
0.00445556
0.0139609
0.00462364
0.0135524
0.00476336
0.0129867
0.00486097
0.0122561
0.00490372
0.0113677
0.00488216
0.0103437
0.00479247
0.00922076
0.00463822
0.00804589
0.00443119
0.00687212
0.00419079
0.00575362
0.00394232
0.00474025
0.0037138
0.0038686
0.00352968
0.00314981
0.00340115
0.0025633
0.00331807
0.0020667
0.00325186
0.0016173
0.00317091
0.00118895
0.0030562
0.00077594
0.0029052
0.00038289
0.00272215
1.55722e-05
0.00250746
-0.00032329
0.00225373
-0.000632394
0.00194841
-0.000911946
0.00158062
-0.00115981
0.00114155
-0.00137232
0.000625442
-0.00154488
2.72765e-05
-0.00167081
-0.000653483
-0.0017426
-0.00141694
-0.00175215
-0.00225191
-0.0016917
-0.00313445
-0.00155674
-0.00401916
-0.00134989
-0.00483825
-0.0010897
-0.00551412
-0.000832568
-0.00600294
-0.000627305
-0.00637198
-0.00608111
0.0199984
1.70572e-05
0.0199934
5.11067e-05
0.0199852
8.49977e-05
0.0199735
0.000118692
0.0199583
0.000152194
0.0199395
0.000185557
0.0199171
0.000218844
0.019891
0.000252112
0.0198613
0.000285413
0.0198278
0.000318804
0.0197906
0.000352341
0.0197497
0.000386084
0.019705
0.000420093
0.0196565
0.000454422
0.0196042
0.000489129
0.0195481
0.000524272
0.0194882
0.000559913
0.0194243
0.000596115
0.0193566
0.000632947
0.0192849
0.000670477
0.0192093
0.000708782
0.0191297
0.000747937
0.0190461
0.00078803
0.0189585
0.00082915
0.0188668
0.000871396
0.0187711
0.00091487
0.0186713
0.000959683
0.0185674
0.00100595
0.0184594
0.00105381
0.0183474
0.00110338
0.0182313
0.0011548
0.0181113
0.00120822
0.0179872
0.00126379
0.0178594
0.00132165
0.0177277
0.00138197
0.0175923
0.00144489
0.0174534
0.00151055
0.017311
0.00157909
0.0171654
0.00165062
0.0170166
0.00172524
0.0168649
0.001803
0.0167104
0.00188394
0.0165532
0.00196805
0.0163935
0.00205527
0.0162313
0.00214549
0.0160667
0.00223856
0.0158998
0.00233428
0.0157306
0.00243239
0.0155593
0.00253262
0.0153864
0.00263469
0.0152124
0.00273834
0.0150384
0.00284336
0.0148664
0.00294965
0.0146986
0.00305729
0.0145386
0.00316659
0.0143906
0.00327818
0.0142596
0.00339307
0.0141507
0.0035127
0.0140689
0.00363891
0.0140174
0.00377389
0.0139963
0.00391984
0.0140014
0.0040786
0.0140224
0.00425102
0.0140418
0.0044361
0.0140352
0.00463025
0.013972
0.0048266
0.0138181
0.00501485
0.0135401
0.00518166
0.0131103
0.00531199
0.0125117
0.00539109
0.0117429
0.00540698
0.0108212
0.00535293
0.0097825
0.00522949
0.00867925
0.00504558
0.00757447
0.00481859
0.00653182
0.00457232
0.00560134
0.00433163
0.00480558
0.00411382
0.00413568
0.00392177
0.00356207
0.00374453
0.00305283
0.00356544
0.00258716
0.00337087
0.00215698
0.00315233
0.0017611
0.00290334
0.0013991
0.00261574
0.00106871
0.0022788
0.000767808
0.00188152
0.000495159
0.0014142
0.000251407
0.000869194
3.78019e-05
0.000240882
-0.000142006
-0.000473675
-0.000284799
-0.00127415
-0.000386285
-0.00215043
-0.000443253
-0.00307748
-0.000454696
-0.00400772
-0.000423073
-0.00486987
-0.000356027
-0.00558117
-0.000281581
-0.00607739
-0.000264737
-0.00638882
-0.00634585
0.0199983
1.87227e-05
0.0199933
5.60945e-05
0.019985
9.33374e-05
0.0199733
0.000130446
0.019958
0.000167427
0.0199393
0.000204317
0.0199169
0.000241167
0.019891
0.000278028
0.0198615
0.000314951
0.0198283
0.000351986
0.0197915
0.000389189
0.0197509
0.000426618
0.0197067
0.000464331
0.0196587
0.000502383
0.019607
0.00054083
0.0195516
0.000579735
0.0194923
0.000619158
0.0194293
0.000659164
0.0193624
0.000699819
0.0192917
0.000741197
0.0192171
0.000783368
0.0191386
0.000826413
0.0190562
0.000870416
0.0189699
0.000915464
0.0188797
0.00096165
0.0187854
0.00100908
0.0186873
0.00105785
0.0185852
0.00110807
0.0184791
0.00115987
0.0183691
0.00121337
0.0182552
0.00126868
0.0181375
0.00132595
0.018016
0.0013853
0.0178908
0.00144687
0.0177619
0.0015108
0.0176296
0.00157721
0.017494
0.00164622
0.0173551
0.00171795
0.0172132
0.0017925
0.0170685
0.00186994
0.0169212
0.00195033
0.0167714
0.0020337
0.0166194
0.00212005
0.0164653
0.00220935
0.0163093
0.00230153
0.0161514
0.00239647
0.0159916
0.00249405
0.0158299
0.00259408
0.0156662
0.00269636
0.0155002
0.00280064
0.0153319
0.00290667
0.0151611
0.00301416
0.0149879
0.00312284
0.0148128
0.00323244
0.0146366
0.00334274
0.0144612
0.00345361
0.0142891
0.00356512
0.0141243
0.00367757
0.0139715
0.00379165
0.0138369
0.00390854
0.0137267
0.00403001
0.0136469
0.00415837
0.0136016
0.00429637
0.0135909
0.00444676
0.0136094
0.00461172
0.0136441
0.00479189
0.0136736
0.0049854
0.0136684
0.00518686
0.0135935
0.00538689
0.0134123
0.00557228
0.0130923
0.00572701
0.0126111
0.00583412
0.0119623
0.00587825
0.0111595
0.00584836
0.0102375
0.0057406
0.00924932
0.00556053
0.0082574
0.00532355
0.00731933
0.00505189
0.00647325
0.00476784
0.00573146
0.00448632
0.00508555
0.00421135
0.00451851
0.00393791
0.0040146
0.00365624
0.00356288
0.00335506
0.00315595
0.00302268
0.00278769
0.00264705
0.00245272
0.00221649
0.00214671
0.0017202
0.00186688
0.00114902
0.00161179
0.00049597
0.00138057
-0.000242454
0.00117201
-0.00106559
0.000984839
-0.00196326
0.000816915
-0.00290956
0.000664631
-0.00385544
0.000522901
-0.00472814
0.000386418
-0.00544469
0.000249194
-0.00594016
7.94097e-05
-0.00621904
-0.00626644
0.0199983
2.03973e-05
0.0199933
6.11072e-05
0.0199849
0.000101708
0.0199732
0.00014221
0.019958
0.000182631
0.0199393
0.000222999
0.0199171
0.000263358
0.0198914
0.000303756
0.0198621
0.000344239
0.0198292
0.000384857
0.0197927
0.000425664
0.0197526
0.000466716
0.0197089
0.000508069
0.0196615
0.000549778
0.0196104
0.000591902
0.0195557
0.000634501
0.0194972
0.000677636
0.019435
0.000721372
0.019369
0.000765778
0.0192993
0.00081092
0.0192258
0.000856877
0.0191485
0.000903723
0.0190674
0.000951541
0.0189824
0.00100042
0.0188936
0.00105044
0.018801
0.00110171
0.0187045
0.00115433
0.0186042
0.00120839
0.0185
0.00126401
0.0183921
0.0013213
0.0182804
0.00138038
0.018165
0.00144137
0.0180459
0.00150438
0.0179232
0.00156953
0.0177971
0.00163694
0.0176676
0.00170673
0.0175348
0.00177899
0.017399
0.00185381
0.0172602
0.00193129
0.0171186
0.00201148
0.0169745
0.00209442
0.0168281
0.00218014
0.0166795
0.00226863
0.016529
0.00235987
0.0163767
0.0024538
0.0162229
0.00255034
0.0160675
0.00264939
0.0159108
0.00275082
0.0157526
0.00285448
0.0155931
0.00296022
0.0154319
0.00306785
0.0152689
0.00317717
0.0151037
0.00328797
0.0149362
0.00339998
0.014766
0.00351291
0.0145932
0.00362646
0.014418
0.00374028
0.0142415
0.00385409
0.0140655
0.00396767
0.013893
0.00408103
0.0137285
0.00419455
0.0135777
0.0043091
0.0134478
0.00442626
0.0133463
0.00454835
0.0132796
0.00467842
0.0132515
0.00481994
0.0132608
0.00497612
0.0132987
0.00514898
0.0133475
0.00533809
0.0133805
0.00553926
0.0133639
0.00574363
0.0132606
0.00593746
0.0130359
0.00610287
0.0126645
0.00621981
0.012136
0.00626904
0.0114606
0.006236
0.0106693
0.00611478
0.00981053
0.0059107
0.00893865
0.00563972
0.00810143
0.00532355
0.00733019
0.00498258
0.00663807
0.00463003
0.00602458
0.00426972
0.00548218
0.00389746
0.00500099
0.00350387
0.00457104
0.003077
0.00418317
0.00260435
0.00382935
0.00207402
0.00350284
0.00147554
0.00319806
0.000800756
0.00291001
4.55952e-05
0.00263254
-0.00078812
0.00235866
-0.00168938
0.00207934
-0.00263024
0.00178511
-0.0035612
0.00146829
-0.00441133
0.00112599
-0.00510238
0.000760018
-0.00557419
0.000370444
-0.00582947
-0.00589599
0.0199983
2.20705e-05
0.0199933
6.61169e-05
0.019985
0.000110065
0.0199732
0.00015394
0.0199581
0.000197762
0.0199395
0.000241562
0.0199175
0.000285378
0.019892
0.000329255
0.019863
0.00037324
0.0198305
0.000417383
0.0197944
0.000461734
0.0197548
0.000506346
0.0197116
0.000551274
0.0196648
0.000596577
0.0196144
0.000642309
0.0195604
0.000688531
0.0195027
0.000735307
0.0194414
0.000782701
0.0193763
0.000830779
0.0193077
0.000879611
0.0192353
0.000929267
0.0191592
0.000979829
0.0190793
0.00103137
0.0189958
0.00108398
0.0189085
0.00113775
0.0188174
0.00119275
0.0187226
0.0012491
0.0186242
0.00130689
0.0185219
0.00136621
0.0184161
0.00142718
0.0183065
0.00148991
0.0181934
0.00155449
0.0180768
0.00162103
0.0179567
0.00168965
0.0178332
0.00176044
0.0177064
0.0018335
0.0175765
0.00190892
0.0174435
0.00198677
0.0173077
0.00206712
0.0171691
0.00215003
0.017028
0.00223552
0.0168845
0.00232361
0.0167389
0.00241429
0.0165912
0.00250752
0.0164418
0.00260326
0.0162907
0.00270143
0.0161381
0.00280194
0.0159842
0.00290469
0.0158292
0.00300955
0.015673
0.00311639
0.0155158
0.00322509
0.0153574
0.0033355
0.0151979
0.00344747
0.0150371
0.00356083
0.0148746
0.00367538
0.0147102
0.00379088
0.0145434
0.00390702
0.0143741
0.00402344
0.014202
0.00413972
0.0140276
0.00425541
0.0138521
0.0043701
0.0136776
0.00448356
0.0135081
0.00459584
0.0133488
0.00470757
0.0132072
0.0048201
0.0130914
0.0049357
0.0130099
0.00505761
0.0129692
0.0051897
0.0129714
0.00533591
0.0130116
0.00549905
0.0130759
0.00567934
0.0131405
0.00587279
0.0131735
0.00606988
0.0131381
0.00625524
0.0129985
0.00640858
0.0127272
0.00650728
0.0123116
0.00653047
0.0117585
0.00646373
0.0110953
0.00630299
0.0103632
0.00605562
0.00960819
0.00573758
0.00887036
0.00536786
0.00817755
0.00496254
0.00754407
0.00453094
0.00697317
0.00407477
0.00646076
0.00358941
0.00599883
0.00306628
0.00557776
0.00249509
0.00518754
0.00186575
0.0048182
0.0011701
0.00445983
0.00040396
0.00410059
-0.000428878
0.00372811
-0.0013169
0.00332678
-0.00222891
0.00288239
-0.00311681
0.00238606
-0.00391499
0.00183817
-0.00455449
0.00124858
-0.0049846
0.000629612
-0.0052105
-0.00526638
0.0199983
2.37354e-05
0.0199933
7.11056e-05
0.019985
0.000118379
0.0199734
0.000165594
0.0199584
0.00021278
0.01994
0.000259966
0.0199181
0.000307191
0.0198929
0.000354494
0.0198642
0.000401925
0.0198321
0.000449532
0.0197964
0.000497364
0.0197573
0.000545475
0.0197147
0.000593915
0.0196685
0.000642743
0.0196188
0.000692017
0.0195655
0.000741797
0.0195087
0.000792142
0.0194483
0.00084312
0.0193843
0.000894795
0.0193166
0.000947235
0.0192454
0.00100051
0.0191705
0.0010547
0.019092
0.00110988
0.0190099
0.00116613
0.0189241
0.00122353
0.0188347
0.00128218
0.0187416
0.00134216
0.0186449
0.00140356
0.0185447
0.00146648
0.0184408
0.00153102
0.0183335
0.00159727
0.0182226
0.00166534
0.0181083
0.00173531
0.0179907
0.00180728
0.0178698
0.00188135
0.0177457
0.00195759
0.0176185
0.00203609
0.0174884
0.0021169
0.0173554
0.00220008
0.0172198
0.00228568
0.0170816
0.00237371
0.016941
0.00246419
0.0167982
0.00255709
0.0166533
0.0026524
0.0165066
0.00275004
0.016358
0.00284996
0.0162079
0.00295207
0.0160563
0.00305626
0.0159035
0.00316243
0.0157494
0.00327044
0.0155943
0.00338019
0.0154383
0.00349153
0.0152814
0.00360435
0.0151237
0.0037185
0.0149653
0.00383385
0.0148059
0.00395023
0.0146455
0.00406744
0.0144837
0.00418523
0.0143202
0.00430329
0.0141544
0.0044212
0.013986
0.00453846
0.0138151
0.00465452
0.0136421
0.00476879
0.0134689
0.00488081
0.0132985
0.00499042
0.0131363
0.00509794
0.0129894
0.00520453
0.0128668
0.0053123
0.0127783
0.00542444
0.0127324
0.00554493
0.012734
0.00567776
0.012781
0.00582572
0.0128623
0.00598857
0.0129563
0.00616132
0.0130319
0.00633293
0.0130529
0.00648626
0.0129837
0.00659976
0.0127965
0.00665084
0.012479
0.00662053
0.012037
0.00649764
0.0114936
0.00628095
0.0108832
0.00597827
0.0102428
0.00560293
0.00960471
0.00516904
0.00899183
0.00468764
0.00841663
0.00416462
0.00788233
0.00360058
0.00738533
0.00299209
0.00691729
0.0023338
0.00646668
0.0016207
0.00601955
0.000851096
0.00555879
3.18843e-05
0.00506807
-0.000826179
0.00452817
-0.00168902
0.00392223
-0.00251087
0.0032426
-0.00323536
0.00249394
-0.00380583
0.00169254
-0.0041832
0.000856274
-0.00437423
-0.00441011
0.0199983
2.53874e-05
0.0199934
7.60535e-05
0.0199852
0.000126626
0.0199736
0.000177149
0.0199587
0.000227657
0.0199405
0.000278183
0.0199189
0.000328764
0.019894
0.000379441
0.0198656
0.000430262
0.0198339
0.000481275
0.0197987
0.000532527
0.0197601
0.000584071
0.0197181
0.00063596
0.0196726
0.000688251
0.0196236
0.000740999
0.0195711
0.000794266
0.0195152
0.00084811
0.0194557
0.000902598
0.0193927
0.000957793
0.0193262
0.00101376
0.0192561
0.00107058
0.0191825
0.00112831
0.0191053
0.00118704
0.0190246
0.00124684
0.0189404
0.00130779
0.0188526
0.00136998
0.0187612
0.00143349
0.0186664
0.00149841
0.018568
0.00156483
0.0184662
0.00163283
0.018361
0.00170251
0.0182524
0.00177396
0.0181404
0.00184726
0.0180252
0.00192249
0.0179068
0.00199974
0.0177853
0.00207909
0.0176608
0.00216058
0.0175334
0.00224429
0.0174032
0.00233026
0.0172704
0.00241852
0.017135
0.00250908
0.0169973
0.00260195
0.0168573
0.00269711
0.0167151
0.00279454
0.016571
0.00289416
0.016425
0.00299593
0.0162773
0.00309976
0.0161281
0.00320554
0.0159773
0.00331317
0.0158252
0.00342253
0.0156719
0.00353348
0.0155176
0.00364591
0.0153622
0.00375967
0.0152061
0.00387463
0.0150493
0.00399064
0.014892
0.00410757
0.0147341
0.00422526
0.0145759
0.00434353
0.014417
0.00446216
0.0142573
0.00458088
0.0140964
0.00469934
0.0139339
0.00481708
0.0137691
0.00493354
0.0136019
0.00504803
0.0134325
0.00515981
0.0132622
0.00526821
0.013094
0.00537278
0.0129327
0.00547355
0.0127858
0.00557134
0.0126628
0.00566794
0.0125744
0.0057662
0.0125304
0.00586967
0.0125372
0.00598178
0.0125942
0.00610438
0.0126911
0.006236
0.0128072
0.00637016
0.0129125
0.00649448
0.012972
0.00659131
0.0129525
0.00664001
0.0128295
0.00662068
0.0125923
0.00651809
0.0122462
0.00632441
0.0118094
0.00603975
0.0113079
0.00567056
0.0107689
0.00522662
0.0102156
0.00471786
0.00966402
0.0041522
0.00912151
0.0035346
0.00858763
0.00286768
0.00805492
0.00215341
0.00751025
0.00139576
0.0069379
0.000604235
0.00631176
-0.000200038
0.0056212
-0.000998457
0.00484969
-0.00173936
0.00399275
-0.00237843
0.00305944
-0.00287252
0.00207032
-0.00319409
0.00104554
-0.00334945
-0.00336456
0.0199984
2.70227e-05
0.0199935
8.09524e-05
0.0199853
0.000134788
0.0199739
0.000188581
0.0199592
0.000242368
0.0199412
0.000296186
0.0199199
0.000350073
0.0198952
0.000404071
0.0198673
0.000458225
0.0198359
0.000512583
0.0198013
0.000567194
0.0197632
0.000622111
0.0197218
0.000677384
0.019677
0.00073307
0.0196288
0.000789225
0.0195771
0.00084591
0.0195221
0.000903185
0.0194635
0.00096111
0.0194016
0.00101975
0.0193362
0.00107917
0.0192673
0.00113945
0.019195
0.00120064
0.0191192
0.00126283
0.0190399
0.0013261
0.0189572
0.00139051
0.018871
0.00145615
0.0187814
0.0015231
0.0186884
0.00159144
0.018592
0.00166126
0.0184922
0.00173263
0.018389
0.00180564
0.0182826
0.00188038
0.018173
0.00195692
0.0180601
0.00203533
0.0179442
0.00211569
0.0178252
0.00219806
0.0177033
0.0022825
0.0175785
0.00236905
0.017451
0.00245776
0.0173209
0.00254865
0.0171883
0.00264174
0.0170532
0.00273701
0.0169159
0.00283445