/*--------------------------------*- C++ -*----------------------------------*\
| =========                 |                                                 |
| \\      /  F ield         | OpenFOAM: The Open Source CFD Toolbox           |
|  \\    /   O peration     | Version:  4.1                                   |
|   \\  /    A nd           | Web:      www.OpenFOAM.org                      |
|    \\/     M anipulation  |                                                 |
\*---------------------------------------------------------------------------*/
FoamFile
{
    version     2.0;
    format      ascii;
    class       volVectorField;
    location    "0.41";
    object      U;
}
// * * * * * * * * * * * * * * * * * * * * * * * * * * * * * * * * * * * * * //

dimensions      [0 1 -1 0 0 0 0];

internalField   nonuniform List<vector> 
43750
(
(9.98939 0.0211295 0)
(9.96671 0.0356073 0)
(9.93656 0.0421908 0)
(9.89811 0.0468129 0)
(9.85369 0.0510394 0)
(9.80492 0.0550494 0)
(9.75205 0.0588114 0)
(9.69497 0.0623574 0)
(9.63369 0.0657445 0)
(9.56834 0.0690083 0)
(9.499 0.0721656 0)
(9.42567 0.0752304 0)
(9.34834 0.0782178 0)
(9.26696 0.0811441 0)
(9.18147 0.0840254 0)
(9.09181 0.0868764 0)
(8.99787 0.0897093 0)
(8.89955 0.0925374 0)
(8.79672 0.0953762 0)
(8.6892 0.0982421 0)
(8.57683 0.101152 0)
(8.45941 0.104123 0)
(8.33669 0.107171 0)
(8.20842 0.110312 0)
(8.07432 0.113567 0)
(7.93405 0.116955 0)
(7.78726 0.120498 0)
(7.63354 0.124216 0)
(7.47245 0.12813 0)
(7.3035 0.132262 0)
(7.12616 0.136628 0)
(6.93986 0.141246 0)
(6.74396 0.146124 0)
(6.53781 0.151261 0)
(6.32073 0.156645 0)
(6.09201 0.162244 0)
(5.85098 0.167999 0)
(5.59699 0.173814 0)
(5.32949 0.179552 0)
(5.0481 0.185018 0)
(4.75263 0.189959 0)
(4.44321 0.194054 0)
(4.12036 0.196917 0)
(3.78511 0.198105 0)
(3.43905 0.197148 0)
(3.08446 0.193583 0)
(2.72431 0.187018 0)
(2.36225 0.177207 0)
(2.0026 0.16412 0)
(1.65011 0.148037 0)
(1.30978 0.129593 0)
(0.986518 0.109791 0)
(0.684717 0.0899655 0)
(0.407826 0.071647 0)
(0.157869 0.0563723 0)
(-0.0650453 0.045348 0)
(-0.262453 0.0390453 0)
(-0.43783 0.0371475 0)
(-0.594623 0.0384895 0)
(-0.735886 0.0407255 0)
(-0.863937 0.041722 0)
(-0.980508 0.0407458 0)
(-1.08704 0.0384592 0)
(-1.18499 0.0360994 0)
(-1.27591 0.0346688 0)
(-1.36168 0.0344654 0)
(-1.44388 0.0347569 0)
(-1.5231 0.0330918 0)
(-1.59647 0.0251606 0)
(-1.65571 0.00633535 0)
(-1.68861 -0.0239892 0)
(-1.68224 -0.0579192 0)
(-1.63862 -0.0838247 0)
(-1.58215 -0.0953261 0)
(-1.53808 -0.0874496 0)
(-1.53188 -0.0528226 0)
(-1.58911 0.00667525 0)
(-1.72739 0.0745943 0)
(-1.94752 0.137026 0)
(-2.23451 0.185244 0)
(-2.56629 0.215818 0)
(-2.92017 0.228639 0)
(-3.27546 0.225267 0)
(-3.61376 0.207676 0)
(-3.91914 0.177653 0)
(-4.17839 0.137251 0)
(-4.37971 0.0890251 0)
(-4.51142 0.0365081 0)
(-4.56164 -0.0162625 0)
(-4.52286 -0.0665189 0)
(-4.41805 -0.11335 0)
(-4.23191 -0.164114 0)
(-3.95927 -0.220049 0)
(-3.58996 -0.28157 0)
(-3.11111 -0.347484 0)
(-2.51201 -0.413565 0)
(-1.80407 -0.463393 0)
(-1.04419 -0.449062 0)
(-0.336744 -0.287335 0)
(0.111338 0.0383698 0)
(10.0046 0.00713132 0)
(10.0195 0.0175055 0)
(10.0355 0.0244889 0)
(10.0503 0.0302927 0)
(10.0638 0.0359136 0)
(10.0767 0.0413542 0)
(10.0887 0.0465297 0)
(10.0996 0.0515266 0)
(10.1091 0.0564707 0)
(10.1171 0.0614351 0)
(10.1236 0.0664539 0)
(10.1284 0.0715551 0)
(10.1313 0.076769 0)
(10.1324 0.0821237 0)
(10.1313 0.0876436 0)
(10.1281 0.0933532 0)
(10.1225 0.0992781 0)
(10.1145 0.105445 0)
(10.1038 0.111883 0)
(10.0903 0.11862 0)
(10.0739 0.12569 0)
(10.0544 0.133129 0)
(10.0314 0.140978 0)
(10.0049 0.149282 0)
(9.9746 0.15809 0)
(9.94012 0.167458 0)
(9.90119 0.177447 0)
(9.85743 0.188124 0)
(9.80842 0.199564 0)
(9.75368 0.211846 0)
(9.69266 0.225059 0)
(9.62471 0.239296 0)
(9.54912 0.254651 0)
(9.46504 0.271217 0)
(9.3715 0.289083 0)
(9.26739 0.308325 0)
(9.15145 0.328992 0)
(9.02225 0.351095 0)
(8.87819 0.374593 0)
(8.71748 0.399364 0)
(8.53818 0.425188 0)
(8.33825 0.451718 0)
(8.11555 0.47846 0)
(7.86797 0.504746 0)
(7.59356 0.529731 0)
(7.29062 0.552394 0)
(6.95794 0.571569 0)
(6.59497 0.586001 0)
(6.20199 0.594427 0)
(5.78036 0.595688 0)
(5.33263 0.588867 0)
(4.86268 0.573427 0)
(4.37575 0.549347 0)
(3.87846 0.517231 0)
(3.37864 0.478353 0)
(2.88501 0.434618 0)
(2.40658 0.388586 0)
(1.95218 0.343284 0)
(1.52889 0.301589 0)
(1.14098 0.265621 0)
(0.789572 0.2363 0)
(0.47303 0.213241 0)
(0.187985 0.195111 0)
(-0.0693769 0.180326 0)
(-0.302426 0.167486 0)
(-0.514112 0.156207 0)
(-0.706394 0.146214 0)
(-0.880178 0.135031 0)
(-1.0351 0.117821 0)
(-1.17052 0.0897763 0)
(-1.28906 0.0515093 0)
(-1.40253 0.0139736 0)
(-1.52508 -0.00591368 0)
(-1.6653 0.00458247 0)
(-1.83816 0.0507581 0)
(-2.05608 0.131386 0)
(-2.31891 0.234354 0)
(-2.61264 0.337375 0)
(-2.91898 0.420733 0)
(-3.21815 0.473442 0)
(-3.49208 0.493579 0)
(-3.72786 0.485057 0)
(-3.91902 0.454035 0)
(-4.06485 0.40627 0)
(-4.16871 0.345783 0)
(-4.23591 0.274864 0)
(-4.27261 0.194454 0)
(-4.28495 0.105262 0)
(-4.27773 0.00884366 0)
(-4.24793 -0.0932209 0)
(-4.15666 -0.202763 0)
(-4.00317 -0.323819 0)
(-3.77849 -0.458013 0)
(-3.47801 -0.606541 0)
(-3.09665 -0.769859 0)
(-2.62764 -0.944604 0)
(-2.06477 -1.10492 0)
(-1.41586 -1.1561 0)
(-0.733091 -0.899892 0)
(-0.151197 -0.200173 0)
(10 0.00527214 0)
(9.99983 0.0142146 0)
(9.9986 0.0212302 0)
(9.99533 0.0273209 0)
(9.98987 0.0332108 0)
(9.98258 0.0390306 0)
(9.97366 0.0447627 0)
(9.96314 0.0504703 0)
(9.951 0.0562398 0)
(9.9373 0.0621199 0)
(9.92213 0.0681321 0)
(9.90553 0.0742928 0)
(9.88757 0.0806223 0)
(9.86829 0.0871412 0)
(9.84774 0.093869 0)
(9.82596 0.100828 0)
(9.80302 0.108045 0)
(9.77896 0.115547 0)
(9.75382 0.123365 0)
(9.72764 0.131535 0)
(9.70049 0.140094 0)
(9.67239 0.149089 0)
(9.6434 0.158574 0)
(9.61355 0.16861 0)
(9.5829 0.179263 0)
(9.55148 0.190611 0)
(9.51933 0.202744 0)
(9.48649 0.215761 0)
(9.45298 0.229777 0)
(9.41883 0.244919 0)
(9.38404 0.261333 0)
(9.34862 0.279179 0)
(9.31251 0.298635 0)
(9.27566 0.319893 0)
(9.23792 0.343158 0)
(9.19912 0.368645 0)
(9.15895 0.396566 0)
(9.11698 0.427122 0)
(9.07262 0.460484 0)
(9.02503 0.496773 0)
(8.97309 0.536029 0)
(8.91532 0.578177 0)
(8.84984 0.622988 0)
(8.77424 0.670041 0)
(8.68563 0.718684 0)
(8.58053 0.768008 0)
(8.455 0.816836 0)
(8.30466 0.863737 0)
(8.12488 0.907069 0)
(7.91102 0.945053 0)
(7.65875 0.975876 0)
(7.36441 0.997814 0)
(7.02541 1.00935 0)
(6.64066 1.00929 0)
(6.21101 0.996878 0)
(5.73967 0.971896 0)
(5.23242 0.934719 0)
(4.69777 0.886362 0)
(4.14666 0.828625 0)
(3.59186 0.764141 0)
(3.04683 0.696269 0)
(2.52418 0.628756 0)
(2.03405 0.565202 0)
(1.58295 0.508413 0)
(1.17341 0.459771 0)
(0.804794 0.418937 0)
(0.474118 0.383656 0)
(0.177138 0.349985 0)
(-0.0911709 0.313156 0)
(-0.336801 0.269855 0)
(-0.566382 0.223943 0)
(-0.786087 0.188178 0)
(-1.00138 0.179143 0)
(-1.21858 0.211393 0)
(-1.44699 0.289062 0)
(-1.69433 0.399477 0)
(-1.95941 0.51753 0)
(-2.22801 0.617715 0)
(-2.48027 0.681587 0)
(-2.70199 0.702423 0)
(-2.88907 0.684152 0)
(-3.0459 0.63635 0)
(-3.18132 0.569158 0)
(-3.3044 0.490353 0)
(-3.42085 0.40446 0)
(-3.53098 0.31276 0)
(-3.62899 0.213899 0)
(-3.70339 0.104576 0)
(-3.74022 -0.0196042 0)
(-3.73114 -0.162841 0)
(-3.66815 -0.327135 0)
(-3.54417 -0.508625 0)
(-3.35564 -0.705434 0)
(-3.10213 -0.91579 0)
(-2.78828 -1.13966 0)
(-2.42148 -1.37868 0)
(-2.00046 -1.622 0)
(-1.504 -1.79021 0)
(-0.919158 -1.62904 0)
(-0.303072 -0.719631 0)
(9.99988 0.00529475 0)
(9.99896 0.0155701 0)
(9.99683 0.0251466 0)
(9.99287 0.0341502 0)
(9.98675 0.0428847 0)
(9.97854 0.0514835 0)
(9.96833 0.059954 0)
(9.95613 0.0683107 0)
(9.94189 0.0765971 0)
(9.9256 0.0848557 0)
(9.90727 0.093116 0)
(9.88692 0.101401 0)
(9.86456 0.109733 0)
(9.84017 0.118136 0)
(9.81377 0.126636 0)
(9.78536 0.135258 0)
(9.75495 0.144028 0)
(9.72254 0.152975 0)
(9.68815 0.162128 0)
(9.65178 0.171521 0)
(9.61346 0.18119 0)
(9.5732 0.191176 0)
(9.53104 0.201526 0)
(9.48702 0.21229 0)
(9.44118 0.223528 0)
(9.39358 0.235305 0)
(9.3443 0.247697 0)
(9.29344 0.260789 0)
(9.24109 0.274677 0)
(9.18742 0.289475 0)
(9.13257 0.305309 0)
(9.07676 0.322322 0)
(9.02022 0.340678 0)
(8.96325 0.36056 0)
(8.90618 0.382176 0)
(8.84941 0.405757 0)
(8.79338 0.431553 0)
(8.73858 0.459839 0)
(8.68555 0.490904 0)
(8.63483 0.525048 0)
(8.58697 0.562567 0)
(8.54242 0.603736 0)
(8.50147 0.648785 0)
(8.46418 0.697863 0)
(8.43019 0.751005 0)
(8.3986 0.80808 0)
(8.36783 0.868746 0)
(8.3354 0.932401 0)
(8.29785 0.998146 0)
(8.25068 1.06477 0)
(8.18836 1.13073 0)
(8.10444 1.19421 0)
(7.99182 1.2531 0)
(7.84312 1.30511 0)
(7.65108 1.34781 0)
(7.40923 1.37872 0)
(7.11243 1.39546 0)
(6.75763 1.39589 0)
(6.34457 1.37846 0)
(5.87648 1.34248 0)
(5.36054 1.28852 0)
(4.80798 1.21856 0)
(4.2335 1.13606 0)
(3.65403 1.04575 0)
(3.08672 0.952951 0)
(2.54666 0.862725 0)
(2.04463 0.778669 0)
(1.58571 0.701886 0)
(1.16903 0.630956 0)
(0.788907 0.563691 0)
(0.43783 0.501198 0)
(0.109719 0.451363 0)
(-0.196814 0.42857 0)
(-0.480195 0.450101 0)
(-0.740549 0.524235 0)
(-0.982592 0.637606 0)
(-1.21323 0.757458 0)
(-1.43417 0.849543 0)
(-1.64067 0.893935 0)
(-1.82868 0.88995 0)
(-1.9999 0.849825 0)
(-2.16066 0.788444 0)
(-2.3178 0.716266 0)
(-2.47481 0.637005 0)
(-2.62994 0.548901 0)
(-2.77656 0.447222 0)
(-2.9051 0.326921 0)
(-3.00572 0.184051 0)
(-3.07042 0.0152735 0)
(-3.09183 -0.181649 0)
(-3.06347 -0.402634 0)
(-2.98098 -0.646015 0)
(-2.8383 -0.906881 0)
(-2.63313 -1.17799 0)
(-2.37028 -1.45156 0)
(-2.06454 -1.7239 0)
(-1.73305 -1.99736 0)
(-1.37024 -2.24695 0)
(-0.930491 -2.26258 0)
(-0.370021 -1.35423 0)
(9.99985 0.00585358 0)
(9.99863 0.0174476 0)
(9.99599 0.0286399 0)
(9.99156 0.0393477 0)
(9.98517 0.0497179 0)
(9.97683 0.0599003 0)
(9.96656 0.0699598 0)
(9.95438 0.0799307 0)
(9.94025 0.0898604 0)
(9.92415 0.0998012 0)
(9.90609 0.109795 0)
(9.88605 0.119876 0)
(9.86404 0.13007 0)
(9.84002 0.140405 0)
(9.814 0.150906 0)
(9.78594 0.161598 0)
(9.75584 0.172508 0)
(9.72365 0.183662 0)
(9.68937 0.195088 0)
(9.65297 0.206815 0)
(9.61442 0.218875 0)
(9.57368 0.231302 0)
(9.53073 0.244136 0)
(9.48555 0.25742 0)
(9.43811 0.271202 0)
(9.38839 0.285534 0)
(9.33637 0.300473 0)
(9.28204 0.316086 0)
(9.2254 0.332444 0)
(9.16646 0.349626 0)
(9.10527 0.367723 0)
(9.04186 0.386831 0)
(8.97632 0.407056 0)
(8.90878 0.428516 0)
(8.8394 0.451337 0)
(8.76839 0.475657 0)
(8.69606 0.501623 0)
(8.62276 0.529391 0)
(8.54896 0.55913 0)
(8.47524 0.591017 0)
(8.40228 0.62524 0)
(8.3309 0.661998 0)
(8.26203 0.701505 0)
(8.19672 0.743985 0)
(8.13607 0.789674 0)
(8.08118 0.838815 0)
(8.03303 0.891648 0)
(7.99237 0.948385 0)
(7.95951 1.00918 0)
(7.93407 1.07409 0)
(7.91481 1.14298 0)
(7.89933 1.21549 0)
(7.8839 1.29089 0)
(7.86333 1.36806 0)
(7.83092 1.44531 0)
(7.77862 1.52039 0)
(7.69724 1.59043 0)
(7.57694 1.65198 0)
(7.40791 1.70117 0)
(7.1812 1.734 0)
(6.88987 1.74672 0)
(6.53018 1.73631 0)
(6.10274 1.70111 0)
(5.61342 1.64124 0)
(5.0736 1.55897 0)
(4.49959 1.45869 0)
(3.91087 1.34645 0)
(3.32726 1.22898 0)
(2.76543 1.11255 0)
(2.23606 1.00231 0)
(1.74337 0.903013 0)
(1.28765 0.820873 0)
(0.86966 0.765623 0)
(0.494022 0.75028 0)
(0.167604 0.785258 0)
(-0.107144 0.866108 0)
(-0.338572 0.965872 0)
(-0.542485 1.04694 0)
(-0.732508 1.08324 0)
(-0.916332 1.07123 0)
(-1.09729 1.02466 0)
(-1.27674 0.959912 0)
(-1.4549 0.886654 0)
(-1.63028 0.805154 0)
(-1.79907 0.709689 0)
(-1.95567 0.592958 0)
(-2.09392 0.449261 0)
(-2.2084 0.275462 0)
(-2.2944 0.0703087 0)
(-2.34663 -0.165848 0)
(-2.35897 -0.433594 0)
(-2.326 -0.730439 0)
(-2.24145 -1.05047 0)
(-2.10031 -1.38281 0)
(-1.9021 -1.71128 0)
(-1.65568 -2.01826 0)
(-1.38218 -2.29772 0)
(-1.10639 -2.56368 0)
(-0.808853 -2.72672 0)
(-0.353455 -1.99177 0)
(9.99983 0.00655093 0)
(9.99844 0.0195707 0)
(9.9955 0.0323607 0)
(9.99078 0.0448598 0)
(9.98424 0.057136 0)
(9.97583 0.0692889 0)
(9.96557 0.0813736 0)
(9.95342 0.0934161 0)
(9.93936 0.105446 0)
(9.92339 0.1175 0)
(9.90549 0.129609 0)
(9.88565 0.1418 0)
(9.86388 0.154098 0)
(9.84015 0.166527 0)
(9.81446 0.179113 0)
(9.78679 0.191884 0)
(9.75714 0.204865 0)
(9.72548 0.218086 0)
(9.69179 0.231578 0)
(9.65606 0.245375 0)
(9.61827 0.259513 0)
(9.57839 0.274032 0)
(9.5364 0.288974 0)
(9.49226 0.304387 0)
(9.44596 0.32032 0)
(9.39745 0.336829 0)
(9.34673 0.353974 0)
(9.29375 0.371821 0)
(9.2385 0.390442 0)
(9.18094 0.409913 0)
(9.12107 0.430316 0)
(9.05887 0.451738 0)
(8.99433 0.474271 0)
(8.92748 0.498011 0)
(8.85833 0.523056 0)
(8.78694 0.549505 0)
(8.71338 0.577456 0)
(8.63777 0.607002 0)
(8.56025 0.63823 0)
(8.48104 0.671216 0)
(8.40042 0.706027 0)
(8.31873 0.742714 0)
(8.23645 0.781321 0)
(8.15416 0.821884 0)
(8.07257 0.864442 0)
(7.99257 0.909053 0)
(7.91521 0.955811 0)
(7.84172 1.00487 0)
(7.77347 1.05647 0)
(7.71189 1.11094 0)
(7.65844 1.16872 0)
(7.61434 1.23032 0)
(7.58044 1.29626 0)
(7.55685 1.367 0)
(7.54261 1.44277 0)
(7.53532 1.52339 0)
(7.53078 1.60806 0)
(7.52271 1.69518 0)
(7.50265 1.78219 0)
(7.46009 1.8655 0)
(7.38302 1.94053 0)
(7.25872 2.00202 0)
(7.07509 2.04437 0)
(6.82211 2.06233 0)
(6.49359 2.0517 0)
(6.0887 2.01018 0)
(5.61312 1.93805 0)
(5.07914 1.83863 0)
(4.50457 1.71823 0)
(3.91025 1.58561 0)
(3.31692 1.4511 0)
(2.74277 1.32592 0)
(2.20291 1.22174 0)
(1.71075 1.15055 0)
(1.27933 1.12263 0)
(0.918467 1.14025 0)
(0.627498 1.18995 0)
(0.39103 1.24316 0)
(0.185426 1.27074 0)
(-0.00934865 1.25903 0)
(-0.203554 1.21302 0)
(-0.397867 1.14633 0)
(-0.58838 1.06823 0)
(-0.771289 0.979036 0)
(-0.943313 0.872666 0)
(-1.10186 0.74157 0)
(-1.24438 0.579832 0)
(-1.36831 0.384268 0)
(-1.47054 0.153008 0)
(-1.54713 -0.114844 0)
(-1.59399 -0.419455 0)
(-1.60586 -0.758778 0)
(-1.57734 -1.12734 0)
(-1.50314 -1.51343 0)
(-1.38009 -1.89676 0)
(-1.20988 -2.24911 0)
(-1.00347 -2.54562 0)
(-0.792578 -2.79591 0)
(-0.612538 -3.01776 0)
(-0.277124 -2.54009 0)
(9.99982 0.00731707 0)
(9.99835 0.0218919 0)
(9.99525 0.0363307 0)
(9.99037 0.0505921 0)
(9.9837 0.0646936 0)
(9.97524 0.0786856 0)
(9.96494 0.0926089 0)
(9.95279 0.106491 0)
(9.93877 0.120362 0)
(9.92287 0.134254 0)
(9.90507 0.148201 0)
(9.88537 0.162235 0)
(9.86376 0.176383 0)
(9.84024 0.190676 0)
(9.81479 0.205142 0)
(9.7874 0.219813 0)
(9.75806 0.234717 0)
(9.72675 0.249886 0)
(9.69347 0.265352 0)
(9.6582 0.281151 0)
(9.62091 0.297321 0)
(9.58161 0.313901 0)
(9.54026 0.330933 0)
(9.49685 0.348463 0)
(9.45137 0.366543 0)
(9.4038 0.385225 0)
(9.35413 0.404569 0)
(9.30233 0.424638 0)
(9.24841 0.4455 0)
(9.19236 0.467229 0)
(9.13416 0.489901 0)
(9.07383 0.513597 0)
(9.01137 0.538404 0)
(8.94679 0.564408 0)
(8.88011 0.5917 0)
(8.81136 0.620365 0)
(8.74058 0.650489 0)
(8.66782 0.68215 0)
(8.59315 0.715413 0)
(8.51662 0.750329 0)
(8.43834 0.786934 0)
(8.35839 0.825237 0)
(8.27692 0.865222 0)
(8.19407 0.906849 0)
(8.11004 0.950054 0)
(8.0251 0.994752 0)
(7.93958 1.04086 0)
(7.85397 1.08829 0)
(7.76891 1.13703 0)
(7.68525 1.18712 0)
(7.60412 1.2387 0)
(7.52692 1.29208 0)
(7.45534 1.34773 0)
(7.39132 1.40632 0)
(7.33684 1.46865 0)
(7.29375 1.53562 0)
(7.26335 1.6081 0)
(7.24593 1.6867 0)
(7.24019 1.77156 0)
(7.24263 1.86203 0)
(7.24706 1.95638 0)
(7.24436 2.05156 0)
(7.22257 2.14311 0)
(7.16751 2.22522 0)
(7.06394 2.29116 0)
(6.89724 2.33391 0)
(6.65547 2.34714 0)
(6.33152 2.32635 0)
(5.92497 2.27005 0)
(5.44319 2.18063 0)
(4.90125 2.06471 0)
(4.3206 1.93274 0)
(3.72677 1.79795 0)
(3.14701 1.67497 0)
(2.60802 1.57786 0)
(2.1328 1.51638 0)
(1.73491 1.49047 0)
(1.41224 1.48682 0)
(1.14711 1.48356 0)
(0.915538 1.46181 0)
(0.698632 1.41425 0)
(0.488502 1.34462 0)
(0.286094 1.2588 0)
(0.0949459 1.15823 0)
(-0.082169 1.03872 0)
(-0.244718 0.893487 0)
(-0.392667 0.716535 0)
(-0.525287 0.503945 0)
(-0.641052 0.253165 0)
(-0.736923 -0.0377083 0)
(-0.811086 -0.369591 0)
(-0.859686 -0.740477 0)
(-0.878784 -1.14548 0)
(-0.864287 -1.57271 0)
(-0.81333 -2.00009 0)
(-0.726001 -2.39495 0)
(-0.605767 -2.7204 0)
(-0.469602 -2.96148 0)
(-0.385474 -3.16733 0)
(-0.16932 -2.93869 0)
(9.99981 0.00812221 0)
(9.9983 0.0243185 0)
(9.99511 0.0404218 0)
(9.99014 0.0564084 0)
(9.9834 0.0722822 0)
(9.9749 0.0880729 0)
(9.96461 0.103816 0)
(9.95249 0.119542 0)
(9.93854 0.135278 0)
(9.92274 0.151054 0)
(9.90509 0.166902 0)
(9.88556 0.18285 0)
(9.86416 0.198927 0)
(9.84086 0.21516 0)
(9.81567 0.231578 0)
(9.78857 0.24821 0)
(9.75956 0.265085 0)
(9.72861 0.282234 0)
(9.69571 0.299691 0)
(9.66086 0.317491 0)
(9.62404 0.335671 0)
(9.58524 0.354269 0)
(9.54445 0.373329 0)
(9.50165 0.392895 0)
(9.45683 0.413018 0)
(9.40998 0.433751 0)
(9.3611 0.455151 0)
(9.31018 0.477279 0)
(9.25722 0.500199 0)
(9.20222 0.52398 0)
(9.1452 0.548695 0)
(9.08616 0.57442 0)
(9.02514 0.601235 0)
(8.96215 0.629219 0)
(8.89725 0.658455 0)
(8.83047 0.68902 0)
(8.76188 0.720994 0)
(8.69154 0.754447 0)
(8.61953 0.789439 0)
(8.54591 0.826019 0)
(8.47078 0.86422 0)
(8.39421 0.904055 0)
(8.31627 0.945512 0)
(8.23703 0.988556 0)
(8.15654 1.03312 0)
(8.07483 1.07911 0)
(7.99194 1.12642 0)
(7.90789 1.17489 0)
(7.82274 1.22439 0)
(7.73662 1.27477 0)
(7.64978 1.32595 0)
(7.56262 1.37786 0)
(7.47586 1.43057 0)
(7.39053 1.48426 0)
(7.30811 1.5393 0)
(7.23052 1.59628 0)
(7.1601 1.65601 0)
(7.09948 1.71951 0)
(7.05128 1.78795 0)
(7.01766 1.86247 0)
(6.99968 1.94397 0)
(6.99655 2.03275 0)
(7.00479 2.1281 0)
(7.01755 2.22785 0)
(7.0243 2.32812 0)
(7.01102 2.42325 0)
(6.96115 2.50602 0)
(6.85725 2.56841 0)
(6.68336 2.60272 0)
(6.42764 2.60288 0)
(6.08501 2.56591 0)
(5.65918 2.49292 0)
(5.16347 2.38966 0)
(4.62041 2.26617 0)
(4.05973 2.13587 0)
(3.51473 2.01326 0)
(3.01596 1.90994 0)
(2.58321 1.82972 0)
(2.2196 1.76638 0)
(1.91332 1.70724 0)
(1.64651 1.64018 0)
(1.40471 1.55882 0)
(1.18107 1.4614 0)
(0.974183 1.347 0)
(0.784397 1.21247 0)
(0.611158 1.05242 0)
(0.453098 0.861341 0)
(0.30929 0.634558 0)
(0.179535 0.368664 0)
(0.0653559 0.0611496 0)
(-0.0317439 -0.289744 0)
(-0.110841 -0.682632 0)
(-0.170216 -1.11292 0)
(-0.20778 -1.5685 0)
(-0.222447 -2.02603 0)
(-0.215559 -2.45047 0)
(-0.189926 -2.80087 0)
(-0.149486 -3.04647 0)
(-0.154594 -3.2113 0)
(-0.0564067 -3.15837 0)
(9.99981 0.00894693 0)
(9.99828 0.026797 0)
(9.99505 0.0445763 0)
(9.99002 0.0622758 0)
(9.98325 0.0798997 0)
(9.97475 0.0974685 0)
(9.96449 0.11501 0)
(9.95244 0.132549 0)
(9.93858 0.150113 0)
(9.9229 0.167729 0)
(9.9054 0.185422 0)
(9.88605 0.203223 0)
(9.86486 0.22116 0)
(9.84182 0.239262 0)
(9.8169 0.257557 0)
(9.79012 0.276074 0)
(9.76144 0.294846 0)
(9.73087 0.313903 0)
(9.69839 0.33328 0)
(9.664 0.353014 0)
(9.62767 0.373139 0)
(9.58941 0.393697 0)
(9.5492 0.41473 0)
(9.50703 0.436282 0)
(9.46289 0.458401 0)
(9.41678 0.481138 0)
(9.36868 0.504548 0)
(9.31862 0.528686 0)
(9.26657 0.553615 0)
(9.21256 0.579398 0)
(9.15659 0.606099 0)
(9.09868 0.633788 0)
(9.03886 0.662535 0)
(8.97717 0.692414 0)
(8.91365 0.723493 0)
(8.84835 0.755844 0)
(8.78134 0.789531 0)
(8.71269 0.824617 0)
(8.64248 0.861155 0)
(8.57081 0.899188 0)
(8.49778 0.938748 0)
(8.42348 0.979851 0)
(8.34802 1.0225 0)
(8.27148 1.06666 0)
(8.19394 1.11231 0)
(8.11544 1.15938 0)
(8.03602 1.20777 0)
(7.95566 1.2574 0)
(7.87432 1.30812 0)
(7.79192 1.3598 0)
(7.70837 1.41229 0)
(7.62359 1.46543 0)
(7.53756 1.51909 0)
(7.4504 1.57315 0)
(7.36242 1.62757 0)
(7.27426 1.6824 0)
(7.18698 1.73784 0)
(7.1022 1.7943 0)
(7.0221 1.85244 0)
(6.94945 1.91324 0)
(6.88743 1.97795 0)
(6.83925 2.04802 0)
(6.80763 2.12492 0)
(6.79388 2.20971 0)
(6.79696 2.30263 0)
(6.81244 2.40254 0)
(6.83174 2.50641 0)
(6.842 2.60908 0)
(6.8267 2.70343 0)
(6.76732 2.78096 0)
(6.64579 2.83293 0)
(6.44759 2.85168 0)
(6.16482 2.83219 0)
(5.79883 2.77329 0)
(5.36169 2.67865 0)
(4.87606 2.55695 0)
(4.37247 2.42077 0)
(3.8832 2.28333 0)
(3.43388 2.15402 0)
(3.03714 2.0352 0)
(2.69245 1.92274 0)
(2.39162 1.80949 0)
(2.12552 1.68853 0)
(1.88745 1.55418 0)
(1.67327 1.40134 0)
(1.47987 1.22459 0)
(1.30437 1.01855 0)
(1.14427 0.778179 0)
(0.99773 0.499288 0)
(0.864108 0.178765 0)
(0.743805 -0.185366 0)
(0.635903 -0.592452 0)
(0.53951 -1.03778 0)
(0.453898 -1.50884 0)
(0.377171 -1.98142 0)
(0.30582 -2.41912 0)
(0.236578 -2.77989 0)
(0.167391 -3.03037 0)
(0.0673229 -3.17176 0)
(0.0453527 -3.192 0)
(9.99981 0.00978046 0)
(9.99827 0.0292992 0)
(9.99503 0.0487592 0)
(9.98999 0.0681622 0)
(9.98322 0.0875152 0)
(9.97474 0.106835 0)
(9.96453 0.126144 0)
(9.95256 0.145465 0)
(9.93881 0.164824 0)
(9.92327 0.184244 0)
(9.90594 0.203753 0)
(9.8868 0.22338 0)
(9.86584 0.243154 0)
(9.84306 0.263102 0)
(9.81845 0.283253 0)
(9.79199 0.303636 0)
(9.76368 0.324284 0)
(9.73351 0.34523 0)
(9.70147 0.366505 0)
(9.66756 0.388145 0)
(9.63175 0.410187 0)
(9.59405 0.432671 0)
(9.55444 0.455638 0)
(9.51292 0.479131 0)
(9.46949 0.503196 0)
(9.42413 0.527882 0)
(9.37686 0.553241 0)
(9.32766 0.579328 0)
(9.27654 0.606197 0)
(9.22352 0.633908 0)
(9.16861 0.662521 0)
(9.11182 0.692098 0)
(9.05319 0.722704 0)
(8.99275 0.7544 0)
(8.93054 0.787249 0)
(8.86661 0.821311 0)
(8.80103 0.856641 0)
(8.73385 0.89329 0)
(8.66517 0.931303 0)
(8.59507 0.970716 0)
(8.52364 1.01155 0)
(8.45098 1.05383 0)
(8.3772 1.09754 0)
(8.30239 1.14267 0)
(8.22667 1.1892 0)
(8.15011 1.23708 0)
(8.0728 1.28626 0)
(7.99477 1.33665 0)
(7.91606 1.38818 0)
(7.83664 1.44076 0)
(7.75647 1.49427 0)
(7.67546 1.5486 0)
(7.59346 1.6036 0)
(7.51033 1.65913 0)
(7.42592 1.71503 0)
(7.34016 1.77113 0)
(7.25309 1.82729 0)
(7.165 1.88342 0)
(7.07657 1.93956 0)
(6.98897 1.99592 0)
(6.90407 2.05299 0)
(6.82442 2.11161 0)
(6.75332 2.17303 0)
(6.69452 2.23886 0)
(6.65172 2.31094 0)
(6.6278 2.39096 0)
(6.62369 2.48 0)
(6.63714 2.57782 0)
(6.66168 2.68225 0)
(6.68612 2.78869 0)
(6.69493 2.89005 0)
(6.66974 2.97722 0)
(6.59181 3.04003 0)
(6.4452 3.06883 0)
(6.22021 3.05622 0)
(5.91632 2.99902 0)
(5.54403 2.89975 0)
(5.1243 2.76689 0)
(4.68461 2.61284 0)
(4.25218 2.45006 0)
(3.84747 2.28698 0)
(3.48117 2.12619 0)
(3.15546 1.96513 0)
(2.86755 1.79824 0)
(2.61272 1.61887 0)
(2.38591 1.42027 0)
(2.1823 1.1961 0)
(1.99758 0.940644 0)
(1.82806 0.648985 0)
(1.67081 0.317399 0)
(1.52399 -0.0562543 0)
(1.38517 -0.471272 0)
(1.25054 -0.922332 0)
(1.11601 -1.39621 0)
(0.976454 -1.86824 0)
(0.826012 -2.30219 0)
(0.661137 -2.65716 0)
(0.480506 -2.90121 0)
(0.274852 -3.03583 0)
(0.13118 -3.06389 0)
(9.99981 0.0106164 0)
(9.99827 0.0318064 0)
(9.99503 0.0529441 0)
(9.99 0.0740404 0)
(9.98326 0.0951048 0)
(9.97483 0.116152 0)
(9.96469 0.137201 0)
(9.95282 0.158276 0)
(9.9392 0.1794 0)
(9.92382 0.200597 0)
(9.90667 0.221894 0)
(9.88775 0.243318 0)
(9.86704 0.264896 0)
(9.84454 0.286657 0)
(9.82025 0.308629 0)
(9.79414 0.330843 0)
(9.76622 0.353329 0)
(9.73647 0.376121 0)
(9.70489 0.39925 0)
(9.67147 0.422753 0)
(9.6362 0.446665 0)
(9.59908 0.471027 0)
(9.56009 0.495879 0)
(9.51925 0.521262 0)
(9.47653 0.54722 0)
(9.43195 0.573801 0)
(9.38549 0.601054 0)
(9.33717 0.629029 0)
(9.287 0.65778 0)
(9.23498 0.687359 0)
(9.18112 0.717823 0)
(9.12546 0.749229 0)
(9.06801 0.781633 0)
(9.00881 0.815089 0)
(8.94789 0.849654 0)
(8.88531 0.885378 0)
(8.82112 0.922309 0)
(8.75539 0.960489 0)
(8.68817 0.999955 0)
(8.61955 1.04073 0)
(8.54962 1.08285 0)
(8.47845 1.1263 0)
(8.40614 1.17109 0)
(8.33279 1.2172 0)
(8.25849 1.2646 0)
(8.18333 1.31327 0)
(8.1074 1.36314 0)
(8.03077 1.41418 0)
(7.95352 1.4663 0)
(7.8757 1.51945 0)
(7.79734 1.57356 0)
(7.71846 1.62854 0)
(7.63901 1.6843 0)
(7.55895 1.74075 0)
(7.47816 1.79777 0)
(7.39648 1.85519 0)
(7.31374 1.91285 0)
(7.22975 1.97053 0)
(7.14439 2.02802 0)
(7.05769 2.08511 0)
(6.97001 2.14169 0)
(6.88214 2.19781 0)
(6.79555 2.25379 0)
(6.71255 2.31034 0)
(6.63632 2.36865 0)
(6.57087 2.43041 0)
(6.52056 2.49772 0)
(6.48939 2.57272 0)
(6.47988 2.65708 0)
(6.49165 2.7512 0)
(6.52021 2.85336 0)
(6.5561 2.95905 0)
(6.58505 3.06068 0)
(6.5892 3.14803 0)
(6.54959 3.20939 0)
(6.44945 3.23349 0)
(6.27791 3.21195 0)
(6.03323 3.14156 0)
(5.72436 3.02558 0)
(5.36957 2.87295 0)
(4.9921 2.69536 0)
(4.61453 2.5034 0)
(4.25426 2.30365 0)
(3.92164 2.09774 0)
(3.6206 1.88315 0)
(3.35046 1.65478 0)
(3.10786 1.40648 0)
(2.8882 1.13207 0)
(2.68651 0.826032 0)
(2.49788 0.484122 0)
(2.31777 0.1041 0)
(2.14136 -0.313012 0)
(1.96249 -0.761139 0)
(1.77344 -1.22598 0)
(1.566 -1.68277 0)
(1.33283 -2.09709 0)
(1.0711 -2.43167 0)
(0.780816 -2.65828 0)
(0.464231 -2.7784 0)
(0.203654 -2.80624 0)
(9.99981 0.0114502 0)
(9.99828 0.0343068 0)
(9.99505 0.0571147 0)
(9.99005 0.0798901 0)
(9.98335 0.102646 0)
(9.97499 0.125398 0)
(9.96495 0.148163 0)
(9.95319 0.170965 0)
(9.93971 0.193825 0)
(9.92451 0.21677 0)
(9.90756 0.239823 0)
(9.88888 0.263011 0)
(9.86844 0.286361 0)
(9.84624 0.309901 0)
(9.82227 0.333661 0)
(9.79653 0.35767 0)
(9.76901 0.381958 0)
(9.73969 0.40656 0)
(9.70859 0.431507 0)
(9.67568 0.456834 0)
(9.64096 0.482577 0)
(9.60444 0.508774 0)
(9.5661 0.535465 0)
(9.52593 0.56269 0)
(9.48395 0.590494 0)
(9.44015 0.61892 0)
(9.39453 0.648014 0)
(9.34709 0.677824 0)
(9.29785 0.708398 0)
(9.24683 0.739787 0)
(9.19402 0.772044 0)
(9.13946 0.805218 0)
(9.08317 0.839361 0)
(9.02519 0.874522 0)
(8.96554 0.910748 0)
(8.90428 0.948085 0)
(8.84145 0.986574 0)
(8.77711 1.02625 0)
(8.71133 1.06714 0)
(8.64416 1.10927 0)
(8.57568 1.15266 0)
(8.50597 1.1973 0)
(8.43511 1.24319 0)
(8.36317 1.29032 0)
(8.29023 1.33866 0)
(8.21639 1.38817 0)
(8.1417 1.43881 0)
(8.06626 1.49053 0)
(7.99012 1.54326 0)
(7.91337 1.59696 0)
(7.83607 1.65155 0)
(7.75828 1.70698 0)
(7.68004 1.76318 0)
(7.60141 1.82007 0)
(7.52238 1.87759 0)
(7.44294 1.93564 0)
(7.36304 1.9941 0)
(7.28253 2.05282 0)
(7.20125 2.11159 0)
(7.11897 2.17018 0)
(7.03546 2.2283 0)
(6.95061 2.28568 0)
(6.8645 2.34207 0)
(6.77766 2.39738 0)
(6.69126 2.4518 0)
(6.60735 2.50589 0)
(6.52903 2.56078 0)
(6.46044 2.61816 0)
(6.40645 2.68024 0)
(6.37194 2.74937 0)
(6.36062 2.82741 0)
(6.37358 2.91485 0)
(6.40777 3.00981 0)
(6.45497 3.10722 0)
(6.50172 3.19863 0)
(6.53056 3.27281 0)
(6.52256 3.3174 0)
(6.46098 3.32124 0)
(6.33509 3.27698 0)
(6.14309 3.18293 0)
(5.89278 3.04318 0)
(5.59951 2.86593 0)
(5.28219 2.66054 0)
(4.95895 2.43471 0)
(4.64392 2.1928 0)
(4.34588 1.9355 0)
(4.0685 1.66058 0)
(3.81139 1.36407 0)
(3.57136 1.04154 0)
(3.34341 0.689247 0)
(3.12148 0.305404 0)
(2.89774 -0.108763 0)
(2.66458 -0.545242 0)
(2.41166 -0.989803 0)
(2.12897 -1.41866 0)
(1.80898 -1.80056 0)
(1.45053 -2.10381 0)
(1.05499 -2.30571 0)
(0.633369 -2.40863 0)
(0.267065 -2.42647 0)
(9.99981 0.012279 0)
(9.99829 0.0367914 0)
(9.99509 0.0612567 0)
(9.99014 0.085695 0)
(9.98349 0.110123 0)
(9.97521 0.134556 0)
(9.96527 0.159014 0)
(9.95365 0.183515 0)
(9.94033 0.208084 0)
(9.92531 0.232746 0)
(9.90859 0.257525 0)
(9.89015 0.282446 0)
(9.86999 0.307536 0)
(9.84811 0.332823 0)
(9.82449 0.358337 0)
(9.79913 0.384106 0)
(9.77202 0.410163 0)
(9.74316 0.436538 0)
(9.71254 0.463264 0)
(9.68016 0.490377 0)
(9.64601 0.51791 0)
(9.61009 0.5459 0)
(9.5724 0.574386 0)
(9.53293 0.603408 0)
(9.49169 0.633008 0)
(9.44868 0.663229 0)
(9.4039 0.694113 0)
(9.35735 0.725705 0)
(9.30905 0.758051 0)
(9.25901 0.791199 0)
(9.20724 0.825194 0)
(9.15377 0.860083 0)
(9.09863 0.895913 0)
(9.04183 0.932727 0)
(8.98342 0.970568 0)
(8.92344 1.00947 0)
(8.86193 1.04948 0)
(8.79894 1.09062 0)
(8.73453 1.13291 0)
(8.66877 1.17638 0)
(8.6017 1.22104 0)
(8.5334 1.26687 0)
(8.46394 1.31389 0)
(8.39338 1.36207 0)
(8.3218 1.41138 0)
(8.24926 1.46179 0)
(8.17582 1.51327 0)
(8.10156 1.56574 0)
(8.02654 1.61918 0)
(7.95082 1.6735 0)
(7.87446 1.72865 0)
(7.79752 1.78457 0)
(7.72008 1.84119 0)
(7.6422 1.89845 0)
(7.56395 1.95627 0)
(7.4854 2.0146 0)
(7.4066 2.07334 0)
(7.32758 2.13241 0)
(7.24831 2.19167 0)
(7.16872 2.25097 0)
(7.08864 2.31009 0)
(7.00785 2.36875 0)
(6.92608 2.42662 0)
(6.8431 2.48335 0)
(6.75887 2.5386 0)
(6.67371 2.59214 0)
(6.58861 2.644 0)
(6.50547 2.69461 0)
(6.42737 2.74495 0)
(6.35858 2.79661 0)
(6.30436 2.85169 0)
(6.27016 2.91238 0)
(6.26042 2.9803 0)
(6.27696 3.05548 0)
(6.31736 3.13538 0)
(6.37386 3.21418 0)
(6.4334 3.28283 0)
(6.47901 3.33005 0)
(6.49274 3.34429 0)
(6.4593 3.31605 0)
(6.36944 3.23991 0)
(6.22189 3.11538 0)
(6.02306 2.94627 0)
(5.78482 2.73887 0)
(5.5213 2.49985 0)
(5.24564 2.23445 0)
(4.96789 1.94565 0)
(4.69391 1.63419 0)
(4.42537 1.29935 0)
(4.16025 0.940134 0)
(3.89336 0.556784 0)
(3.61801 0.152239 0)
(3.32258 -0.265534 0)
(2.99804 -0.680266 0)
(2.63556 -1.07144 0)
(2.22913 -1.41272 0)
(1.7796 -1.67873 0)
(1.28935 -1.85269 0)
(0.776259 -1.93725 0)
(0.320431 -1.94363 0)
(9.99982 0.0131004 0)
(9.99831 0.0392537 0)
(9.99514 0.0653599 0)
(9.99024 0.0914433 0)
(9.98367 0.117522 0)
(9.97548 0.143614 0)
(9.96566 0.169737 0)
(9.95418 0.195912 0)
(9.94104 0.222162 0)
(9.92622 0.248512 0)
(9.90973 0.274986 0)
(9.89155 0.301608 0)
(9.87169 0.328407 0)
(9.85013 0.355409 0)
(9.82687 0.382643 0)
(9.80191 0.410139 0)
(9.77523 0.437927 0)
(9.74683 0.466038 0)
(9.71672 0.494506 0)
(9.68488 0.523364 0)
(9.65131 0.552646 0)
(9.61601 0.582387 0)
(9.57898 0.612627 0)
(9.54022 0.643402 0)
(9.49973 0.674754 0)
(9.4575 0.706723 0)
(9.41356 0.739349 0)
(9.3679 0.772675 0)
(9.32053 0.806744 0)
(9.27147 0.8416 0)
(9.22073 0.877285 0)
(9.16834 0.913841 0)
(9.11432 0.951311 0)
(9.05869 0.989734 0)
(9.00148 1.02915 0)
(8.94275 1.06958 0)
(8.88252 1.11108 0)
(8.82084 1.15365 0)
(8.75776 1.19732 0)
(8.69334 1.24211 0)
(8.62762 1.28803 0)
(8.56068 1.33506 0)
(8.49257 1.38322 0)
(8.42334 1.43246 0)
(8.35307 1.48278 0)
(8.28181 1.53414 0)
(8.20961 1.5865 0)
(8.13654 1.6398 0)
(8.06264 1.694 0)
(7.98798 1.74904 0)
(7.91259 1.80484 0)
(7.83655 1.86135 0)
(7.7599 1.9185 0)
(7.68271 1.9762 0)
(7.60505 2.0344 0)
(7.52699 2.09301 0)
(7.44863 2.15195 0)
(7.37006 2.21115 0)
(7.29135 2.27051 0)
(7.21257 2.32993 0)
(7.13373 2.38926 0)
(7.05481 2.44832 0)
(6.97567 2.50688 0)
(6.89611 2.56462 0)
(6.81585 2.62115 0)
(6.73462 2.67603 0)
(6.6523 2.72879 0)
(6.56911 2.77905 0)
(6.48594 2.82665 0)
(6.40464 2.87181 0)
(6.32827 2.91526 0)
(6.26122 2.95833 0)
(6.20888 3.00277 0)
(6.17683 3.05036 0)
(6.1696 3.10211 0)
(6.18893 3.15735 0)
(6.23224 3.21282 0)
(6.29178 3.26227 0)
(6.3549 3.29679 0)
(6.40589 3.30609 0)
(6.42886 3.28038 0)
(6.41089 3.21227 0)
(6.34441 3.09797 0)
(6.22813 2.93749 0)
(6.06625 2.73386 0)
(5.86648 2.49174 0)
(5.6376 2.21607 0)
(5.38727 1.91117 0)
(5.12047 1.5805 0)
(4.83868 1.22717 0)
(4.53985 0.854963 0)
(4.21873 0.469955 0)
(3.86857 0.0806861 0)
(3.47895 -0.297824 0)
(3.04374 -0.645446 0)