/*--------------------------------*- C++ -*----------------------------------*\
| =========                 |                                                 |
| \\      /  F ield         | OpenFOAM: The Open Source CFD Toolbox           |
|  \\    /   O peration     | Version:  4.1                                   |
|   \\  /    A nd           | Web:      www.OpenFOAM.org                      |
|    \\/     M anipulation  |                                                 |
\*---------------------------------------------------------------------------*/
FoamFile
{
    version     2.0;
    format      ascii;
    class       volScalarField;
    location    "98";
    object      p;
}
// * * * * * * * * * * * * * * * * * * * * * * * * * * * * * * * * * * * * * //

dimensions      [0 2 -2 0 0 0 0];

internalField   nonuniform List<scalar> 
43750
(
0.000103057
9.43522e-05
8.82398e-05
8.53374e-05
8.3238e-05
8.11738e-05
7.93834e-05
7.8033e-05
7.70694e-05
7.63978e-05
7.59558e-05
7.56981e-05
7.55813e-05
7.55668e-05
7.56244e-05
7.57324e-05
7.58756e-05
7.60442e-05
7.62319e-05
7.64357e-05
7.6654e-05
7.6887e-05
7.71352e-05
7.73999e-05
7.76822e-05
7.79837e-05
7.83057e-05
7.86492e-05
7.9015e-05
7.94035e-05
7.98145e-05
8.02471e-05
8.07e-05
8.11714e-05
8.16593e-05
8.21615e-05
8.2676e-05
8.32014e-05
8.37365e-05
8.42806e-05
8.48336e-05
8.53956e-05
8.59671e-05
8.65483e-05
8.71395e-05
8.77409e-05
8.83522e-05
8.89728e-05
8.96018e-05
9.02382e-05
9.08805e-05
9.15276e-05
9.21781e-05
9.28311e-05
9.34856e-05
9.4141e-05
9.4797e-05
9.54532e-05
9.61095e-05
9.67656e-05
9.74215e-05
9.80769e-05
9.87315e-05
9.9385e-05
0.000100037
0.000100687
0.000101335
0.000101979
0.00010262
0.000103257
0.000103889
0.000104515
0.000105134
0.000105746
0.00010635
0.000106945
0.000107529
0.000108102
0.000108663
0.00010921
0.000109743
0.000110259
0.000110758
0.000111239
0.0001117
0.000112139
0.000112556
0.000112949
0.000113316
0.000113657
0.00011397
0.000114253
0.000114505
0.000114725
0.000114913
0.000115068
0.000115191
0.000115282
0.000115343
0.000115369
9.0143e-05
8.85617e-05
8.63071e-05
8.44316e-05
8.27823e-05
8.11223e-05
7.9589e-05
7.83495e-05
7.74222e-05
7.67554e-05
7.62995e-05
7.60154e-05
7.5866e-05
7.58172e-05
7.58413e-05
7.59183e-05
7.60339e-05
7.61786e-05
7.63462e-05
7.65331e-05
7.67375e-05
7.69588e-05
7.71973e-05
7.74538e-05
7.77293e-05
7.8025e-05
7.83419e-05
7.86812e-05
7.90436e-05
7.94294e-05
7.98385e-05
8.02699e-05
8.07225e-05
8.11941e-05
8.16826e-05
8.21856e-05
8.27009e-05
8.32268e-05
8.3762e-05
8.43058e-05
8.48581e-05
8.54192e-05
8.59896e-05
8.65701e-05
8.71608e-05
8.7762e-05
8.83735e-05
8.89947e-05
8.96245e-05
9.02618e-05
9.09053e-05
9.15534e-05
9.2205e-05
9.28588e-05
9.3514e-05
9.417e-05
9.48264e-05
9.5483e-05
9.61395e-05
9.67959e-05
9.7452e-05
9.81077e-05
9.87625e-05
9.94162e-05
0.000100068
0.000100719
0.000101366
0.000102011
0.000102652
0.000103289
0.000103921
0.000104547
0.000105167
0.000105779
0.000106383
0.000106977
0.000107562
0.000108135
0.000108695
0.000109243
0.000109775
0.000110291
0.00011079
0.000111271
0.000111732
0.000112171
0.000112588
0.000112981
0.000113348
0.000113689
0.000114001
0.000114284
0.000114536
0.000114756
0.000114943
0.000115098
0.000115219
0.000115309
0.000115367
0.000115396
8.81186e-05
8.73809e-05
8.57427e-05
8.39565e-05
8.24231e-05
8.10667e-05
7.9835e-05
7.87802e-05
7.79338e-05
7.72802e-05
7.67928e-05
7.64493e-05
7.62292e-05
7.61106e-05
7.60726e-05
7.60976e-05
7.61718e-05
7.62847e-05
7.64286e-05
7.65983e-05
7.67903e-05
7.70026e-05
7.72346e-05
7.7486e-05
7.77575e-05
7.80496e-05
7.83635e-05
7.86999e-05
7.90597e-05
7.9443e-05
7.98498e-05
8.02792e-05
8.073e-05
8.12003e-05
8.16878e-05
8.21903e-05
8.27055e-05
8.32316e-05
8.37673e-05
8.43118e-05
8.48647e-05
8.54262e-05
8.59967e-05
8.65769e-05
8.71672e-05
8.77679e-05
8.83791e-05
8.90002e-05
8.96305e-05
9.02687e-05
9.09134e-05
9.15629e-05
9.22158e-05
9.28708e-05
9.35271e-05
9.41839e-05
9.4841e-05
9.54982e-05
9.61553e-05
9.68124e-05
9.74692e-05
9.81256e-05
9.87813e-05
9.9436e-05
0.000100089
0.000100741
0.00010139
0.000102036
0.000102678
0.000103316
0.000103949
0.000104577
0.000105198
0.000105812
0.000106417
0.000107013
0.000107599
0.000108174
0.000108736
0.000109284
0.000109818
0.000110336
0.000110837
0.000111319
0.000111782
0.000112222
0.000112641
0.000113035
0.000113404
0.000113745
0.000114059
0.000114342
0.000114595
0.000114816
0.000115004
0.000115157
0.000115277
0.000115364
0.000115423
0.000115459
8.56548e-05
8.51381e-05
8.4094e-05
8.28619e-05
8.17135e-05
8.06686e-05
7.96945e-05
7.88209e-05
7.80873e-05
7.75006e-05
7.70475e-05
7.67131e-05
7.64834e-05
7.63435e-05
7.62782e-05
7.6274e-05
7.63195e-05
7.64059e-05
7.65266e-05
7.66765e-05
7.68522e-05
7.70513e-05
7.72726e-05
7.75157e-05
7.77803e-05
7.80669e-05
7.83759e-05
7.87079e-05
7.90632e-05
7.9442e-05
7.98441e-05
8.02688e-05
8.07148e-05
8.11806e-05
8.16643e-05
8.21637e-05
8.26768e-05
8.32019e-05
8.37376e-05
8.42829e-05
8.48375e-05
8.54012e-05
8.59742e-05
8.65568e-05
8.71492e-05
8.77514e-05
8.83635e-05
8.89849e-05
8.9615e-05
9.0253e-05
9.08975e-05
9.15472e-05
9.22005e-05
9.28561e-05
9.3513e-05
9.41706e-05
9.48284e-05
9.54864e-05
9.61445e-05
9.68026e-05
9.74606e-05
9.81183e-05
9.87755e-05
9.94319e-05
0.000100087
0.00010074
0.000101392
0.00010204
0.000102685
0.000103326
0.000103962
0.000104592
0.000105217
0.000105833
0.000106442
0.000107041
0.000107631
0.000108209
0.000108775
0.000109327
0.000109864
0.000110386
0.00011089
0.000111376
0.000111841
0.000112286
0.000112707
0.000113104
0.000113476
0.00011382
0.000114136
0.000114422
0.000114677
0.000114899
0.000115087
0.00011524
0.000115359
0.000115444
0.000115504
0.000115546
8.38569e-05
8.35625e-05
8.29066e-05
8.20394e-05
8.11453e-05
8.02938e-05
7.94916e-05
7.87589e-05
7.81252e-05
7.76032e-05
7.71886e-05
7.68721e-05
7.66443e-05
7.6495e-05
7.64136e-05
7.63899e-05
7.64152e-05
7.64823e-05
7.65854e-05
7.67201e-05
7.68829e-05
7.70715e-05
7.72844e-05
7.75206e-05
7.77796e-05
7.80612e-05
7.83656e-05
7.8693e-05
7.90432e-05
7.94165e-05
7.98123e-05
8.02301e-05
8.06689e-05
8.11274e-05
8.16041e-05
8.20972e-05
8.26053e-05
8.31267e-05
8.36605e-05
8.42056e-05
8.47616e-05
8.53283e-05
8.59054e-05
8.64927e-05
8.70899e-05
8.76967e-05
8.83124e-05
8.89363e-05
8.95679e-05
9.02061e-05
9.08502e-05
9.14989e-05
9.21513e-05
9.28062e-05
9.34627e-05
9.41202e-05
9.47782e-05
9.54367e-05
9.60954e-05
9.67545e-05
9.74137e-05
9.8073e-05
9.8732e-05
9.93904e-05
0.000100048
0.000100704
0.000101358
0.000102009
0.000102658
0.000103302
0.000103942
0.000104577
0.000105205
0.000105827
0.00010644
0.000107044
0.000107639
0.000108222
0.000108793
0.00010935
0.000109893
0.00011042
0.000110929
0.00011142
0.000111891
0.00011234
0.000112767
0.000113168
0.000113544
0.000113892
0.000114212
0.000114501
0.000114758
0.000114982
0.000115171
0.000115325
0.000115443
0.000115527
0.000115587
0.000115632
8.24667e-05
8.22784e-05
8.1831e-05
8.11978e-05
8.05042e-05
7.98222e-05
7.91726e-05
7.85704e-05
7.80361e-05
7.75831e-05
7.72138e-05
7.69242e-05
7.67088e-05
7.65615e-05
7.64751e-05
7.64423e-05
7.64564e-05
7.65116e-05
7.66031e-05
7.67269e-05
7.688e-05
7.70602e-05
7.72657e-05
7.74954e-05
7.77487e-05
7.8025e-05
7.83243e-05
7.86462e-05
7.89908e-05
7.93577e-05
7.97465e-05
8.01567e-05
8.05874e-05
8.10375e-05
8.15059e-05
8.19912e-05
8.24923e-05
8.30081e-05
8.35375e-05
8.408e-05
8.46351e-05
8.52026e-05
8.57821e-05
8.63735e-05
8.6976e-05
8.75888e-05
8.82106e-05
8.88403e-05
8.94763e-05
9.01174e-05
9.07628e-05
9.14115e-05
9.20631e-05
9.27167e-05
9.3372e-05
9.40285e-05
9.4686e-05
9.53442e-05
9.60032e-05
9.66628e-05
9.7323e-05
9.79835e-05
9.86441e-05
9.93045e-05
9.99642e-05
0.000100623
0.00010128
0.000101934
0.000102586
0.000103235
0.000103879
0.000104518
0.000105151
0.000105778
0.000106396
0.000107006
0.000107607
0.000108196
0.000108773
0.000109337
0.000109886
0.000110419
0.000110935
0.000111432
0.000111909
0.000112365
0.000112797
0.000113204
0.000113586
0.000113939
0.000114263
0.000114556
0.000114816
0.000115043
0.000115235
0.00011539
0.000115509
0.000115592
0.000115652
0.000115698
8.13261e-05
8.11932e-05
8.0874e-05
8.04082e-05
7.98775e-05
7.93383e-05
7.88145e-05
7.83204e-05
7.78724e-05
7.74838e-05
7.716e-05
7.69011e-05
7.67044e-05
7.65663e-05
7.64822e-05
7.6447e-05
7.64558e-05
7.6504e-05
7.65877e-05
7.67036e-05
7.6849e-05
7.7022e-05
7.72208e-05
7.74443e-05
7.76916e-05
7.79623e-05
7.82559e-05
7.85719e-05
7.89102e-05
7.92704e-05
7.9652e-05
8.00543e-05
8.04768e-05
8.09184e-05
8.13782e-05
8.18553e-05
8.23486e-05
8.28573e-05
8.33808e-05
8.39184e-05
8.44699e-05
8.5035e-05
8.56137e-05
8.62057e-05
8.68106e-05
8.74274e-05
8.80546e-05
8.86902e-05
8.93322e-05
8.99785e-05
9.06276e-05
9.12785e-05
9.19306e-05
9.2584e-05
9.32384e-05
9.38939e-05
9.45505e-05
9.52082e-05
9.58669e-05
9.65267e-05
9.71874e-05
9.78487e-05
9.85105e-05
9.91724e-05
9.9834e-05
0.000100495
0.000101154
0.000101812
0.000102467
0.000103119
0.000103767
0.000104411
0.000105049
0.00010568
0.000106304
0.00010692
0.000107526
0.000108121
0.000108705
0.000109275
0.000109831
0.000110371
0.000110894
0.000111398
0.000111881
0.000112344
0.000112782
0.000113196
0.000113583
0.000113942
0.000114271
0.000114568
0.000114833
0.000115063
0.000115258
0.000115415
0.000115535
0.000115619
0.000115678
0.000115725
8.03618e-05
8.02651e-05
8.00322e-05
7.96855e-05
7.92783e-05
7.8852e-05
7.8429e-05
7.80241e-05
7.76511e-05
7.73218e-05
7.70428e-05
7.68163e-05
7.66416e-05
7.65172e-05
7.64403e-05
7.64075e-05
7.64153e-05
7.64604e-05
7.65396e-05
7.66503e-05
7.67903e-05
7.69576e-05
7.71509e-05
7.7369e-05
7.7611e-05
7.78762e-05
7.81642e-05
7.84745e-05
7.88066e-05
7.91601e-05
7.95345e-05
7.99294e-05
8.03438e-05
8.07773e-05
8.12288e-05
8.16977e-05
8.21832e-05
8.26845e-05
8.32011e-05
8.37326e-05
8.42786e-05
8.48392e-05
8.54142e-05
8.60036e-05
8.66072e-05
8.72242e-05
8.78532e-05
8.84922e-05
8.91385e-05
8.97895e-05
9.04428e-05
9.1097e-05
9.17513e-05
9.24055e-05
9.306e-05
9.37152e-05
9.43712e-05
9.50284e-05
9.56869e-05
9.63466e-05
9.70075e-05
9.76693e-05
9.83318e-05
9.89948e-05
9.96577e-05
0.00010032
0.000100982
0.000101642
0.0001023
0.000102955
0.000103606
0.000104254
0.000104896
0.000105532
0.00010616
0.000106781
0.000107393
0.000107994
0.000108583
0.000109159
0.000109722
0.000110268
0.000110797
0.000111308
0.000111798
0.000112267
0.000112712
0.000113132
0.000113524
0.000113889
0.000114223
0.000114525
0.000114794
0.000115028
0.000115226
0.000115386
0.000115508
0.000115593
0.000115652
0.000115698
7.95263e-05
7.94545e-05
7.92806e-05
7.90184e-05
7.87036e-05
7.83664e-05
7.8026e-05
7.76958e-05
7.73878e-05
7.71121e-05
7.68754e-05
7.66809e-05
7.65298e-05
7.64215e-05
7.63549e-05
7.63278e-05
7.6338e-05
7.63829e-05
7.64603e-05
7.65681e-05
7.67044e-05
7.68677e-05
7.70566e-05
7.72701e-05
7.75074e-05
7.77676e-05
7.80504e-05
7.83551e-05
7.86813e-05
7.90285e-05
7.93962e-05
7.97839e-05
8.0191e-05
8.06167e-05
8.10605e-05
8.15217e-05
8.19996e-05
8.24936e-05
8.30032e-05
8.35282e-05
8.40681e-05
8.4623e-05
8.51929e-05
8.57777e-05
8.63773e-05
8.69914e-05
8.76186e-05
8.82572e-05
8.89045e-05
8.95574e-05
9.02133e-05
9.087e-05
9.15263e-05
9.2182e-05
9.28373e-05
9.34926e-05
9.41486e-05
9.48056e-05
9.54638e-05
9.61233e-05
9.67842e-05
9.74461e-05
9.81091e-05
9.87726e-05
9.94364e-05
0.0001001
0.000100763
0.000101425
0.000102085
0.000102742
0.000103397
0.000104047
0.000104692
0.000105332
0.000105965
0.00010659
0.000107206
0.000107812
0.000108406
0.000108988
0.000109556
0.000110108
0.000110643
0.00011116
0.000111656
0.00011213
0.000112581
0.000113006
0.000113405
0.000113774
0.000114113
0.00011442
0.000114693
0.00011493
0.000115131
0.000115294
0.000115418
0.000115505
0.000115564
0.00011561
7.87867e-05
7.87323e-05
7.86003e-05
7.83996e-05
7.8155e-05
7.78886e-05
7.76156e-05
7.73476e-05
7.7095e-05
7.68664e-05
7.66683e-05
7.65045e-05
7.63768e-05
7.62859e-05
7.62313e-05
7.62121e-05
7.62269e-05
7.62739e-05
7.63515e-05
7.64581e-05
7.65923e-05
7.67526e-05
7.69381e-05
7.71478e-05
7.73808e-05
7.76365e-05
7.79144e-05
7.82139e-05
7.85345e-05
7.88757e-05
7.92371e-05
7.96182e-05
8.00183e-05
8.04369e-05
8.08734e-05
8.13273e-05
8.17979e-05
8.22849e-05
8.27877e-05
8.33061e-05
8.38397e-05
8.43886e-05
8.49527e-05
8.5532e-05
8.61264e-05
8.67356e-05
8.73586e-05
8.79938e-05
8.86387e-05
8.92904e-05
8.9946e-05
9.06031e-05
9.12601e-05
9.19165e-05
9.25722e-05
9.32278e-05
9.38838e-05
9.45406e-05
9.51985e-05
9.58577e-05
9.65183e-05
9.71801e-05
9.7843e-05
9.85067e-05
9.91708e-05
9.9835e-05
0.000100499
0.000101162
0.000101823
0.000102482
0.000103138
0.000103791
0.000104439
0.000105081
0.000105718
0.000106346
0.000106966
0.000107576
0.000108175
0.000108761
0.000109333
0.00010989
0.00011043
0.000110952
0.000111453
0.000111932
0.000112388
0.000112818
0.000113221
0.000113595
0.000113938
0.000114248
0.000114525
0.000114766
0.000114969
0.000115135
0.000115261
0.000115349
0.000115409
0.000115455
7.81196e-05
7.80779e-05
7.79766e-05
7.78217e-05
7.76309e-05
7.74205e-05
7.72022e-05
7.69858e-05
7.67801e-05
7.65927e-05
7.64293e-05
7.6294e-05
7.6189e-05
7.61156e-05
7.6074e-05
7.6064e-05
7.60848e-05
7.61355e-05
7.62147e-05
7.63215e-05
7.64546e-05
7.66131e-05
7.67959e-05
7.70024e-05
7.72317e-05
7.74833e-05
7.77567e-05
7.80512e-05
7.83665e-05
7.87021e-05
7.90574e-05
7.94321e-05
7.98255e-05
8.02373e-05
8.06669e-05
8.11138e-05
8.15775e-05
8.20575e-05
8.25536e-05
8.30654e-05
8.35927e-05
8.41354e-05
8.46934e-05
8.52668e-05
8.58553e-05
8.64587e-05
8.70761e-05
8.7706e-05
8.83461e-05
8.8994e-05
8.96466e-05
9.03016e-05
9.09574e-05
9.16129e-05
9.22682e-05
9.29233e-05
9.35788e-05
9.4235e-05
9.48923e-05
9.55508e-05
9.62108e-05
9.68719e-05
9.75343e-05
9.81976e-05
9.88615e-05
9.95256e-05
0.00010019
0.000100853
0.000101515
0.000102175
0.000102832
0.000103486
0.000104136
0.000104781
0.000105419
0.00010605
0.000106673
0.000107286
0.000107888
0.000108478
0.000109054
0.000109614
0.000110158
0.000110684
0.000111189
0.000111672
0.000112132
0.000112566
0.000112973
0.00011335
0.000113697
0.00011401
0.00011429
0.000114533
0.000114739
0.000114907
0.000115035
0.000115123
0.000115183
0.00011523
7.75081e-05
7.74759e-05
7.73976e-05
7.72774e-05
7.71282e-05
7.69622e-05
7.67884e-05
7.66147e-05
7.64488e-05
7.6297e-05
7.61646e-05
7.60553e-05
7.59716e-05
7.59152e-05
7.58868e-05
7.58866e-05
7.59145e-05
7.59697e-05
7.60517e-05
7.61596e-05
7.62926e-05
7.64499e-05
7.66308e-05
7.68346e-05
7.70607e-05
7.73085e-05
7.75776e-05
7.78675e-05
7.81777e-05
7.85077e-05
7.88572e-05
7.92257e-05
7.96128e-05
8.0018e-05
8.04408e-05
8.08808e-05
8.13376e-05
8.18108e-05
8.23002e-05
8.28053e-05
8.33261e-05
8.38624e-05
8.44141e-05
8.49811e-05
8.55633e-05
8.61603e-05
8.67712e-05
8.73947e-05
8.80286e-05
8.86707e-05
8.93183e-05
8.99692e-05
9.06217e-05
9.12747e-05
9.1928e-05
9.25815e-05
9.32355e-05
9.38904e-05
9.45464e-05
9.52036e-05
9.58622e-05
9.65222e-05
9.71834e-05
9.78456e-05
9.85086e-05
9.9172e-05
9.98354e-05
0.000100498
0.00010116
0.00010182
0.000102478
0.000103133
0.000103783
0.000104429
0.000105068
0.000105701
0.000106326
0.000106941
0.000107545
0.000108138
0.000108716
0.00010928
0.000109827
0.000110355
0.000110864
0.00011135
0.000111813
0.00011225
0.000112659
0.000113039
0.000113389
0.000113705
0.000113986
0.000114232
0.000114439
0.000114608
0.000114737
0.000114827
0.000114888
0.000114935
7.69395e-05
7.69145e-05
7.68538e-05
7.67603e-05
7.66437e-05
7.65131e-05
7.63755e-05
7.62373e-05
7.6105e-05
7.59839e-05
7.58787e-05
7.57928e-05
7.57289e-05
7.56886e-05
7.56731e-05
7.56829e-05
7.57181e-05
7.57786e-05
7.58639e-05
7.59736e-05
7.61071e-05
7.62639e-05
7.64434e-05
7.6645e-05
7.68682e-05
7.71126e-05
7.73777e-05
7.76631e-05
7.79684e-05
7.82931e-05
7.8637e-05
7.89995e-05
7.93803e-05
7.97789e-05
8.0195e-05
8.06283e-05
8.10782e-05
8.15446e-05
8.2027e-05
8.25254e-05
8.30394e-05
8.35689e-05
8.41139e-05
8.46743e-05
8.52497e-05
8.58398e-05
8.64436e-05
8.70598e-05
8.76865e-05
8.83216e-05
8.89628e-05
8.96079e-05
9.02554e-05
9.09043e-05
9.1554e-05
9.22045e-05
9.28559e-05
9.35083e-05
9.4162e-05
9.48171e-05
9.54736e-05
9.61315e-05
9.67907e-05
9.74511e-05
9.81124e-05
9.87742e-05
9.94362e-05
0.000100098
0.000100759
0.000101418
0.000102075
0.000102729
0.00010338
0.000104026
0.000104666
0.000105299
0.000105925
0.000106541
0.000107147
0.00010774
0.000108321
0.000108886
0.000109435
0.000109966
0.000110476
0.000110965
0.00011143
0.000111869
0.00011228
0.000112662
0.000113013
0.000113331
0.000113614
0.000113861
0.00011407
0.00011424
0.00011437
0.000114459
0.00011452
0.000114568
7.64041e-05
7.63847e-05
7.63377e-05
7.6265e-05
7.61742e-05
7.6072e-05
7.59639e-05
7.58553e-05
7.57513e-05
7.56565e-05
7.55751e-05
7.55102e-05
7.54642e-05
7.5439e-05
7.54357e-05
7.54553e-05
7.5498e-05
7.55639e-05
7.5653e-05
7.57649e-05
7.58995e-05
7.60561e-05
7.62345e-05
7.64343e-05
7.66549e-05
7.68961e-05
7.71575e-05
7.74386e-05
7.77391e-05
7.80587e-05
7.83969e-05
7.87536e-05
7.91281e-05
7.95204e-05
7.99298e-05
8.03563e-05
8.07993e-05
8.12587e-05
8.17341e-05
8.22254e-05
8.27323e-05
8.32548e-05
8.37927e-05
8.43459e-05
8.49141e-05
8.54967e-05
8.60928e-05
8.67011e-05
8.73199e-05
8.79471e-05
8.85806e-05
8.92187e-05
8.98598e-05
9.0503e-05
9.11478e-05
9.17939e-05
9.24412e-05
9.309e-05
9.37403e-05
9.43921e-05
9.50455e-05
9.57004e-05
9.63568e-05
9.70144e-05
9.7673e-05
9.83324e-05
9.8992e-05
9.96516e-05
0.00010031
0.000100968
0.000101624
0.000102277
0.000102926
0.000103571
0.000104211
0.000104843
0.000105469
0.000106085
0.000106691
0.000107285
0.000107867
0.000108433
0.000108983
0.000109514
0.000110026
0.000110516
0.000110982
0.000111422
0.000111835
0.000112219
0.000112571
0.000112889
0.000113173
0.000113421
0.00011363
0.000113801
0.000113931
0.000114021
0.000114082
0.000114129
7.58945e-05
7.58796e-05
7.58432e-05
7.57871e-05
7.57167e-05
7.56375e-05
7.55537e-05
7.54696e-05
7.53895e-05
7.53173e-05
7.52566e-05
7.52101e-05
7.51803e-05
7.51689e-05
7.51771e-05
7.52059e-05
7.52559e-05
7.53274e-05
7.54203e-05
7.55348e-05
7.56705e-05
7.58274e-05
7.6005e-05
7.62031e-05
7.64215e-05
7.66596e-05
7.69174e-05
7.71943e-05
7.74902e-05
7.78047e-05
7.81375e-05
7.84883e-05
7.88567e-05
7.92425e-05
7.96453e-05
8.00649e-05
8.05009e-05
8.09531e-05
8.14213e-05
8.19053e-05
8.24049e-05
8.292e-05
8.34504e-05
8.39959e-05
8.45563e-05
8.51309e-05
8.57188e-05
8.63186e-05
8.69287e-05
8.75472e-05
8.81723e-05
8.88022e-05
8.94358e-05
9.0072e-05
9.07103e-05
9.13506e-05
9.19927e-05
9.26366e-05
9.32822e-05
9.39296e-05
9.45787e-05
9.52296e-05
9.5882e-05
9.65358e-05
9.71908e-05
9.78466e-05
9.85029e-05
9.91593e-05
9.98152e-05
0.00010047
0.000101123
0.000101774
0.000102421
0.000103064
0.000103702
0.000104333
0.000104957
0.000105573
0.000106178
0.000106772
0.000107353
0.000107919
0.000108469
0.000109
0.000109512
0.000110002
0.000110469
0.00011091
0.000111323
0.000111707
0.000112059
0.000112378
0.000112663
0.00011291
0.00011312
0.00011329
0.00011342
0.00011351
0.00011357
0.000113618
7.54048e-05
7.53934e-05
7.53656e-05
7.53226e-05
7.52688e-05
7.52082e-05
7.51444e-05
7.50807e-05
7.50207e-05
7.49678e-05
7.4925e-05
7.48949e-05
7.48795e-05
7.48805e-05
7.48993e-05
7.49368e-05
7.49937e-05
7.50705e-05
7.51673e-05
7.52843e-05
7.54214e-05
7.55786e-05
7.57556e-05
7.59523e-05
7.61684e-05
7.64037e-05
7.66579e-05
7.69308e-05
7.72221e-05
7.75316e-05
7.7859e-05
7.82039e-05
7.85662e-05
7.89455e-05
7.93416e-05
7.97542e-05
8.01831e-05
8.06281e-05
8.10888e-05
8.15653e-05
8.20572e-05
8.25645e-05
8.30869e-05
8.36244e-05
8.41765e-05
8.47425e-05
8.53216e-05
8.59123e-05
8.65131e-05
8.71222e-05
8.77379e-05
8.83588e-05
8.89836e-05
8.96117e-05
9.02424e-05
9.08756e-05
9.15111e-05
9.21487e-05
9.27884e-05
9.34301e-05
9.40738e-05
9.47194e-05
9.53668e-05
9.60156e-05
9.66658e-05
9.73171e-05
9.79689e-05
9.8621e-05
9.92728e-05
9.99237e-05
0.000100573
0.00010122
0.000101864
0.000102504
0.000103139
0.000103768
0.00010439
0.000105003
0.000105607
0.000106199
0.000106778
0.000107343
0.000107892
0.000108422
0.000108933
0.000109423
0.000109889
0.000110329
0.000110742
0.000111126
0.000111478
0.000111797
0.000112081
0.000112328
0.000112537
0.000112707
0.000112837
0.000112926
0.000112986
0.000113034
7.49304e-05
7.49218e-05
7.49008e-05
7.48684e-05
7.4828e-05
7.47827e-05
7.47353e-05
7.46887e-05
7.46457e-05
7.46093e-05
7.4582e-05
7.4566e-05
7.45634e-05
7.45756e-05
7.46039e-05
7.46494e-05
7.47128e-05
7.47946e-05
7.48951e-05
7.50146e-05
7.51531e-05
7.53106e-05
7.5487e-05
7.56823e-05
7.58963e-05
7.61288e-05
7.63796e-05
7.66485e-05
7.69353e-05
7.72398e-05
7.75617e-05
7.79008e-05
7.82569e-05
7.86297e-05
7.9019e-05
7.94245e-05
7.98461e-05
8.02836e-05
8.07367e-05
8.12053e-05
8.16892e-05
8.21884e-05
8.27025e-05
8.32315e-05
8.37748e-05
8.43317e-05
8.49014e-05
8.54824e-05
8.60732e-05
8.66722e-05
8.72778e-05
8.78887e-05
8.85039e-05
8.91226e-05
8.97446e-05
9.03694e-05
9.0997e-05
9.1627e-05
9.22596e-05
9.28944e-05
9.35314e-05
9.41705e-05
9.48116e-05
9.54543e-05
9.60986e-05
9.6744e-05
9.73902e-05
9.80369e-05
9.86833e-05
9.93292e-05
9.99736e-05
0.000100616
0.000101256
0.000101891
0.000102522
0.000103147
0.000103766
0.000104375
0.000104976
0.000105565
0.000106142
0.000106704
0.000107251
0.000107779
0.000108289
0.000108777
0.000109241
0.00010968
0.000110092
0.000110474
0.000110825
0.000111143
0.000111426
0.000111673
0.000111881
0.00011205
0.000112179
0.000112267
0.000112327
0.000112375
7.44674e-05
7.44611e-05
7.44456e-05
7.44219e-05
7.43924e-05
7.43596e-05
7.43259e-05
7.42935e-05
7.42649e-05
7.42425e-05
7.42285e-05
7.42249e-05
7.42334e-05
7.42556e-05
7.42925e-05
7.43452e-05
7.44145e-05
7.45009e-05
7.46049e-05
7.47267e-05
7.48664e-05
7.50242e-05
7.52001e-05
7.5394e-05
7.56059e-05
7.58355e-05
7.60829e-05
7.63478e-05
7.66301e-05
7.69295e-05
7.7246e-05
7.75792e-05
7.7929e-05
7.82952e-05
7.86776e-05
7.90759e-05
7.94901e-05
7.99199e-05
8.0365e-05
8.08255e-05
8.13012e-05
8.17918e-05
8.22972e-05
8.28172e-05
8.33513e-05
8.38986e-05
8.44583e-05
8.50291e-05
8.56093e-05
8.61974e-05
8.67921e-05
8.73922e-05
8.79967e-05
8.86052e-05
8.92172e-05
8.98325e-05
9.04509e-05
9.10722e-05
9.16963e-05
9.23229e-05
9.2952e-05
9.35833e-05
9.42168e-05
9.48522e-05
9.54892e-05
9.61276e-05
9.67669e-05
9.74068e-05
9.80467e-05
9.86861e-05
9.93244e-05
9.99608e-05
0.000100595
0.000101225
0.00010185
0.00010247
0.000103084
0.000103689
0.000104285
0.00010487
0.000105443
0.000106001
0.000106545
0.00010707
0.000107577
0.000108062
0.000108524
0.000108961
0.00010937
0.000109751
0.0001101
0.000110416
0.000110698
0.000110943
0.00011115
0.000111317
0.000111444
0.000111531
0.00011159
0.000111638
7.4013e-05
7.40085e-05
7.39975e-05
7.39808e-05
7.39603e-05
7.39379e-05
7.39155e-05
7.3895e-05
7.38785e-05
7.3868e-05
7.38655e-05
7.38726e-05
7.38909e-05
7.39217e-05
7.39662e-05
7.40254e-05
7.41e-05
7.41906e-05
7.42976e-05
7.44214e-05
7.45623e-05
7.47203e-05
7.48955e-05
7.50879e-05
7.52976e-05
7.55245e-05
7.57684e-05
7.60293e-05
7.6307e-05
7.66014e-05
7.69123e-05
7.72395e-05
7.7583e-05
7.79424e-05
7.83178e-05
7.87087e-05
7.91152e-05
7.95371e-05
7.99741e-05
8.04262e-05
8.08932e-05
8.13749e-05
8.18713e-05
8.23818e-05
8.29061e-05
8.34434e-05
8.39926e-05
8.45525e-05
8.51214e-05
8.5698e-05
8.62811e-05
8.68695e-05
8.74625e-05
8.80596e-05
8.86607e-05
8.92653e-05
8.98734e-05
9.04846e-05
9.1099e-05
9.17161e-05
9.23359e-05
9.29583e-05
9.35829e-05
9.42096e-05
9.4838e-05
9.5468e-05
9.60991e-05
9.67309e-05
9.73629e-05
9.79946e-05
9.86253e-05
9.92543e-05
9.98808e-05
0.000100504
0.000101123
0.000101736
0.000102343
0.000102943
0.000103533
0.000104112
0.00010468
0.000105234
0.000105772
0.000106293
0.000106796
0.000107277
0.000107735
0.000108169
0.000108575
0.000108952
0.000109299
0.000109613
0.000109892
0.000110135
0.00011034
0.000110506
0.000110631
0.000110716
0.000110774
0.000110822
7.35645e-05
7.35615e-05
7.35543e-05
7.35433e-05
7.35302e-05
7.35163e-05
7.35034e-05
7.34929e-05
7.34866e-05
7.34863e-05
7.34935e-05
7.35097e-05
7.35365e-05
7.3575e-05
7.36262e-05
7.3691e-05
7.37702e-05
7.38645e-05
7.39742e-05
7.40998e-05
7.42415e-05
7.43995e-05
7.45739e-05
7.47648e-05
7.49722e-05
7.51962e-05
7.54366e-05
7.56933e-05
7.59664e-05
7.62556e-05
7.65609e-05
7.68821e-05
7.72191e-05
7.75717e-05
7.79398e-05
7.83232e-05
7.87218e-05
7.91355e-05
7.95641e-05
8.00074e-05
8.04655e-05
8.0938e-05
8.14248e-05
8.19255e-05
8.24396e-05
8.29663e-05
8.35045e-05
8.40528e-05
8.46099e-05
8.51743e-05
8.57449e-05
8.63208e-05
8.69014e-05
8.74863e-05
8.80753e-05
8.86681e-05
8.92647e-05
8.98647e-05
9.04681e-05
9.10745e-05
9.16837e-05
9.22957e-05
9.29101e-05
9.35267e-05
9.41453e-05
9.47655e-05
9.5387e-05
9.60093e-05
9.6632e-05
9.72545e-05
9.78762e-05
9.84963e-05
9.91142e-05
9.97289e-05
0.00010034
0.000100945
0.000101544
0.000102136
0.000102719
0.000103291
0.000103852
0.0001044
0.000104932
0.000105447
0.000105944
0.00010642
0.000106873
0.000107302
0.000107704
0.000108078
0.000108421
0.000108731
0.000109007
0.000109247
0.000109449
0.000109613
0.000109736
0.000109819
0.000109876
0.000109924
7.31201e-05
7.31183e-05
7.31141e-05
7.31079e-05
7.31008e-05
7.30941e-05
7.3089e-05
7.30869e-05
7.30892e-05
7.30974e-05
7.31129e-05
7.31371e-05
7.31711e-05
7.32161e-05
7.32731e-05
7.33429e-05
7.34262e-05
7.35235e-05
7.36355e-05
7.37625e-05
7.39048e-05
7.40625e-05
7.4236e-05
7.44252e-05
7.46303e-05
7.48512e-05
7.50879e-05
7.53405e-05
7.56088e-05
7.58927e-05
7.61922e-05
7.65072e-05
7.68376e-05
7.71832e-05
7.75439e-05
7.79196e-05
7.83101e-05
7.87153e-05
7.91352e-05
7.95695e-05
8.00183e-05
8.04812e-05
8.0958e-05
8.14485e-05
8.19519e-05
8.24675e-05
8.29941e-05
8.35304e-05
8.40749e-05
8.46265e-05
8.51839e-05
8.57465e-05
8.63138e-05
8.68855e-05
8.74614e-05
8.80414e-05
8.86253e-05
8.92129e-05
8.9804e-05
9.03984e-05
9.09958e-05
9.1596e-05
9.21988e-05
9.2804e-05
9.34113e-05
9.40203e-05
9.46307e-05
9.52421e-05
9.58539e-05
9.64657e-05
9.70768e-05
9.76866e-05
9.82942e-05
9.88989e-05
9.94996e-05
0.000100095
0.000100685
0.000101268
0.000101842
0.000102406
0.000102958
0.000103498
0.000104022
0.00010453
0.00010502
0.000105489
0.000105936
0.000106359
0.000106756
0.000107124
0.000107462
0.000107768
0.00010804
0.000108276
0.000108475
0.000108635
0.000108755
0.000108836
0.000108891
0.000108939
7.2678e-05
7.26773e-05
7.26756e-05
7.26733e-05
7.26712e-05
7.26703e-05
7.26718e-05
7.26767e-05
7.26862e-05
7.27016e-05
7.27242e-05
7.27551e-05
7.27953e-05
7.28459e-05
7.29078e-05
7.29818e-05
7.30685e-05
7.31685e-05
7.32823e-05
7.34103e-05
7.35529e-05
7.37102e-05
7.38824e-05
7.40697e-05
7.42722e-05
7.449e-05
7.47229e-05
7.49711e-05
7.52345e-05
7.55131e-05
7.58068e-05
7.61154e-05
7.6439e-05
7.67774e-05
7.71305e-05
7.74982e-05
7.78804e-05
7.82769e-05
7.86878e-05
7.91128e-05
7.95518e-05
8.00048e-05
8.04713e-05
8.0951e-05
8.14433e-05
8.19473e-05
8.24618e-05
8.29854e-05
8.35168e-05
8.40548e-05
8.45984e-05
8.51469e-05
8.57e-05
8.62575e-05
8.68193e-05
8.73853e-05
8.79555e-05
8.85295e-05
8.91071e-05
8.96882e-05
9.02724e-05
9.08596e-05
9.14494e-05
9.20418e-05
9.26363e-05
9.32326e-05
9.38304e-05
9.44293e-05
9.50288e-05
9.56283e-05
9.62272e-05
9.68249e-05
9.74206e-05
9.80135e-05
9.86027e-05
9.91872e-05
9.97658e-05
0.000100337
0.000100901
0.000101454
0.000101997
0.000102526
0.000103041
0.00010354
0.000104021
0.000104482
0.000104922
0.000105337
0.000105727
0.000106088
0.00010642
0.00010672
0.000106987
0.000107218
0.000107413
0.000107569
0.000107686
0.000107763
0.000107816
0.000107863
7.22369e-05
7.2237e-05
7.22374e-05
7.22383e-05
7.22404e-05
7.22444e-05
7.22513e-05
7.2262e-05
7.22776e-05
7.22991e-05
7.23276e-05
7.23641e-05
7.24096e-05
7.24649e-05
7.2531e-05
7.26085e-05
7.2698e-05
7.28001e-05
7.29153e-05
7.3044e-05
7.31864e-05
7.3343e-05
7.35137e-05
7.3699e-05
7.38987e-05
7.41131e-05
7.43421e-05
7.45858e-05
7.48442e-05
7.51172e-05
7.54048e-05
7.5707e-05
7.60236e-05
7.63546e-05
7.66999e-05
7.70594e-05
7.7433e-05
7.78206e-05
7.82221e-05
7.86375e-05
7.90665e-05
7.95091e-05
7.99649e-05
8.04334e-05
8.09141e-05
8.1406e-05
8.19078e-05
8.24182e-05
8.29358e-05
8.34596e-05
8.39885e-05
8.45221e-05
8.50602e-05
8.56026e-05
8.61494e-05
8.67004e-05
8.72557e-05
8.78149e-05
8.83779e-05
8.89443e-05
8.9514e-05
9.00868e-05
9.06623e-05
9.12403e-05
9.18205e-05
9.24027e-05
9.29864e-05
9.35712e-05
9.41566e-05
9.47421e-05
9.53272e-05
9.59111e-05
9.64931e-05
9.70725e-05
9.76483e-05
9.82195e-05
9.8785e-05
9.93437e-05
9.98944e-05
0.000100436
0.000100966
0.000101484
0.000101988
0.000102476
0.000102946
0.000103397
0.000103827
0.000104233
0.000104613
0.000104967
0.000105291
0.000105584
0.000105844
0.000106069
0.000106258
0.000106409
0.000106522
0.000106596
0.000106646
0.000106692
7.17956e-05
7.17964e-05
7.17985e-05
7.18021e-05
7.18076e-05
7.18157e-05
7.18271e-05
7.18426e-05
7.18632e-05
7.18898e-05
7.19233e-05
7.19645e-05
7.20144e-05
7.20737e-05
7.21431e-05
7.22234e-05
7.23152e-05
7.24189e-05
7.2535e-05
7.2664e-05
7.2806e-05
7.29615e-05
7.31306e-05
7.33135e-05
7.35103e-05
7.37211e-05
7.3946e-05
7.41851e-05
7.44382e-05
7.47055e-05
7.49869e-05
7.52823e-05
7.55918e-05
7.59152e-05
7.62524e-05
7.66035e-05
7.69682e-05
7.73466e-05
7.77386e-05
7.81439e-05
7.85626e-05
7.89944e-05
7.9439e-05
7.9896e-05
8.03646e-05
8.08438e-05
8.13324e-05
8.1829e-05
8.23323e-05
8.28411e-05
8.33547e-05
8.38726e-05
8.43948e-05
8.49212e-05
8.5452e-05
8.5987e-05
8.65263e-05
8.70695e-05
8.76166e-05
8.81672e-05
8.87211e-05
8.9278e-05
8.98377e-05
9.03999e-05
9.09644e-05
9.15308e-05
9.20987e-05
9.26678e-05
9.32375e-05
9.38073e-05
9.43767e-05
9.4945e-05
9.55115e-05
9.60753e-05
9.66357e-05
9.71916e-05
9.77421e-05
9.82859e-05
9.88218e-05
9.93486e-05
9.98647e-05
0.000100369
0.000100859
0.000101334
0.000101792
0.00010223
0.000102648
0.000103043
0.000103413
0.000103756
0.000104071
0.000104355
0.000104607
0.000104824
0.000105007
0.000105152
0.000105259
0.000105328
0.000105375
0.00010542
7.13533e-05
7.13547e-05
7.13581e-05
7.13639e-05
7.13723e-05
7.13837e-05
7.13988e-05
7.14183e-05
7.14431e-05
7.14739e-05
7.15114e-05
7.15566e-05
7.161e-05
7.16725e-05
7.17447e-05
7.18273e-05
7.19207e-05
7.20255e-05
7.21421e-05
7.2271e-05
7.24123e-05
7.25664e-05
7.27335e-05
7.29138e-05
7.31074e-05
7.33145e-05
7.35351e-05
7.37693e-05
7.4017e-05
7.42784e-05
7.45534e-05
7.48419e-05
7.5144e-05
7.54596e-05
7.57886e-05
7.61309e-05
7.64866e-05
7.68555e-05
7.72375e-05
7.76325e-05
7.80404e-05
7.84611e-05
7.88942e-05
7.93391e-05
7.97952e-05
8.02613e-05
8.07361e-05
8.12184e-05
8.17066e-05
8.21999e-05
8.26974e-05
8.31988e-05