/*--------------------------------*- C++ -*----------------------------------*\
| =========                 |                                                 |
| \\      /  F ield         | OpenFOAM: The Open Source CFD Toolbox           |
|  \\    /   O peration     | Version:  4.1                                   |
|   \\  /    A nd           | Web:      www.OpenFOAM.org                      |
|    \\/     M anipulation  |                                                 |
\*---------------------------------------------------------------------------*/
FoamFile
{
    version     2.0;
    format      ascii;
    class       volVectorField;
    location    "98";
    object      U;
}
// * * * * * * * * * * * * * * * * * * * * * * * * * * * * * * * * * * * * * //

dimensions      [0 1 -1 0 0 0 0];

internalField   nonuniform List<vector> 
43750
(
(0.00959494 0.000329535 0)
(0.00900786 0.000647211 0)
(0.00825162 0.000687096 0)
(0.00733164 0.000612899 0)
(0.00643826 0.000505653 0)
(0.00566474 0.000390307 0)
(0.00500681 0.000280797 0)
(0.00444517 0.000188138 0)
(0.00397276 0.000117 0)
(0.00358364 6.62937e-05 0)
(0.00326645 3.23795e-05 0)
(0.00300784 1.11864e-05 0)
(0.00279598 -9.61256e-07 0)
(0.00262108 -7.03383e-06 0)
(0.00247492 -9.2301e-06 0)
(0.00235077 -9.08905e-06 0)
(0.00224328 -7.65848e-06 0)
(0.00214836 -5.62726e-06 0)
(0.00206297 -3.42496e-06 0)
(0.00198484 -1.30365e-06 0)
(0.00191237 6.01295e-07 0)
(0.00184443 2.22906e-06 0)
(0.00178026 3.56434e-06 0)
(0.00171933 4.61694e-06 0)
(0.00166134 5.40805e-06 0)
(0.00160608 5.96201e-06 0)
(0.00155343 6.30265e-06 0)
(0.00150333 6.45294e-06 0)
(0.00145571 6.43661e-06 0)
(0.00141051 6.28044e-06 0)
(0.00136761 6.01589e-06 0)
(0.00132684 5.6796e-06 0)
(0.00128798 5.31211e-06 0)
(0.00125074 4.95462e-06 0)
(0.00121484 4.64414e-06 0)
(0.00117997 4.40813e-06 0)
(0.00114586 4.25991e-06 0)
(0.00111231 4.1964e-06 0)
(0.00107918 4.19908e-06 0)
(0.00104639 4.2384e-06 0)
(0.00101394 4.28069e-06 0)
(0.000981877 4.29561e-06 0)
(0.000950268 4.26204e-06 0)
(0.000919185 4.17096e-06 0)
(0.000888689 4.02507e-06 0)
(0.000858811 3.83617e-06 0)
(0.000829546 3.62129e-06 0)
(0.000800856 3.39894e-06 0)
(0.000772665 3.186e-06 0)
(0.000744877 2.99561e-06 0)
(0.000717378 2.83603e-06 0)
(0.000690054 2.71033e-06 0)
(0.000662803 2.61673e-06 0)
(0.00063554 2.54948e-06 0)
(0.000608211 2.50035e-06 0)
(0.000580787 2.46029e-06 0)
(0.000553268 2.42089e-06 0)
(0.000525672 2.37541e-06 0)
(0.000498036 2.31916e-06 0)
(0.000470403 2.2493e-06 0)
(0.000442825 2.1644e-06 0)
(0.000415356 2.0639e-06 0)
(0.000388051 1.94771e-06 0)
(0.000360969 1.81593e-06 0)
(0.000334167 1.66869e-06 0)
(0.000307705 1.50613e-06 0)
(0.000281644 1.32835e-06 0)
(0.000256046 1.13543e-06 0)
(0.000230973 9.274e-07 0)
(0.000206492 7.04314e-07 0)
(0.000182666 4.66196e-07 0)
(0.000159564 2.13076e-07 0)
(0.00013725 -5.50012e-08 0)
(0.000115794 -3.37972e-07 0)
(9.52635e-05 -6.35742e-07 0)
(7.57246e-05 -9.48178e-07 0)
(5.72444e-05 -1.27511e-06 0)
(3.98879e-05 -1.61638e-06 0)
(2.37182e-05 -1.97191e-06 0)
(8.7941e-06 -2.34251e-06 0)
(-4.85186e-06 -2.72773e-06 0)
(-1.71288e-05 -3.1057e-06 0)
(-2.79886e-05 -3.50784e-06 0)
(-3.74246e-05 -3.9137e-06 0)
(-4.53914e-05 -4.33037e-06 0)
(-5.18817e-05 -4.75147e-06 0)
(-5.68795e-05 -5.17099e-06 0)
(-6.03915e-05 -5.59266e-06 0)
(-6.24517e-05 -6.01311e-06 0)
(-6.31385e-05 -6.42141e-06 0)
(-6.24846e-05 -6.7484e-06 0)
(-6.05556e-05 -7.0313e-06 0)
(-5.75421e-05 -7.26146e-06 0)
(-5.36845e-05 -7.40937e-06 0)
(-4.93222e-05 -7.43046e-06 0)
(-4.484e-05 -7.3023e-06 0)
(-4.03028e-05 -7.15046e-06 0)
(-3.4488e-05 -7.44172e-06 0)
(-2.44925e-05 -8.61162e-06 0)
(-8.0922e-06 -8.41799e-06 0)
(0.0101182 0.000392836 0)
(0.0104668 0.000847229 0)
(0.0107361 0.00102722 0)
(0.0108241 0.00108712 0)
(0.0107486 0.00108826 0)
(0.0105579 0.00104199 0)
(0.0102852 0.000960049 0)
(0.00995494 0.000858993 0)
(0.00959078 0.000752382 0)
(0.00921355 0.000648797 0)
(0.0088381 0.000553421 0)
(0.00847372 0.000469186 0)
(0.00812592 0.000397218 0)
(0.00779772 0.000337301 0)
(0.0074903 0.000288406 0)
(0.00720357 0.000249105 0)
(0.00693666 0.000217846 0)
(0.00668829 0.000193109 0)
(0.00645704 0.000173513 0)
(0.00624143 0.000157874 0)
(0.00604007 0.000145216 0)
(0.00585168 0.000134767 0)
(0.00567512 0.000125929 0)
(0.00550938 0.000118251 0)
(0.00535362 0.000111404 0)
(0.00520707 0.000105156 0)
(0.00506907 9.93585e-05 0)
(0.00493899 9.39316e-05 0)
(0.00481623 8.88579e-05 0)
(0.00470018 8.41683e-05 0)
(0.00459017 7.99258e-05 0)
(0.00448547 7.62029e-05 0)
(0.00438534 7.30571e-05 0)
(0.00428896 7.05087e-05 0)
(0.00419556 6.85289e-05 0)
(0.00410439 6.70389e-05 0)
(0.00401485 6.59214e-05 0)
(0.00392649 6.50412e-05 0)
(0.00383903 6.42685e-05 0)
(0.00375242 6.34985e-05 0)
(0.00366675 6.26647e-05 0)
(0.00358222 6.17404e-05 0)
(0.00349909 6.07332e-05 0)
(0.00341758 5.96738e-05 0)
(0.00333783 5.86052e-05 0)
(0.00325987 5.75743e-05 0)
(0.00318358 5.66275e-05 0)
(0.00310872 5.58078e-05 0)
(0.00303498 5.51512e-05 0)
(0.002962 5.46825e-05 0)
(0.00288943 5.44103e-05 0)
(0.00281695 5.4324e-05 0)
(0.00274429 5.43939e-05 0)
(0.00267126 5.4577e-05 0)
(0.00259776 5.48234e-05 0)
(0.00252372 5.5085e-05 0)
(0.00244915 5.53211e-05 0)
(0.00237407 5.55012e-05 0)
(0.00229853 5.5605e-05 0)
(0.00222261 5.56201e-05 0)
(0.00214638 5.55397e-05 0)
(0.00206991 5.53594e-05 0)
(0.0019933 5.50764e-05 0)
(0.00191663 5.4688e-05 0)
(0.00184 5.41918e-05 0)
(0.0017635 5.35849e-05 0)
(0.00168724 5.28646e-05 0)
(0.00161132 5.20283e-05 0)
(0.00153587 5.10731e-05 0)
(0.00146098 4.99967e-05 0)
(0.00138679 4.8797e-05 0)
(0.00131342 4.74723e-05 0)
(0.00124099 4.60213e-05 0)
(0.00116964 4.44436e-05 0)
(0.00109949 4.27395e-05 0)
(0.00103069 4.09101e-05 0)
(0.000963345 3.89576e-05 0)
(0.000897601 3.68854e-05 0)
(0.000833577 3.4698e-05 0)
(0.000771393 3.24011e-05 0)
(0.000711157 3.00027e-05 0)
(0.00065298 2.75364e-05 0)
(0.000596958 2.4978e-05 0)
(0.000543159 2.23621e-05 0)
(0.000491649 1.96989e-05 0)
(0.000442465 1.7012e-05 0)
(0.00039563 1.43297e-05 0)
(0.000351137 1.1675e-05 0)
(0.000308949 9.08171e-06 0)
(0.000269021 6.59597e-06 0)
(0.000231221 4.31195e-06 0)
(0.000195364 2.2661e-06 0)
(0.000161248 5.4855e-07 0)
(0.00012858 -7.08804e-07 0)
(9.69754e-05 -1.39425e-06 0)
(6.60567e-05 -1.71149e-06 0)
(3.60193e-05 -2.9458e-06 0)
(9.23212e-06 -8.16232e-06 0)
(-7.98893e-06 -1.95159e-05 0)
(-6.52235e-06 -2.41978e-05 0)
(0.0100098 0.000123038 0)
(0.0101314 0.000352603 0)
(0.0103504 0.000537231 0)
(0.0105961 0.000683591 0)
(0.0108181 0.0007955 0)
(0.0109964 0.000866571 0)
(0.0111199 0.000896403 0)
(0.0111823 0.0008931 0)
(0.0111846 0.000866725 0)
(0.0111341 0.000825672 0)
(0.01104 0.000776466 0)
(0.0109114 0.000724101 0)
(0.0107565 0.000672107 0)
(0.0105824 0.000622671 0)
(0.010395 0.000576942 0)
(0.0101992 0.000535365 0)
(0.00999859 0.000497941 0)
(0.0097959 0.000464406 0)
(0.00959325 0.000434352 0)
(0.00939223 0.000407323 0)
(0.00919398 0.000382871 0)
(0.00899939 0.000360584 0)
(0.00880908 0.000340104 0)
(0.00862352 0.000321135 0)
(0.00844306 0.000303438 0)
(0.00826792 0.000286842 0)
(0.00809821 0.000271237 0)
(0.00793396 0.000256581 0)
(0.0077751 0.000242897 0)
(0.00762148 0.000230269 0)
(0.00747282 0.000218826 0)
(0.00732879 0.000208717 0)
(0.00718895 0.000200077 0)
(0.00705277 0.000192988 0)
(0.00691968 0.000187442 0)
(0.00678904 0.000183319 0)
(0.00666018 0.000180378 0)
(0.00653251 0.00017828 0)
(0.00640549 0.00017662 0)
(0.00627877 0.000174992 0)
(0.00615221 0.000173048 0)
(0.00602589 0.000170566 0)
(0.00590019 0.000167481 0)
(0.00577565 0.000163899 0)
(0.00565294 0.000160059 0)
(0.00553268 0.000156271 0)
(0.00541534 0.000152842 0)
(0.00530114 0.000150015 0)
(0.00518992 0.00014793 0)
(0.00508127 0.000146622 0)
(0.00497455 0.000146038 0)
(0.00486901 0.000146064 0)
(0.00476397 0.000146557 0)
(0.00465885 0.000147365 0)
(0.00455325 0.000148351 0)
(0.00444692 0.000149398 0)
(0.00433973 0.000150418 0)
(0.00423166 0.00015135 0)
(0.0041227 0.000152153 0)
(0.0040129 0.000152804 0)
(0.00390228 0.000153287 0)
(0.00379091 0.000153594 0)
(0.00367884 0.000153714 0)
(0.00356612 0.00015364 0)
(0.00345283 0.000153364 0)
(0.00333904 0.000152876 0)
(0.00322485 0.000152166 0)
(0.00311034 0.000151226 0)
(0.00299561 0.000150047 0)
(0.00288079 0.00014862 0)
(0.00276597 0.000146938 0)
(0.00265129 0.000144993 0)
(0.00253688 0.000142782 0)
(0.00242287 0.000140299 0)
(0.00230941 0.000137542 0)
(0.00219663 0.000134513 0)
(0.00208469 0.000131214 0)
(0.00197373 0.00012765 0)
(0.00186389 0.000123831 0)
(0.00175532 0.00011977 0)
(0.00164816 0.000115484 0)
(0.00154254 0.000110997 0)
(0.00143857 0.00010633 0)
(0.00133637 0.000101516 0)
(0.00123603 9.65918e-05 0)
(0.00113761 9.16009e-05 0)
(0.00104118 8.65956e-05 0)
(0.000946741 8.16339e-05 0)
(0.000854305 7.6785e-05 0)
(0.000763836 7.21294e-05 0)
(0.000675252 6.77422e-05 0)
(0.000588432 6.37597e-05 0)
(0.000503223 6.03395e-05 0)
(0.000419429 5.76682e-05 0)
(0.00033682 5.58461e-05 0)
(0.000255203 5.43457e-05 0)
(0.000174858 5.05169e-05 0)
(9.82618e-05 3.77183e-05 0)
(3.43453e-05 8.69515e-06 0)
(-7.42202e-07 -2.12972e-05 0)
(0.0100081 0.000107747 0)
(0.0100669 0.000306766 0)
(0.0101719 0.0004628 0)
(0.0103029 0.000574369 0)
(0.0104434 0.000654687 0)
(0.0105881 0.000711868 0)
(0.0107316 0.000748796 0)
(0.0108648 0.000768424 0)
(0.0109793 0.000774368 0)
(0.0110699 0.000769825 0)
(0.0111348 0.000757434 0)
(0.0111739 0.000739543 0)
(0.0111884 0.00071821 0)
(0.0111801 0.000695077 0)
(0.0111515 0.000671325 0)
(0.0111051 0.000647737 0)
(0.0110433 0.000624778 0)
(0.0109682 0.000602675 0)
(0.0108818 0.000581488 0)
(0.0107857 0.00056117 0)
(0.0106816 0.000541613 0)
(0.0105706 0.000522689 0)
(0.0104538 0.000504274 0)
(0.0103324 0.000486268 0)
(0.0102071 0.000468605 0)
(0.0100787 0.000451269 0)
(0.00994784 0.000434297 0)
(0.00981517 0.000417785 0)
(0.00968113 0.000401885 0)
(0.00954614 0.000386804 0)
(0.00941051 0.000372784 0)
(0.0092745 0.000360079 0)
(0.00913829 0.000348926 0)
(0.00900198 0.000339506 0)
(0.0088656 0.000331916 0)
(0.00872907 0.000326139 0)
(0.00859222 0.000322031 0)
(0.00845478 0.000319321 0)
(0.00831641 0.000317621 0)
(0.00817669 0.000316457 0)
(0.00803521 0.000315305 0)
(0.00789163 0.000313646 0)
(0.00774581 0.000311031 0)
(0.00759789 0.00030716 0)
(0.00744844 0.000301954 0)
(0.00729845 0.000295606 0)
(0.00714922 0.000288578 0)
(0.00700218 0.000281518 0)
(0.00685854 0.000275124 0)
(0.00671906 0.000269983 0)
(0.00658387 0.000266446 0)
(0.00645248 0.000264575 0)
(0.00632397 0.000264181 0)
(0.00619728 0.000264918 0)
(0.00607138 0.000266394 0)
(0.00594546 0.000268261 0)
(0.005819 0.00027026 0)
(0.0056917 0.000272229 0)
(0.00556339 0.00027408 0)
(0.00543402 0.000275768 0)
(0.00530355 0.000277272 0)
(0.00517196 0.000278575 0)
(0.00503924 0.000279662 0)
(0.00490538 0.000280517 0)
(0.00477039 0.000281119 0)
(0.00463428 0.000281452 0)
(0.00449709 0.000281495 0)
(0.00435886 0.00028123 0)
(0.00421964 0.000280639 0)
(0.00407949 0.000279705 0)
(0.00393848 0.00027841 0)
(0.0037967 0.00027674 0)
(0.00365423 0.000274682 0)
(0.00351118 0.000272225 0)
(0.00336766 0.00026936 0)
(0.00322378 0.000266084 0)
(0.00307967 0.000262394 0)
(0.00293544 0.000258296 0)
(0.00279125 0.000253798 0)
(0.0026472 0.000248914 0)
(0.00250345 0.000243666 0)
(0.00236013 0.000238082 0)
(0.00221735 0.000232196 0)
(0.00207525 0.00022605 0)
(0.00193393 0.000219698 0)
(0.0017935 0.000213201 0)
(0.00165404 0.000206631 0)
(0.00151561 0.000200071 0)
(0.00137827 0.000193617 0)
(0.00124203 0.000187378 0)
(0.00110689 0.000181478 0)
(0.000972831 0.000176073 0)
(0.000839801 0.000171346 0)
(0.000707749 0.000167494 0)
(0.000576625 0.000164577 0)
(0.000446416 0.000161802 0)
(0.000317386 0.000155308 0)
(0.000191677 0.000134474 0)
(7.99076e-05 8.34432e-05 0)
(5.52693e-06 8.10542e-06 0)
(0.0100043 8.09167e-05 0)
(0.0100396 0.000233136 0)
(0.010106 0.000361611 0)
(0.0101914 0.000461443 0)
(0.010283 0.000537035 0)
(0.0103757 0.000593223 0)
(0.0104684 0.000632538 0)
(0.010559 0.000657458 0)
(0.0106448 0.000671215 0)
(0.0107236 0.000676896 0)
(0.0107942 0.000676897 0)
(0.0108556 0.00067302 0)
(0.0109071 0.000666662 0)
(0.0109483 0.00065886 0)
(0.0109792 0.000650318 0)
(0.0109999 0.000641463 0)
(0.0110106 0.000632524 0)
(0.0110117 0.000623587 0)
(0.0110035 0.000614646 0)
(0.0109863 0.000605636 0)
(0.0109606 0.000596466 0)
(0.0109267 0.00058704 0)
(0.010885 0.000577278 0)
(0.0108357 0.000567126 0)
(0.0107793 0.000556571 0)
(0.0107161 0.000545644 0)
(0.0106464 0.000534431 0)
(0.0105706 0.000523075 0)
(0.0104891 0.000511773 0)
(0.0104021 0.000500769 0)
(0.0103101 0.000490345 0)
(0.0102134 0.000480796 0)
(0.0101124 0.000472405 0)
(0.0100074 0.000465413 0)
(0.00989881 0.000459993 0)
(0.00978686 0.000456224 0)
(0.00967171 0.00045408 0)
(0.00955344 0.000453419 0)
(0.00943197 0.000454 0)
(0.00930709 0.000455483 0)
(0.0091784 0.000457449 0)
(0.00904537 0.000459402 0)
(0.00890741 0.000460772 0)
(0.00876397 0.000460939 0)
(0.00861481 0.0004593 0)
(0.00846019 0.000455403 0)
(0.0083011 0.000449113 0)
(0.00813926 0.00044075 0)
(0.00797694 0.000431107 0)
(0.00781645 0.000421317 0)
(0.00765971 0.000412568 0)
(0.0075078 0.000405803 0)
(0.00736084 0.000401501 0)
(0.00721812 0.000399636 0)
(0.00707845 0.000399786 0)
(0.00694056 0.000401349 0)
(0.00680336 0.000403736 0)
(0.00666604 0.000406497 0)
(0.00652812 0.00040935 0)
(0.0063893 0.000412152 0)
(0.00624941 0.000414841 0)
(0.00610834 0.000417387 0)
(0.00596598 0.000419765 0)
(0.00582226 0.000421948 0)
(0.00567709 0.000423905 0)
(0.00553044 0.000425604 0)
(0.00538224 0.000427013 0)
(0.00523248 0.0004281 0)
(0.00508114 0.000428837 0)
(0.00492823 0.000429193 0)
(0.00477374 0.000429142 0)
(0.0046177 0.000428657 0)
(0.00446014 0.000427716 0)
(0.0043011 0.000426297 0)
(0.00414065 0.000424383 0)
(0.00397883 0.00042196 0)
(0.00381573 0.000419019 0)
(0.00365143 0.000415559 0)
(0.00348601 0.000411581 0)
(0.00331958 0.000407096 0)
(0.00315223 0.000402122 0)
(0.00298408 0.000396688 0)
(0.00281525 0.000390828 0)
(0.00264583 0.000384591 0)
(0.00247596 0.000378034 0)
(0.00230573 0.000371228 0)
(0.00213525 0.000364257 0)
(0.00196462 0.000357218 0)
(0.00179393 0.000350222 0)
(0.00162327 0.000343395 0)
(0.0014527 0.000336883 0)
(0.00128228 0.000330849 0)
(0.00111208 0.000325478 0)
(0.000942172 0.000320951 0)
(0.000772655 0.000317283 0)
(0.000603659 0.000313472 0)
(0.000435473 0.000304576 0)
(0.000269979 0.000275703 0)
(0.000119127 0.000199533 0)
(1.15589e-05 6.26471e-05 0)
(0.0100027 6.38878e-05 0)
(0.0100258 0.00018706 0)
(0.0100718 0.000297083 0)
(0.0101343 0.00038861 0)
(0.0102036 0.000461661 0)
(0.0102737 0.000518297 0)
(0.010342 0.000560251 0)
(0.010407 0.000589341 0)
(0.0104672 0.000607994 0)
(0.0105217 0.000618805 0)
(0.0105705 0.000624017 0)
(0.0106136 0.000625406 0)
(0.0106515 0.00062436 0)
(0.0106844 0.000621929 0)
(0.0107124 0.000618845 0)
(0.0107359 0.000615569 0)
(0.0107548 0.000612354 0)
(0.0107694 0.000609303 0)
(0.0107795 0.000606422 0)
(0.0107852 0.000603644 0)
(0.0107862 0.000600872 0)
(0.0107824 0.000597993 0)
(0.0107736 0.000594902 0)
(0.0107597 0.000591515 0)
(0.0107404 0.00058778 0)
(0.0107157 0.000583688 0)
(0.0106852 0.000579277 0)
(0.0106491 0.000574639 0)
(0.0106071 0.000569918 0)
(0.0105594 0.000565304 0)
(0.0105059 0.000561024 0)
(0.0104468 0.000557326 0)
(0.0103822 0.000554461 0)
(0.0103124 0.000552654 0)
(0.0102376 0.000552089 0)
(0.0101581 0.000552885 0)
(0.010074 0.000555089 0)
(0.00998543 0.000558669 0)
(0.00989248 0.000563527 0)
(0.00979502 0.000569506 0)
(0.00969275 0.000576398 0)
(0.00958512 0.000583921 0)
(0.00947136 0.000591656 0)
(0.00935046 0.000598979 0)
(0.00922141 0.000605013 0)
(0.00908345 0.000608702 0)
(0.00893648 0.000609028 0)
(0.00878138 0.000605355 0)
(0.00862012 0.000597749 0)
(0.00845549 0.000587117 0)
(0.00829061 0.000575054 0)
(0.00812818 0.000563418 0)
(0.00797 0.00055382 0)
(0.00781668 0.000547225 0)
(0.00766781 0.000543829 0)
(0.00752232 0.000543205 0)
(0.00737896 0.000544607 0)
(0.0072366 0.00054727 0)
(0.00709438 0.000550602 0)
(0.00695174 0.000554233 0)
(0.00680831 0.00055797 0)
(0.00666386 0.000561722 0)
(0.0065182 0.00056544 0)
(0.00637116 0.00056908 0)
(0.00622261 0.000572596 0)
(0.00607243 0.000575939 0)
(0.00592051 0.000579061 0)
(0.00576675 0.000581917 0)
(0.00561109 0.000584463 0)
(0.00545347 0.000586658 0)
(0.00529382 0.000588463 0)
(0.00513212 0.000589839 0)
(0.00496834 0.000590753 0)
(0.00480246 0.000591172 0)
(0.00463448 0.000591066 0)
(0.00446439 0.000590413 0)
(0.00429223 0.000589193 0)
(0.00411801 0.000587392 0)
(0.00394178 0.000585004 0)
(0.00376358 0.00058203 0)
(0.00358347 0.00057848 0)
(0.00340153 0.000574374 0)
(0.00321782 0.000569742 0)
(0.00303244 0.000564627 0)
(0.00284549 0.000559084 0)
(0.00265705 0.000553183 0)
(0.00246724 0.000547006 0)
(0.00227616 0.000540653 0)
(0.00208394 0.000534237 0)
(0.00189068 0.000527888 0)
(0.00169651 0.000521751 0)
(0.00150156 0.000515986 0)
(0.00130597 0.000510764 0)
(0.00110991 0.000506241 0)
(0.000913568 0.000502382 0)
(0.000717179 0.000498005 0)
(0.000521098 0.000487123 0)
(0.000327083 0.000450282 0)
(0.00014805 0.000346636 0)
(1.62211e-05 0.000136058 0)
(0.0100019 5.2944e-05 0)
(0.0100182 0.000156272 0)
(0.0100512 0.000251466 0)
(0.0100974 0.000333967 0)
(0.0101505 0.000402503 0)
(0.0102057 0.000457921 0)
(0.0102603 0.000501452 0)
(0.0103126 0.000534369 0)
(0.010361 0.000558234 0)
(0.0104043 0.000574821 0)
(0.0104421 0.000585813 0)
(0.0104745 0.000592659 0)
(0.0105018 0.00059657 0)
(0.0105242 0.000598533 0)
(0.0105424 0.000599311 0)
(0.0105568 0.000599456 0)
(0.0105678 0.00059934 0)
(0.0105756 0.000599195 0)
(0.0105807 0.000599142 0)
(0.010583 0.000599226 0)
(0.0105827 0.000599436 0)
(0.0105797 0.000599733 0)
(0.0105739 0.000600064 0)
(0.0105652 0.000600379 0)
(0.0105534 0.000600643 0)
(0.0105382 0.000600845 0)
(0.0105194 0.000601005 0)
(0.0104967 0.000601183 0)
(0.01047 0.000601474 0)
(0.0104391 0.00060201 0)
(0.0104038 0.000602951 0)
(0.0103641 0.00060448 0)
(0.01032 0.000606782 0)
(0.0102714 0.000610034 0)
(0.0102184 0.000614388 0)
(0.0101611 0.00061996 0)
(0.0100996 0.000626819 0)
(0.010034 0.000634989 0)
(0.00996428 0.000644468 0)
(0.00989028 0.000655245 0)
(0.0098118 0.000667321 0)
(0.00972836 0.000680685 0)
(0.00963917 0.000695226 0)
(0.0095431 0.000710566 0)
(0.00943874 0.000725885 0)
(0.00932464 0.000739827 0)
(0.0091997 0.000750643 0)
(0.00906362 0.000756599 0)
(0.0089173 0.000756558 0)
(0.0087629 0.000750491 0)
(0.00860349 0.000739648 0)
(0.00844243 0.000726268 0)
(0.00828264 0.000712923 0)
(0.00812601 0.000701782 0)
(0.00797329 0.00069411 0)
(0.00782421 0.00069016 0)
(0.00767791 0.000689421 0)
(0.00753333 0.000691036 0)
(0.00738952 0.000694159 0)
(0.00724576 0.000698157 0)
(0.00710154 0.000702645 0)
(0.00695652 0.000707419 0)
(0.00681043 0.00071237 0)
(0.00666305 0.000717424 0)
(0.0065142 0.000722515 0)
(0.00636371 0.000727574 0)
(0.00621144 0.000732537 0)
(0.00605724 0.000737342 0)
(0.005901 0.000741932 0)
(0.00574262 0.000746253 0)
(0.005582 0.000750253 0)
(0.00541907 0.000753885 0)
(0.00525375 0.000757101 0)
(0.00508597 0.00075986 0)
(0.00491569 0.000762122 0)
(0.00474286 0.000763851 0)
(0.00456746 0.000765018 0)
(0.00438946 0.000765596 0)
(0.00420885 0.00076557 0)
(0.00402564 0.000764927 0)
(0.00383984 0.000763667 0)
(0.00365147 0.000761798 0)
(0.00346058 0.00075934 0)
(0.00326722 0.000756323 0)
(0.00307144 0.000752792 0)
(0.00287333 0.000748807 0)
(0.00267297 0.000744441 0)
(0.00247048 0.000739783 0)
(0.00226595 0.000734937 0)
(0.00205954 0.000730024 0)
(0.00185138 0.000725175 0)
(0.00164163 0.000720534 0)
(0.00143049 0.000716249 0)
(0.00121818 0.000712445 0)
(0.00100493 0.000709039 0)
(0.000791054 0.00070467 0)
(0.000576974 0.000692277 0)
(0.000364439 0.00064759 0)
(0.000167044 0.00051495 0)
(1.93036e-05 0.000222874 0)
(0.0100014 4.5195e-05 0)
(0.0100132 0.000133853 0)
(0.0100374 0.000217045 0)
(0.010072 0.000291368 0)
(0.0101128 0.000355357 0)
(0.0101563 0.000409127 0)
(0.0102002 0.00045335 0)
(0.0102429 0.000488839 0)
(0.0102829 0.000516616 0)
(0.0103192 0.000537902 0)
(0.010351 0.00055395 0)
(0.0103782 0.0005659 0)
(0.0104007 0.000574742 0)
(0.0104187 0.00058131 0)
(0.0104324 0.000586287 0)
(0.0104422 0.000590203 0)
(0.0104484 0.00059345 0)
(0.0104513 0.00059631 0)
(0.0104512 0.000598972 0)
(0.0104484 0.000601556 0)
(0.0104431 0.000604133 0)
(0.0104353 0.00060674 0)
(0.0104251 0.000609396 0)
(0.0104126 0.000612112 0)
(0.0103976 0.000614905 0)
(0.0103802 0.0006178 0)
(0.0103601 0.000620844 0)
(0.0103372 0.000624101 0)
(0.0103115 0.000627663 0)
(0.0102828 0.000631639 0)
(0.010251 0.00063616 0)
(0.010216 0.000641367 0)
(0.0101778 0.000647407 0)
(0.0101362 0.000654417 0)
(0.0100914 0.000662522 0)
(0.0100433 0.000671822 0)
(0.00999198 0.000682389 0)
(0.00993741 0.000694271 0)
(0.00987959 0.000707522 0)
(0.00981844 0.000722234 0)
(0.00975375 0.000738579 0)
(0.00968515 0.000756802 0)
(0.00961196 0.000777133 0)
(0.00953314 0.000799562 0)
(0.00944727 0.000823536 0)
(0.00935271 0.000847707 0)
(0.00924785 0.000869908 0)
(0.0091316 0.000887518 0)
(0.00900382 0.000898181 0)
(0.00886562 0.000900632 0)
(0.00871925 0.000895251 0)
(0.00856772 0.000884054 0)
(0.00841409 0.000870083 0)
(0.00826088 0.000856464 0)
(0.00810966 0.000845565 0)
(0.00796098 0.000838554 0)
(0.00781462 0.000835476 0)
(0.00766993 0.000835652 0)
(0.00752616 0.000838166 0)
(0.00738263 0.000842206 0)
(0.0072388 0.000847207 0)
(0.00709429 0.000852836 0)
(0.00694879 0.000858905 0)
(0.00680207 0.000865298 0)
(0.00665392 0.000871921 0)
(0.00650415 0.000878687 0)
(0.00635258 0.000885511 0)
(0.00619908 0.000892318 0)
(0.00604349 0.000899036 0)
(0.0058857 0.000905599 0)
(0.00572558 0.000911946 0)
(0.00556303 0.000918017 0)
(0.00539794 0.000923758 0)
(0.00523024 0.000929116 0)
(0.00505984 0.000934043 0)
(0.00488666 0.000938492 0)
(0.00471064 0.000942425 0)
(0.00453174 0.000945806 0)
(0.0043499 0.000948605 0)
(0.00416509 0.0009508 0)
(0.0039773 0.000952378 0)
(0.00378651 0.000953333 0)
(0.00359273 0.000953672 0)
(0.00339597 0.000953411 0)
(0.00319628 0.000952581 0)
(0.0029937 0.000951224 0)
(0.00278831 0.000949398 0)
(0.00258018 0.000947176 0)
(0.00236943 0.000944642 0)
(0.00215618 0.000941897 0)
(0.00194059 0.000939051 0)
(0.00172283 0.000936223 0)
(0.00150311 0.000933532 0)
(0.00128167 0.000931071 0)
(0.00105877 0.000928708 0)
(0.000834731 0.000924892 0)
(0.00061007 0.00091143 0)
(0.000386571 0.000859021 0)
(0.000178269 0.000696409 0)
(2.10958e-05 0.000318113 0)
(0.010001 3.95086e-05 0)
(0.0100098 0.000117281 0)
(0.0100279 0.000191228 0)
(0.0100542 0.000258849 0)
(0.0100858 0.000318767 0)
(0.0101201 0.000370695 0)
(0.0101552 0.000414892 0)
(0.0101899 0.000451852 0)
(0.0102227 0.000482265 0)
(0.0102529 0.000506995 0)
(0.0102797 0.000526976 0)
(0.0103027 0.000543103 0)
(0.0103219 0.000556176 0)
(0.0103371 0.000566891 0)
(0.0103485 0.000575835 0)
(0.0103562 0.000583484 0)
(0.0103604 0.000590212 0)
(0.0103614 0.0005963 0)
(0.0103592 0.00060196 0)
(0.0103542 0.000607344 0)
(0.0103464 0.00061256 0)
(0.010336 0.000617687 0)
(0.010323 0.000622786 0)
(0.0103076 0.000627907 0)
(0.0102896 0.000633101 0)
(0.0102692 0.000638426 0)
(0.0102464 0.000643949 0)
(0.010221 0.00064975 0)
(0.010193 0.000655924 0)
(0.0101625 0.000662581 0)
(0.0101293 0.000669841 0)
(0.0100934 0.000677829 0)
(0.0100549 0.000686674 0)
(0.0100138 0.000696498 0)
(0.00996997 0.00070741 0)
(0.00992356 0.000719504 0)
(0.00987458 0.000732854 0)
(0.00982303 0.000747526 0)
(0.00976892 0.000763609 0)
(0.00971221 0.000781272 0)
(0.00965275 0.000800823 0)
(0.00959025 0.000822724 0)
(0.00952418 0.000847511 0)
(0.00945369 0.000875535 0)
(0.00937758 0.000906584 0)
(0.00929435 0.000939481 0)
(0.00920243 0.000971915 0)
(0.00910048 0.0010007 0)
(0.00898778 0.00102252 0)
(0.0088646 0.00103497 0)
(0.00873224 0.00103742 0)
(0.00859286 0.00103129 0)
(0.00844902 0.00101963 0)
(0.00830312 0.00100612 0)
(0.008157 0.000993951 0)
(0.00801172 0.000985161 0)
(0.0078676 0.000980444 0)
(0.00772447 0.000979483 0)
(0.00758189 0.000981465 0)
(0.00743938 0.000985528 0)
(0.0072965 0.000991 0)
(0.0071529 0.000997445 0)
(0.00700828 0.0010046 0)
(0.00686242 0.00101232 0)
(0.0067151 0.00102046 0)
(0.00656614 0.00102893 0)
(0.00641538 0.00103763 0)
(0.00626264 0.00104645 0)
(0.0061078 0.00105533 0)
(0.00595071 0.00106418 0)
(0.00579125 0.00107293 0)
(0.00562931 0.00108152 0)
(0.00546477 0.00108988 0)
(0.00529754 0.00109796 0)
(0.00512751 0.00110568 0)
(0.00495461 0.00111301 0)
(0.00477875 0.0011199 0)
(0.00459986 0.00112629 0)
(0.00441788 0.00113215 0)
(0.00423275 0.00113745 0)
(0.00404444 0.00114215 0)
(0.00385291 0.00114625 0)
(0.00365816 0.00114974 0)
(0.00346016 0.00115261 0)
(0.00325895 0.00115488 0)
(0.00305455 0.00115658 0)
(0.002847 0.00115774 0)
(0.0026364 0.00115841 0)
(0.00242282 0.00115866 0)
(0.00220638 0.00115855 0)
(0.00198724 0.00115819 0)
(0.00176557 0.00115764 0)
(0.00154158 0.00115701 0)
(0.0013155 0.00115635 0)
(0.0010876 0.00115548 0)
(0.000858212 0.00115264 0)
(0.000627896 0.00113845 0)
(0.00039849 0.00107842 0)
(0.000184275 0.000885247 0)
(2.20153e-05 0.000418119 0)
(0.0100008 3.52547e-05 0)
(0.0100074 0.000104831 0)
(0.0100212 0.000171622 0)
(0.0100413 0.000233758 0)
(0.0100659 0.000290058 0)
(0.010093 0.000340081 0)
(0.0101211 0.000383851 0)
(0.0101491 0.000421641 0)
(0.010176 0.000453903 0)
(0.0102008 0.000481238 0)
(0.0102231 0.00050433 0)
(0.0102423 0.000523867 0)
(0.0102583 0.000540491 0)
(0.010271 0.000554781 0)
(0.0102803 0.000567239 0)
(0.0102863 0.000578289 0)
(0.0102892 0.000588279 0)
(0.0102889 0.000597485 0)
(0.0102858 0.000606122 0)
(0.0102797 0.000614356 0)
(0.010271 0.000622317 0)
(0.0102595 0.000630105 0)
(0.0102455 0.000637802 0)
(0.0102289 0.000645481 0)
(0.0102097 0.00065321 0)
(0.010188 0.000661062 0)
(0.0101638 0.000669114 0)
(0.010137 0.000677452 0)
(0.0101077 0.000686173 0)
(0.0100759 0.000695382 0)
(0.0100415 0.000705192 0)
(0.0100046 0.000715718 0)
(0.00996511 0.000727079 0)
(0.00992318 0.000739385 0)
(0.00987882 0.000752741 0)
(0.00983207 0.000767238 0)
(0.00978298 0.000782952 0)
(0.00973158 0.000799963 0)
(0.00967791 0.000818392 0)
(0.00962194 0.000838471 0)
(0.00956358 0.00086062 0)
(0.00950259 0.000885484 0)
(0.00943855 0.000913844 0)
(0.00937077 0.000946354 0)
(0.0092983 0.000983092 0)
(0.00921994 0.00102308 0)
(0.0091344 0.00106399 0)
(0.00904049 0.00110233 0)
(0.00893742 0.00113417 0)
(0.008825 0.00115623 0)
(0.00870387 0.001167 0)
(0.00857537 0.00116725 0)
(0.00844131 0.00115979 0)
(0.00830364 0.00114844 0)
(0.008164 0.00113694 0)
(0.00802359 0.00112794 0)
(0.00788304 0.00112271 0)
(0.00774252 0.00112135 0)
(0.00760192 0.00112325 0)
(0.00746097 0.0011276 0)
(0.00731938 0.0011337 0)
(0.00717688 0.00114107 0)
(0.00703323 0.0011494 0)
(0.00688822 0.0011585 0)
(0.00674168 0.00116822 0)
(0.00659342 0.00117844 0)
(0.00644328 0.00118904 0)
(0.00629113 0.00119992 0)
(0.00613682 0.001211 0)
(0.00598021 0.00122217 0)
(0.00582119 0.00123337 0)
(0.00565964 0.00124452 0)
(0.00549545 0.00125556 0)
(0.00532851 0.0012664 0)
(0.00515873 0.00127699 0)
(0.00498602 0.00128728 0)
(0.00481028 0.00129719 0)
(0.00463145 0.00130669 0)
(0.00444945 0.00131572 0)
(0.00426422 0.00132423 0)
(0.00407573 0.00133221 0)
(0.00388391 0.0013396 0)
(0.00368876 0.0013464 0)
(0.00349026 0.00135258 0)
(0.0032884 0.00135815 0)
(0.00308323 0.0013631 0)
(0.00287476 0.00136747 0)
(0.00266308 0.00137127 0)
(0.00244826 0.00137454 0)
(0.00223041 0.00137734 0)
(0.00200969 0.00137971 0)
(0.00178624 0.00138172 0)
(0.00156029 0.00138341 0)
(0.00133205 0.00138483 0)
(0.00110179 0.00138573 0)
(0.000869824 0.00138416 0)
(0.000636757 0.00136948 0)
(0.000404451 0.0013019 0)
(0.000187272 0.00107785 0)
(2.2445e-05 0.000520581 0)
(0.0100006 3.20222e-05 0)
(0.0100057 9.53373e-05 0)
(0.0100163 0.000156551 0)
(0.0100319 0.000214246 0)
(0.010051 0.000267452 0)
(0.0100724 0.000315703 0)
(0.0100949 0.000358894 0)
(0.0101175 0.000397142 0)
(0.0101393 0.000430726 0)
(0.0101596 0.000460058 0)
(0.0101778 0.000485632 0)
(0.0101937 0.000507973 0)
(0.0102068 0.000527592 0)
(0.010217 0.000544963 0)
(0.0102243 0.000560514 0)
(0.0102287 0.000574618 0)
(0.0102302 0.000587592 0)
(0.0102289 0.000599698 0)
(0.0102248 0.00061115 0)
(0.010218 0.000622121 0)
(0.0102085 0.000632751 0)
(0.0101965 0.000643155 0)
(0.010182 0.000653432 0)
(0.0101649 0.000663666 0)
(0.0101453 0.00067394 0)
(0.0101232 0.000684333 0)
(0.0100985 0.000694928 0)
(0.0100714 0.000705813 0)
(0.0100418 0.000717081 0)
(0.0100096 0.000728832 0)
(0.00997493 0.00074117 0)
(0.00993777 0.000754201 0)
(0.00989813 0.000768032 0)
(0.00985606 0.000782768 0)
(0.00981159 0.000798507 0)
(0.00976476 0.000815334 0)
(0.00971564 0.00083333 0)
(0.00966425 0.000852583 0)
(0.00961063 0.000873242 0)
(0.00955478 0.000895598 0)
(0.00949659 0.000920174 0)
(0.00943587 0.000947771 0)
(0.00937223 0.000979373 0)
(0.00930508 0.00101586 0)
(0.00923362 0.00105752 0)
(0.00915692 0.0011035 0)
(0.009074 0.00115149 0)
(0.00898396 0.00119781 0)
(0.00888617 0.00123811 0)
(0.0087804 0.00126859 0)
(0.00866692 0.0012871 0)
(0.00854655 0.00129388 0)
(0.00842047 0.00129138 0)
(0.00829007 0.00128344 0)
(0.00815667 0.001274 0)
(0.00802133 0.00126613 0)
(0.00788476 0.00126152 0)
(0.00774731 0.00126061 0)
(0.00760909 0.00126302 0)
(0.00747003 0.00126807 0)
(0.00732996 0.0012751 0)
(0.00718871 0.0012836 0)
(0.00704611 0.00129327 0)
(0.00690199 0.00130388 0)
(0.00675619 0.00131528 0)
(0.00660857 0.00132734 0)
(0.00645897 0.00133993 0)
(0.00630727 0.00135294 0)
(0.00615333 0.00136627 0)
(0.00599703 0.00137983 0)
(0.00583825 0.00139353 0)
(0.00567688 0.00140729 0)
(0.00551281 0.00142104 0)
(0.00534595 0.0014347 0)
(0.00517618 0.00144821 0)
(0.00500343 0.00146149 0)
(0.00482761 0.00147449 0)
(0.00464864 0.00148714 0)
(0.00446646 0.0014994 0)
(0.00428101 0.00151119 0)
(0.00409223 0.00152249 0)
(0.00390009 0.00153324 0)
(0.00370456 0.00154341 0)
(0.00350563 0.00155298 0)
(0.0033033 0.00156192 0)
(0.0030976 0.00157022 0)
(0.00288855 0.00157788 0)
(0.00267623 0.0015849 0)
(0.00246072 0.0015913 0)
(0.00224213 0.00159709 0)
(0.0020206 0.00160231 0)
(0.00179628 0.00160698 0)
(0.00156938 0.00161113 0)
(0.00134012 0.00161476 0)
(0.00110875 0.00161759 0)
(0.000875575 0.00161742 0)
(0.00064122 0.00160238 0)
(0.000407545 0.00152731 0)