# vtk DataFile Version 2.0
sampleSurface
ASCII
DATASET POLYDATA
POINTS 652 double
0 0 0
0.02 0 0
0.02 0 0.1
0 0 0.1
0.04 0 0
0.04 0 0.1
0.06 0 0
0.06 0 0.1
0.08 0 0
0.08 0 0.1
0.1 0 0
0.1 0 0.1
0.12 0 0
0.12 0 0.1
0.14 0 0
0.14 0 0.1
0.16 0 0
0.16 0 0.1
0.18 0 0
0.18 0 0.1
0.2 0 0
0.2 0 0.1
0.22 0 0
0.22 0 0.1
0.24 0 0
0.24 0 0.1
0.26 0 0
0.26 0 0.1
0.28 0 0
0.28 0 0.1
0.3 0 0
0.3 0 0.1
0.32 0 0
0.32 0 0.1
0.34 0 0
0.34 0 0.1
0.36 0 0
0.36 0 0.1
0.38 0 0
0.38 0 0.1
0.4 0 0
0.4 0 0.1
0.42 0 0
0.42 0 0.1
0.44 0 0
0.44 0 0.1
0.46 0 0
0.46 0 0.1
0.48 0 0
0.48 0 0.1
0.5 0 0
0.5 0 0.1
0.52 0 0
0.52 0 0.1
0.54 0 0
0.54 0 0.1
0.56 0 0
0.56 0 0.1
0.58 0 0
0.58 0 0.1
0.6 0 0
0.6 0 0.1
0.62 0 0
0.62 0 0.1
0.64 0 0
0.64 0 0.1
0.66 0 0
0.66 0 0.1
0.68 0 0
0.68 0 0.1
0.7 0 0
0.7 0 0.1
0.72 0 0
0.72 0 0.1
0.74 0 0
0.74 0 0.1
0.76 0 0
0.76 0 0.1
0.78 0 0
0.78 0 0.1
0.8 0 0
0.8 0 0.1
0.82 0 0
0.82 0 0.1
0.84 0 0
0.84 0 0.1
0.86 0 0
0.86 0 0.1
0.88 0 0
0.88 0 0.1
0.9 0 0
0.9 0 0.1
0.92 0 0
0.92 0 0.1
0.94 0 0
0.94 0 0.1
0.96 0 0
0.96 0 0.1
0.98 0 0
0.98 0 0.1
1 0 0
1 0 0.1
1.02 0 0
1.02 0 0.1
1.04 0 0
1.04 0 0.1
1.06 0 0
1.06 0 0.1
1.08 0 0
1.08 0 0.1
1.1 0 0
1.1 0 0.1
1.12 0 0
1.12 0 0.1
1.14 0 0
1.14 0 0.1
1.16 0 0
1.16 0 0.1
1.18 0 0
1.18 0 0.1
1.2 0 0
1.2 0 0.1
1.22 0 0
1.22 0 0.1
1.24 0 0
1.24 0 0.1
1.26 0 0
1.26 0 0.1
1.28 0 0
1.28 0 0.1
1.3 0 0
1.3 0 0.1
1.32 0 0
1.32 0 0.1
1.34 0 0
1.34 0 0.1
1.36 0 0
1.36 0 0.1
1.38 0 0
1.38 0 0.1
1.4 0 0
1.4 0 0.1
1.42 0 0
1.42 0 0.1
1.44 0 0
1.44 0 0.1
1.46 0 0
1.46 0 0.1
1.48 0 0
1.48 0 0.1
1.5 0 0
1.5 0 0.1
1.52 0 0
1.52 0 0.1
1.54 0 0
1.54 0 0.1
1.56 0 0
1.56 0 0.1
1.58 0 0
1.58 0 0.1
1.6 0 0
1.6 0 0.1
1.62 0 0
1.62 0 0.1
1.64 0 0
1.64 0 0.1
1.66 0 0
1.66 0 0.1
1.68 0 0
1.68 0 0.1
1.7 0 0
1.7 0 0.1
1.72 0 0
1.72 0 0.1
1.74 0 0
1.74 0 0.1
1.76 0 0
1.76 0 0.1
1.78 0 0
1.78 0 0.1
1.8 0 0
1.8 0 0.1
1.82 0 0
1.82 0 0.1
1.84 0 0
1.84 0 0.1
1.86 0 0
1.86 0 0.1
1.88 0 0
1.88 0 0.1
1.9 0 0
1.9 0 0.1
1.92 0 0
1.92 0 0.1
1.94 0 0
1.94 0 0.1
1.96 0 0
1.96 0 0.1
1.98 0 0
1.98 0 0.1
2 0 0
2 0 0.1
2 0.02 0
2 0.02 0.1
2 0.04 0
2 0.04 0.1
2 0.06 0
2 0.06 0.1
2 0.08 0
2 0.08 0.1
2 0.1 0
2 0.1 0.1
2 0.12 0
2 0.12 0.1
2 0.14 0
2 0.14 0.1
2 0.16 0
2 0.16 0.1
2 0.18 0
2 0.18 0.1
2 0.2 0
2 0.2 0.1
2 0.22 0
2 0.22 0.1
2 0.24 0
2 0.24 0.1
2 0.26 0
2 0.26 0.1
2 0.28 0
2 0.28 0.1
2 0.3 0
2 0.3 0.1
2 0.32 0
2 0.32 0.1
2 0.34 0
2 0.34 0.1
2 0.36 0
2 0.36 0.1
2 0.38 0
2 0.38 0.1
2 0.4 0
2 0.4 0.1
2 0.42 0
2 0.42 0.1
2 0.44 0
2 0.44 0.1
2 0.46 0
2 0.46 0.1
2 0.48 0
2 0.48 0.1
2 0.5 0
2 0.5 0.1
2 0.52 0
2 0.52 0.1
2 0.54 0
2 0.54 0.1
2 0.56 0
2 0.56 0.1
2 0.58 0
2 0.58 0.1
2 0.6 0
2 0.6 0.1
2 0.62 0
2 0.62 0.1
2 0.64 0
2 0.64 0.1
2 0.66 0
2 0.66 0.1
2 0.68 0
2 0.68 0.1
2 0.7 0
2 0.7 0.1
2 0.72 0
2 0.72 0.1
2 0.74 0
2 0.74 0.1
2 0.76 0
2 0.76 0.1
2 0.78 0
2 0.78 0.1
2 0.8 0
2 0.8 0.1
2 0.82 0
2 0.82 0.1
2 0.84 0
2 0.84 0.1
2 0.86 0
2 0.86 0.1
2 0.88 0
2 0.88 0.1
2 0.9 0
2 0.9 0.1
2 0.92 0
2 0.92 0.1
2 0.94 0
2 0.94 0.1
2 0.96 0
2 0.96 0.1
2 0.98 0
2 0.98 0.1
2 1 0
2 1 0.1
2.02 1 0
2.02 1 0.1
2.04 1 0
2.04 1 0.1
2.06 1 0
2.06 1 0.1
2.08 1 0
2.08 1 0.1
2.1 1 0
2.1 1 0.1
2.12 1 0
2.12 1 0.1
2.14 1 0
2.14 1 0.1
2.16 1 0
2.16 1 0.1
2.18 1 0
2.18 1 0.1
2.2 1 0
2.2 1 0.1
2.22 1 0
2.22 1 0.1
2.24 1 0
2.24 1 0.1
2.26 1 0
2.26 1 0.1
2.28 1 0
2.28 1 0.1
2.3 1 0
2.3 1 0.1
2.32 1 0
2.32 1 0.1
2.34 1 0
2.34 1 0.1
2.36 1 0
2.36 1 0.1
2.38 1 0
2.38 1 0.1
2.4 1 0
2.4 1 0.1
2.42 1 0
2.42 1 0.1
2.44 1 0
2.44 1 0.1
2.46 1 0
2.46 1 0.1
2.48 1 0
2.48 1 0.1
2.5 1 0
2.5 1 0.1
2.5 0 0
2.5 0 0.1
2.5 0.02 0.1
2.5 0.02 0
2.5 0.04 0.1
2.5 0.04 0
2.5 0.06 0.1
2.5 0.06 0
2.5 0.08 0.1
2.5 0.08 0
2.5 0.1 0.1
2.5 0.1 0
2.5 0.12 0.1
2.5 0.12 0
2.5 0.14 0.1
2.5 0.14 0
2.5 0.16 0.1
2.5 0.16 0
2.5 0.18 0.1
2.5 0.18 0
2.5 0.2 0.1
2.5 0.2 0
2.5 0.22 0.1
2.5 0.22 0
2.5 0.24 0.1
2.5 0.24 0
2.5 0.26 0.1
2.5 0.26 0
2.5 0.28 0.1
2.5 0.28 0
2.5 0.3 0.1
2.5 0.3 0
2.5 0.32 0.1
2.5 0.32 0
2.5 0.34 0.1
2.5 0.34 0
2.5 0.36 0.1
2.5 0.36 0
2.5 0.38 0.1
2.5 0.38 0
2.5 0.4 0.1
2.5 0.4 0
2.5 0.42 0.1
2.5 0.42 0
2.5 0.44 0.1
2.5 0.44 0
2.5 0.46 0.1
2.5 0.46 0
2.5 0.48 0.1
2.5 0.48 0
2.5 0.5 0.1
2.5 0.5 0
2.5 0.52 0.1
2.5 0.52 0
2.5 0.54 0.1
2.5 0.54 0
2.5 0.56 0.1
2.5 0.56 0
2.5 0.58 0.1
2.5 0.58 0
2.5 0.6 0.1
2.5 0.6 0
2.5 0.62 0.1
2.5 0.62 0
2.5 0.64 0.1
2.5 0.64 0
2.5 0.66 0.1
2.5 0.66 0
2.5 0.68 0.1
2.5 0.68 0
2.5 0.7 0.1
2.5 0.7 0
2.5 0.72 0.1
2.5 0.72 0
2.5 0.74 0.1
2.5 0.74 0
2.5 0.76 0.1
2.5 0.76 0
2.5 0.78 0.1
2.5 0.78 0
2.5 0.8 0.1
2.5 0.8 0
2.5 0.82 0.1
2.5 0.82 0
2.5 0.84 0.1
2.5 0.84 0
2.5 0.86 0.1
2.5 0.86 0
2.5 0.88 0.1
2.5 0.88 0
2.5 0.9 0.1
2.5 0.9 0
2.5 0.92 0.1
2.5 0.92 0
2.5 0.94 0.1
2.5 0.94 0
2.5 0.96 0.1
2.5 0.96 0
2.5 0.98 0.1
2.5 0.98 0
2.52 0 0
2.52 0 0.1
2.54 0 0
2.54 0 0.1
2.56 0 0
2.56 0 0.1
2.58 0 0
2.58 0 0.1
2.6 0 0
2.6 0 0.1
2.62 0 0
2.62 0 0.1
2.64 0 0
2.64 0 0.1
2.66 0 0
2.66 0 0.1
2.68 0 0
2.68 0 0.1
2.7 0 0
2.7 0 0.1
2.72 0 0
2.72 0 0.1
2.74 0 0
2.74 0 0.1
2.76 0 0
2.76 0 0.1
2.78 0 0
2.78 0 0.1
2.8 0 0
2.8 0 0.1
2.82 0 0
2.82 0 0.1
2.84 0 0
2.84 0 0.1
2.86 0 0
2.86 0 0.1
2.88 0 0
2.88 0 0.1
2.9 0 0
2.9 0 0.1
2.92 0 0
2.92 0 0.1
2.94 0 0
2.94 0 0.1
2.96 0 0
2.96 0 0.1
2.98 0 0
2.98 0 0.1
3 0 0
3 0 0.1
3.02 0 0
3.02 0 0.1
3.04 0 0
3.04 0 0.1
3.06 0 0
3.06 0 0.1
3.08 0 0
3.08 0 0.1
3.1 0 0
3.1 0 0.1
3.12 0 0
3.12 0 0.1
3.14 0 0
3.14 0 0.1
3.16 0 0
3.16 0 0.1
3.18 0 0
3.18 0 0.1
3.2 0 0
3.2 0 0.1
3.22 0 0
3.22 0 0.1
3.24 0 0
3.24 0 0.1
3.26 0 0
3.26 0 0.1
3.28 0 0
3.28 0 0.1
3.3 0 0
3.3 0 0.1
3.32 0 0
3.32 0 0.1
3.34 0 0
3.34 0 0.1
3.36 0 0
3.36 0 0.1
3.38 0 0
3.38 0 0.1
3.4 0 0
3.4 0 0.1
3.42 0 0
3.42 0 0.1
3.44 0 0
3.44 0 0.1
3.46 0 0
3.46 0 0.1
3.48 0 0
3.48 0 0.1
3.5 0 0
3.5 0 0.1
3.52 0 0
3.52 0 0.1
3.54 0 0
3.54 0 0.1
3.56 0 0
3.56 0 0.1
3.58 0 0
3.58 0 0.1
3.6 0 0
3.6 0 0.1
3.62 0 0
3.62 0 0.1
3.64 0 0
3.64 0 0.1
3.66 0 0
3.66 0 0.1
3.68 0 0
3.68 0 0.1
3.7 0 0
3.7 0 0.1
3.72 0 0
3.72 0 0.1
3.74 0 0
3.74 0 0.1
3.76 0 0
3.76 0 0.1
3.78 0 0
3.78 0 0.1
3.8 0 0
3.8 0 0.1
3.82 0 0
3.82 0 0.1
3.84 0 0
3.84 0 0.1
3.86 0 0
3.86 0 0.1
3.88 0 0
3.88 0 0.1
3.9 0 0
3.9 0 0.1
3.92 0 0
3.92 0 0.1
3.94 0 0
3.94 0 0.1
3.96 0 0
3.96 0 0.1
3.98 0 0
3.98 0 0.1
4 0 0
4 0 0.1
4.02 0 0
4.02 0 0.1
4.04 0 0
4.04 0 0.1
4.06 0 0
4.06 0 0.1
4.08 0 0
4.08 0 0.1
4.1 0 0
4.1 0 0.1
4.12 0 0
4.12 0 0.1
4.14 0 0
4.14 0 0.1
4.16 0 0
4.16 0 0.1
4.18 0 0
4.18 0 0.1
4.2 0 0
4.2 0 0.1
4.22 0 0
4.22 0 0.1
4.24 0 0
4.24 0 0.1
4.26 0 0
4.26 0 0.1
4.28 0 0
4.28 0 0.1
4.3 0 0
4.3 0 0.1
4.32 0 0
4.32 0 0.1
4.34 0 0
4.34 0 0.1
4.36 0 0
4.36 0 0.1
4.38 0 0
4.38 0 0.1
4.4 0 0
4.4 0 0.1
4.42 0 0
4.42 0 0.1
4.44 0 0
4.44 0 0.1
4.46 0 0
4.46 0 0.1
4.48 0 0
4.48 0 0.1
4.5 0 0
4.5 0 0.1

POLYGONS 325 1625
4 0 1 2 3
4 1 4 5 2
4 4 6 7 5
4 6 8 9 7
4 8 10 11 9
4 10 12 13 11
4 12 14 15 13
4 14 16 17 15
4 16 18 19 17
4 18 20 21 19
4 20 22 23 21
4 22 24 25 23
4 24 26 27 25
4 26 28 29 27
4 28 30 31 29
4 30 32 33 31
4 32 34 35 33
4 34 36 37 35
4 36 38 39 37
4 38 40 41 39
4 40 42 43 41
4 42 44 45 43
4 44 46 47 45
4 46 48 49 47
4 48 50 51 49
4 50 52 53 51
4 52 54 55 53
4 54 56 57 55
4 56 58 59 57
4 58 60 61 59
4 60 62 63 61
4 62 64 65 63
4 64 66 67 65
4 66 68 69 67
4 68 70 71 69
4 70 72 73 71
4 72 74 75 73
4 74 76 77 75
4 76 78 79 77
4 78 80 81 79
4 80 82 83 81
4 82 84 85 83
4 84 86 87 85
4 86 88 89 87
4 88 90 91 89
4 90 92 93 91
4 92 94 95 93
4 94 96 97 95
4 96 98 99 97
4 98 100 101 99
4 100 102 103 101
4 102 104 105 103
4 104 106 107 105
4 106 108 109 107
4 108 110 111 109
4 110 112 113 111
4 112 114 115 113
4 114 116 117 115
4 116 118 119 117
4 118 120 121 119
4 120 122 123 121
4 122 124 125 123
4 124 126 127 125
4 126 128 129 127
4 128 130 131 129
4 130 132 133 131
4 132 134 135 133
4 134 136 137 135
4 136 138 139 137
4 138 140 141 139
4 140 142 143 141
4 142 144 145 143
4 144 146 147 145
4 146 148 149 147
4 148 150 151 149
4 150 152 153 151
4 152 154 155 153
4 154 156 157 155
4 156 158 159 157
4 158 160 161 159
4 160 162 163 161
4 162 164 165 163
4 164 166 167 165
4 166 168 169 167
4 168 170 171 169
4 170 172 173 171
4 172 174 175 173
4 174 176 177 175
4 176 178 179 177
4 178 180 181 179
4 180 182 183 181
4 182 184 185 183
4 184 186 187 185
4 186 188 189 187
4 188 190 191 189
4 190 192 193 191
4 192 194 195 193
4 194 196 197 195
4 196 198 199 197
4 198 200 201 199
4 200 202 203 201
4 202 204 205 203
4 204 206 207 205
4 206 208 209 207
4 208 210 211 209
4 210 212 213 211
4 212 214 215 213
4 214 216 217 215
4 216 218 219 217
4 218 220 221 219
4 220 222 223 221
4 222 224 225 223
4 224 226 227 225
4 226 228 229 227
4 228 230 231 229
4 230 232 233 231
4 232 234 235 233
4 234 236 237 235
4 236 238 239 237
4 238 240 241 239
4 240 242 243 241
4 242 244 245 243
4 244 246 247 245
4 246 248 249 247
4 248 250 251 249
4 250 252 253 251
4 252 254 255 253
4 254 256 257 255
4 256 258 259 257
4 258 260 261 259
4 260 262 263 261
4 262 264 265 263
4 264 266 267 265
4 266 268 269 267
4 268 270 271 269
4 270 272 273 271
4 272 274 275 273
4 274 276 277 275
4 276 278 279 277
4 278 280 281 279
4 280 282 283 281
4 282 284 285 283
4 284 286 287 285
4 286 288 289 287
4 288 290 291 289
4 290 292 293 291
4 292 294 295 293
4 294 296 297 295
4 296 298 299 297
4 298 300 301 299
4 300 302 303 301
4 302 304 305 303
4 304 306 307 305
4 306 308 309 307
4 308 310 311 309
4 310 312 313 311
4 312 314 315 313
4 314 316 317 315
4 316 318 319 317
4 318 320 321 319
4 320 322 323 321
4 322 324 325 323
4 324 326 327 325
4 326 328 329 327
4 328 330 331 329
4 330 332 333 331
4 332 334 335 333
4 334 336 337 335
4 336 338 339 337
4 338 340 341 339
4 340 342 343 341
4 342 344 345 343
4 344 346 347 345
4 346 348 349 347
4 348 350 351 349
4 352 353 354 355
4 355 354 356 357
4 357 356 358 359
4 359 358 360 361
4 361 360 362 363
4 363 362 364 365
4 365 364 366 367
4 367 366 368 369
4 369 368 370 371
4 371 370 372 373
4 373 372 374 375
4 375 374 376 377
4 377 376 378 379
4 379 378 380 381
4 381 380 382 383
4 383 382 384 385
4 385 384 386 387
4 387 386 388 389
4 389 388 390 391
4 391 390 392 393
4 393 392 394 395
4 395 394 396 397
4 397 396 398 399
4 399 398 400 401
4 401 400 402 403
4 403 402 404 405
4 405 404 406 407
4 407 406 408 409
4 409 408 410 411
4 411 410 412 413
4 413 412 414 415
4 415 414 416 417
4 417 416 418 419
4 419 418 420 421
4 421 420 422 423
4 423 422 424 425
4 425 424 426 427
4 427 426 428 429
4 429 428 430 431
4 431 430 432 433
4 433 432 434 435
4 435 434 436 437
4 437 436 438 439
4 439 438 440 441
4 441 440 442 443
4 443 442 444 445
4 445 444 446 447
4 447 446 448 449
4 449 448 450 451
4 451 450 351 350
4 352 452 453 353
4 452 454 455 453
4 454 456 457 455
4 456 458 459 457
4 458 460 461 459
4 460 462 463 461
4 462 464 465 463
4 464 466 467 465
4 466 468 469 467
4 468 470 471 469
4 470 472 473 471
4 472 474 475 473
4 474 476 477 475
4 476 478 479 477
4 478 480 481 479
4 480 482 483 481
4 482 484 485 483
4 484 486 487 485
4 486 488 489 487
4 488 490 491 489
4 490 492 493 491
4 492 494 495 493
4 494 496 497 495
4 496 498 499 497
4 498 500 501 499
4 500 502 503 501
4 502 504 505 503
4 504 506 507 505
4 506 508 509 507
4 508 510 511 509
4 510 512 513 511
4 512 514 515 513
4 514 516 517 515
4 516 518 519 517
4 518 520 521 519
4 520 522 523 521
4 522 524 525 523
4 524 526 527 525
4 526 528 529 527
4 528 530 531 529
4 530 532 533 531
4 532 534 535 533
4 534 536 537 535
4 536 538 539 537
4 538 540 541 539
4 540 542 543 541
4 542 544 545 543
4 544 546 547 545
4 546 548 549 547
4 548 550 551 549
4 550 552 553 551
4 552 554 555 553
4 554 556 557 555
4 556 558 559 557
4 558 560 561 559
4 560 562 563 561
4 562 564 565 563
4 564 566 567 565
4 566 568 569 567
4 568 570 571 569
4 570 572 573 571
4 572 574 575 573
4 574 576 577 575
4 576 578 579 577
4 578 580 581 579
4 580 582 583 581
4 582 584 585 583
4 584 586 587 585
4 586 588 589 587
4 588 590 591 589
4 590 592 593 591
4 592 594 595 593
4 594 596 597 595
4 596 598 599 597
4 598 600 601 599
4 600 602 603 601
4 602 604 605 603
4 604 606 607 605
4 606 608 609 607
4 608 610 611 609
4 610 612 613 611
4 612 614 615 613
4 614 616 617 615
4 616 618 619 617
4 618 620 621 619
4 620 622 623 621
4 622 624 625 623
4 624 626 627 625
4 626 628 629 627
4 628 630 631 629
4 630 632 633 631
4 632 634 635 633
4 634 636 637 635
4 636 638 639 637
4 638 640 641 639
4 640 642 643 641
4 642 644 645 643
4 644 646 647 645
4 646 648 649 647
4 648 650 651 649
POINT_DATA 652
FIELD attributes 1
U 3 652 float
2.50226 -0.000856584 -0.0266241
1.25163 -0.000425939 -0.013312
1.25163 -0.000425939 -0.013312
2.50226 -0.000856584 -0.0266241
0.00100085 3.00262e-06 0
0.00100085 3.00262e-06 0
0.000999637 2.60201e-08 0
0.000999637 2.60201e-08 0
0.00100022 -8.36836e-07 0
0.00100022 -8.36836e-07 0
0.00100061 1.10918e-06 0
0.00100061 1.10918e-06 0
0.000999239 3.77851e-06 0
0.000999239 3.77851e-06 0
0.000996488 4.52949e-06 0
0.000996488 4.52949e-06 0
0.000993552 2.56584e-06 0
0.000993552 2.56584e-06 0
0.000991467 -5.30775e-07 0
0.000991467 -5.30775e-07 0
0.000990384 -2.42854e-06 0
0.000990384 -2.42854e-06 0
0.000989685 -1.94913e-06 0
0.000989685 -1.94913e-06 0
0.00098848 3.16341e-07 0
0.00098848 3.16341e-07 0
0.000985844 2.86315e-06 0
0.000985844 2.86315e-06 0
0.000981318 4.5128e-06 0
0.000981318 4.5128e-06 0
0.000975326 4.98604e-06 0
0.000975326 4.98604e-06 0
0.0009687 4.67417e-06 0
0.0009687 4.67417e-06 0
0.000961974 4.11426e-06 0
0.000961974 4.11426e-06 0
0.000955315 3.64615e-06 0
0.000955315 3.64615e-06 0
0.000948767 3.36772e-06 0
0.000948767 3.36772e-06 0
0.000942322 3.24392e-06 0
0.000942322 3.24392e-06 0
0.000935917 3.21016e-06 0
0.000935917 3.21016e-06 0
0.00092949 3.21797e-06 0
0.00092949 3.21797e-06 0
0.000923019 3.24158e-06 0
0.000923019 3.24158e-06 0
0.000916503 3.27063e-06 0
0.000916503 3.27063e-06 0
0.000909937 3.30207e-06 0
0.000909937 3.30207e-06 0
0.000903313 3.33533e-06 0
0.000903313 3.33533e-06 0
0.000896627 3.37045e-06 0
0.000896627 3.37045e-06 0
0.000889875 3.40756e-06 0
0.000889875 3.40756e-06 0
0.000883054 3.44673e-06 0
0.000883054 3.44673e-06 0
0.000876159 3.48801e-06 0
0.000876159 3.48801e-06 0
0.000869186 3.53144e-06 0
0.000869186 3.53144e-06 0
0.00086213 3.57704e-06 0
0.00086213 3.57704e-06 0
0.000854988 3.62481e-06 0
0.000854988 3.62481e-06 0
0.000847754 3.67477e-06 0
0.000847754 3.67477e-06 0
0.000840424 3.72694e-06 0
0.000840424 3.72694e-06 0
0.000832994 3.78132e-06 0
0.000832994 3.78132e-06 0
0.000825459 3.83792e-06 0
0.000825459 3.83792e-06 0
0.000817814 3.89676e-06 0
0.000817814 3.89676e-06 0
0.000810055 3.95784e-06 0
0.000810055 3.95784e-06 0
0.000802178 4.02116e-06 0
0.000802178 4.02116e-06 0
0.000794177 4.08673e-06 0
0.000794177 4.08673e-06 0
0.000786048 4.15456e-06 0
0.000786048 4.15456e-06 0
0.000777786 4.22464e-06 0
0.000777786 4.22464e-06 0
0.000769386 4.29696e-06 0
0.000769386 4.29696e-06 0
0.000760844 4.37152e-06 0
0.000760844 4.37152e-06 0
0.000752155 4.44831e-06 0
0.000752155 4.44831e-06 0
0.000743313 4.52732e-06 0
0.000743313 4.52732e-06 0
0.000734315 4.60851e-06 0
0.000734315 4.60851e-06 0
0.000725155 4.69186e-06 0
0.000725155 4.69186e-06 0
0.000715829 4.77733e-06 0
0.000715829 4.77733e-06 0
0.000706332 4.86489e-06 0
0.000706332 4.86489e-06 0
0.000696659 4.95449e-06 0
0.000696659 4.95449e-06 0
0.000686806 5.04606e-06 0
0.000686806 5.04606e-06 0
0.000676768 5.13956e-06 0
0.000676768 5.13956e-06 0
0.000666541 5.23489e-06 0
0.000666541 5.23489e-06 0
0.00065612 5.33198e-06 0
0.00065612 5.33198e-06 0
0.000645501 5.43073e-06 0
0.000645501 5.43073e-06 0
0.000634681 5.53106e-06 0
0.000634681 5.53106e-06 0
0.000623655 5.63284e-06 0
0.000623655 5.63284e-06 0
0.00061242 5.73597e-06 0
0.00061242 5.73597e-06 0
0.000600972 5.84033e-06 0
0.000600972 5.84033e-06 0
0.000589308 5.94579e-06 0
0.000589308 5.94579e-06 0
0.000577426 6.05225e-06 0
0.000577426 6.05225e-06 0
0.000565322 6.1596e-06 0
0.000565322 6.1596e-06 0
0.000552994 6.26775e-06 0
0.000552994 6.26775e-06 0
0.00054044 6.37661e-06 0
0.00054044 6.37661e-06 0
0.000527659 6.48608e-06 0
0.000527659 6.48608e-06 0
0.000514651 6.59597e-06 0
0.000514651 6.59597e-06 0
0.000501415 6.70545e-06 0
0.000501415 6.70545e-06 0
0.000487951 6.81339e-06 0
0.000487951 6.81339e-06 0
0.000474258 6.91913e-06 0
0.000474258 6.91913e-06 0
0.000460338 7.02239e-06 0
0.000460338 7.02239e-06 0
0.000446193 7.12293e-06 0
0.000446193 7.12293e-06 0
0.000431823 7.22047e-06 0
0.000431823 7.22047e-06 0
0.000417233 7.31473e-06 0
0.000417233 7.31473e-06 0
0.000402425 7.40545e-06 0
0.000402425 7.40545e-06 0
0.000387403 7.49236e-06 0
0.000387403 7.49236e-06 0
0.000372173 7.57519e-06 0
0.000372173 7.57519e-06 0
0.000356739 7.6537e-06 0
0.000356739 7.6537e-06 0
0.000341107 7.72769e-06 0
0.000341107 7.72769e-06 0
0.000325284 7.79697e-06 0
0.000325284 7.79697e-06 0
0.000309276 7.86139e-06 0
0.000309276 7.86139e-06 0
0.000293092 7.92086e-06 0
0.000293092 7.92086e-06 0
0.000276739 7.97532e-06 0
0.000276739 7.97532e-06 0
0.000260227 8.02479e-06 0
0.000260227 8.02479e-06 0
0.000243563 8.06932e-06 0
0.000243563 8.06932e-06 0
0.000226758 8.10902e-06 0
0.000226758 8.10902e-06 0
0.000209821 8.14405e-06 0
0.000209821 8.14405e-06 0
0.000192762 8.17465e-06 0
0.000192762 8.17465e-06 0
0.00017559 8.20105e-06 0
0.00017559 8.20105e-06 0
0.000158317 8.22356e-06 0
0.000158317 8.22356e-06 0
0.000140953 8.24249e-06 0
0.000140953 8.24249e-06 0
0.000123508 8.25819e-06 0
0.000123508 8.25819e-06 0
0.000105992 8.27098e-06 0
0.000105992 8.27098e-06 0
8.8415e-05 8.28119e-06 0
8.8415e-05 8.28119e-06 0
7.07885e-05 8.28914e-06 0
7.07885e-05 8.28914e-06 0
5.31221e-05 8.29489e-06 0
5.31221e-05 8.29489e-06 0
3.54266e-05 8.2984e-06 0
3.54266e-05 8.2984e-06 0
1.77124e-05 8.29969e-06 0
1.77124e-05 8.29969e-06 0
8.85164e-06 8.29979e-06 0
8.85164e-06 8.29979e-06 0
9.31995e-06 1.7796e-05 0
9.31995e-06 1.7796e-05 0
9.64991e-06 3.71896e-05 0
9.64991e-06 3.71896e-05 0
9.4745e-06 5.64225e-05 0
9.4745e-06 5.64225e-05 0
9.44712e-06 7.52212e-05 0
9.44712e-06 7.52212e-05 0
9.4776e-06 9.41773e-05 0
9.4776e-06 9.41773e-05 0
9.52356e-06 0.000113201 0
9.52356e-06 0.000113201 0
9.57811e-06 0.000132318 0
9.57811e-06 0.000132318 0
9.64137e-06 0.000151552 0
9.64137e-06 0.000151552 0
9.71393e-06 0.000170922 0
9.71393e-06 0.000170922 0
9.79626e-06 0.000190447 0
9.79626e-06 0.000190447 0
9.88884e-06 0.000210147 0
9.88884e-06 0.000210147 0
9.99218e-06 0.000230042 0
9.99218e-06 0.000230042 0
1.01069e-05 0.000250155 0
1.01069e-05 0.000250155 0
1.02337e-05 0.000270508 0
1.02337e-05 0.000270508 0
1.03733e-05 0.000291128 0
1.03733e-05 0.000291128 0
1.05266e-05 0.00031204 0
1.05266e-05 0.00031204 0
1.06947e-05 0.000333273 0
1.06947e-05 0.000333273 0
1.08787e-05 0.000354857 0
1.08787e-05 0.000354857 0
1.10799e-05 0.000376826 0
1.10799e-05 0.000376826 0
1.12999e-05 0.000399215 0
1.12999e-05 0.000399215 0
1.15403e-05 0.000422063 0
1.15403e-05 0.000422063 0
1.18031e-05 0.000445413 0
1.18031e-05 0.000445413 0
1.20906e-05 0.000469312 0
1.20906e-05 0.000469312 0
1.24053e-05 0.000493812 0
1.24053e-05 0.000493812 0
1.27507e-05 0.00051897 0
1.27507e-05 0.00051897 0
1.31292e-05 0.000544849 0
1.31292e-05 0.000544849 0
1.35477e-05 0.000571524 0
1.35477e-05 0.000571524 0
1.40056e-05 0.000599072 0
1.40056e-05 0.000599072 0
1.4516e-05 0.000627583 0
1.4516e-05 0.000627583 0
1.50876e-05 0.000657177 0
1.50876e-05 0.000657177 0
1.56874e-05 0.000687928 0
1.56874e-05 0.000687928 0
1.64609e-05 0.000720071 0
1.64609e-05 0.000720071 0
1.71459e-05 0.000753589 0
1.71459e-05 0.000753589 0
1.81456e-05 0.00078895 0
1.81456e-05 0.00078895 0
1.91044e-05 0.000826013 0
1.91044e-05 0.000826013 0
2.03043e-05 0.000865388 0
2.03043e-05 0.000865388 0
2.15902e-05 0.000907265 0
2.15902e-05 0.000907265 0
2.32443e-05 0.000951971 0
2.32443e-05 0.000951971 0
2.48993e-05 0.000999712 0
2.48993e-05 0.000999712 0
2.81024e-05 0.0010526 0
2.81024e-05 0.0010526 0
2.86877e-05 0.00110876 0
2.86877e-05 0.00110876 0
3.44711e-05 0.00117218 0
3.44711e-05 0.00117218 0
3.66376e-05 0.00124106 0
3.66376e-05 0.00124106 0
4.66288e-05 0.00132322 0
4.66288e-05 0.00132322 0
4.74161e-05 0.00141351 0
4.74161e-05 0.00141351 0
7.15692e-05 0.00152818 0
7.15692e-05 0.00152818 0
7.41067e-05 0.00166408 0
7.41067e-05 0.00166408 0
0.000147436 0.00185073 0
0.000147436 0.00185073 0
0.000175155 0.00210929 0
0.000175155 0.00210929 0
0.000295711 0.00142276 0
0.000295711 0.00142276 0
-7.62201e-05 0.000298961 0
-7.62201e-05 0.000298961 0
-0.000439602 0.000110534 0
-0.000439602 0.000110534 0
-0.000908863 0.000375483 0
-0.000908863 0.000375483 0
-0.00197033 0.000494129 0
-0.00197033 0.000494129 0
-0.00278206 0.000393914 0
-0.00278206 0.000393914 0
-0.00333701 0.000223506 0
-0.00333701 0.000223506 0
-0.00347747 2.73653e-05 0
-0.00347747 2.73653e-05 0
-0.00331629 -0.000141363 0
-0.00331629 -0.000141363 0
-0.00288396 -0.000264521 0
-0.00288396 -0.000264521 0
-0.00228204 -0.00033719 0
-0.00228204 -0.00033719 0
-0.00160116 -0.00036323 0
-0.00160116 -0.00036323 0
-0.000917463 -0.000345651 0
-0.000917463 -0.000345651 0
-0.000285687 -0.000294389 0
-0.000285687 -0.000294389 0
0.000233013 -0.000234956 0
0.000233013 -0.000234956 0
0.000651283 -0.000178981 0
0.000651283 -0.000178981 0
0.000970735 -0.000125261 0
0.000970735 -0.000125261 0
0.00121068 -8.26495e-05 0
0.00121068 -8.26495e-05 0
0.00137967 -5.26204e-05 0
0.00137967 -5.26204e-05 0
0.00149682 -3.81095e-05 0
0.00149682 -3.81095e-05 0
0.00158292 -3.28591e-05 0
0.00158292 -3.28591e-05 0
0.00166626 -3.73066e-05 0
0.00166626 -3.73066e-05 0
0.00175511 -3.66895e-05 0
0.00175511 -3.66895e-05 0
0.00186094 -4.61597e-05 0
0.00186094 -4.61597e-05 0
0.00196815 -4.3131e-05 0
0.00196815 -4.3131e-05 0
0.00110614 -5.91954e-05 0
0.00110614 -5.91954e-05 0
4.84797e-06 -5.22191e-06 0
4.84797e-06 -5.22191e-06 0
4.8432e-06 -1.04493e-05 0
4.8432e-06 -1.04493e-05 0
4.82707e-06 -2.08896e-05 0
4.82707e-06 -2.08896e-05 0
4.79803e-06 -3.12901e-05 0
4.79803e-06 -3.12901e-05 0
4.75617e-06 -4.16286e-05 0
4.75617e-06 -4.16286e-05 0
4.70096e-06 -5.18821e-05 0
4.70096e-06 -5.18821e-05 0
4.63158e-06 -6.20262e-05 0
4.63158e-06 -6.20262e-05 0
4.5468e-06 -7.20342e-05 0
4.5468e-06 -7.20342e-05 0
4.44514e-06 -8.18769e-05 0
4.44514e-06 -8.18769e-05 0
4.32477e-06 -9.15214e-05 0
4.32477e-06 -9.15214e-05 0
4.18352e-06 -0.000100931 0
4.18352e-06 -0.000100931 0
4.01878e-06 -0.000110064 0
4.01878e-06 -0.000110064 0
3.8275e-06 -0.000118872 0
3.8275e-06 -0.000118872 0
3.60603e-06 -0.000127302 0
3.60603e-06 -0.000127302 0
3.35012e-06 -0.000135289 0
3.35012e-06 -0.000135289 0
3.0547e-06 -0.000142761 0
3.0547e-06 -0.000142761 0
2.71378e-06 -0.000149632 0
2.71378e-06 -0.000149632 0
2.32019e-06 -0.000155803 0
2.32019e-06 -0.000155803 0
1.86526e-06 -0.000161157 0
1.86526e-06 -0.000161157 0
1.3382e-06 -0.000165553 0
1.3382e-06 -0.000165553 0
7.25198e-07 -0.000168829 0
7.25198e-07 -0.000168829 0
7.46779e-09 -0.000170786 0
7.46779e-09 -0.000170786 0
-8.38605e-07 -0.000171185 0
-8.38605e-07 -0.000171185 0
-1.83613e-06 -0.000169729 0
-1.83613e-06 -0.000169729 0
-3.01194e-06 -0.00016606 0
-3.01194e-06 -0.00016606 0
-4.40192e-06 -0.000159751 0
-4.40192e-06 -0.000159751 0
-6.05134e-06 -0.000150283 0
-6.05134e-06 -0.000150283 0
-8.02087e-06 -0.00013702 0
-8.02087e-06 -0.00013702 0
-1.03939e-05 -0.000119178 0
-1.03939e-05 -0.000119178 0
-1.32854e-05 -9.58072e-05 0
-1.32854e-05 -9.58072e-05 0
-1.6826e-05 -6.55433e-05 0
-1.6826e-05 -6.55433e-05 0
-2.12345e-05 -2.74148e-05 0
-2.12345e-05 -2.74148e-05 0
-2.65685e-05 2.15223e-05 0
-2.65685e-05 2.15223e-05 0
-3.31681e-05 8.20915e-05 0
-3.31681e-05 8.20915e-05 0
-4.08745e-05 0.00015953 0
-4.08745e-05 0.00015953 0
-5.07087e-05 0.000252376 0
-5.07087e-05 0.000252376 0
-5.98162e-05 0.000369459 0
-5.98162e-05 0.000369459 0
-7.34607e-05 0.000504658 0
-7.34607e-05 0.000504658 0
-8.72552e-05 0.000670571 0
-8.72552e-05 0.000670571 0
-9.03767e-05 0.000858739 0
-9.03767e-05 0.000858739 0
-9.36727e-05 0.00105252 0
-9.36727e-05 0.00105252 0
-9.49654e-05 0.00125637 0
-9.49654e-05 0.00125637 0
-7.88583e-05 0.0014482 0
-7.88583e-05 0.0014482 0
-3.81366e-05 0.00158002 0
-3.81366e-05 0.00158002 0
3.12399e-05 0.00161482 0
3.12399e-05 0.00161482 0
0.000117302 0.00148551 0
0.000117302 0.00148551 0
0.000186797 0.00120339 0
0.000186797 0.00120339 0
0.000200313 0.000777193 0
0.000200313 0.000777193 0
0.000144433 0.000418921 0
0.000144433 0.000418921 0
0.000150977 0.000116911 0
0.000150977 0.000116911 0
1.04996e-05 -5.51979e-06 0
1.04996e-05 -5.51979e-06 0
2.20435e-05 -5.7264e-06 0
2.20435e-05 -5.7264e-06 0
3.34559e-05 -5.62188e-06 0
3.34559e-05 -5.62188e-06 0
4.4625e-05 -5.62381e-06 0
4.4625e-05 -5.62381e-06 0
5.59486e-05 -5.66055e-06 0
5.59486e-05 -5.66055e-06 0
6.73393e-05 -5.70669e-06 0
6.73393e-05 -5.70669e-06 0
7.88236e-05 -5.75841e-06 0
7.88236e-05 -5.75841e-06 0
9.04167e-05 -5.81472e-06 0
9.04167e-05 -5.81472e-06 0
0.000102127 -5.87457e-06 0
0.000102127 -5.87457e-06 0
0.000113959 -5.93673e-06 0
0.000113959 -5.93673e-06 0
0.000125917 -5.99992e-06 0
0.000125917 -5.99992e-06 0
0.000138001 -6.06288e-06 0
0.000138001 -6.06288e-06 0
0.00015021 -6.12437e-06 0
0.00015021 -6.12437e-06 0
0.000162539 -6.18319e-06 0
0.000162539 -6.18319e-06 0
0.000174983 -6.23824e-06 0
0.000174983 -6.23824e-06 0
0.000187532 -6.2885e-06 0
0.000187532 -6.2885e-06 0
0.000200176 -6.33307e-06 0
0.000200176 -6.33307e-06 0
0.000212903 -6.37119e-06 0
0.000212903 -6.37119e-06 0
0.000225699 -6.40218e-06 0
0.000225699 -6.40218e-06 0
0.00023855 -6.42553e-06 0
0.00023855 -6.42553e-06 0
0.000251439 -6.44081e-06 0
0.000251439 -6.44081e-06 0
0.000264351 -6.44776e-06 0
0.000264351 -6.44776e-06 0
0.000277268 -6.4462e-06 0
0.000277268 -6.4462e-06 0
0.000290173 -6.43609e-06 0
0.000290173 -6.43609e-06 0
0.00030305 -6.41747e-06 0
0.00030305 -6.41747e-06 0
0.00031588 -6.39049e-06 0
0.00031588 -6.39049e-06 0
0.000328649 -6.35535e-06 0
0.000328649 -6.35535e-06 0
0.000341339 -6.31236e-06 0
0.000341339 -6.31236e-06 0
0.000353935 -6.26185e-06 0
0.000353935 -6.26185e-06 0
0.000366423 -6.20423e-06 0
0.000366423 -6.20423e-06 0
0.000378788 -6.13992e-06 0
0.000378788 -6.13992e-06 0
0.000391018 -6.06939e-06 0
0.000391018 -6.06939e-06 0
0.000403101 -5.99312e-06 0
0.000403101 -5.99312e-06 0
0.000415026 -5.91158e-06 0
0.000415026 -5.91158e-06 0
0.000426782 -5.82529e-06 0
0.000426782 -5.82529e-06 0
0.000438361 -5.73472e-06 0
0.000438361 -5.73472e-06 0
0.000449755 -5.64036e-06 0
0.000449755 -5.64036e-06 0
0.000460955 -5.54267e-06 0
0.000460955 -5.54267e-06 0
0.000471958 -5.44212e-06 0
0.000471958 -5.44212e-06 0
0.000482756 -5.33914e-06 0
0.000482756 -5.33914e-06 0
0.000493345 -5.23414e-06 0
0.000493345 -5.23414e-06 0
0.000503723 -5.12751e-06 0
0.000503723 -5.12751e-06 0
0.000513885 -5.01962e-06 0
0.000513885 -5.01962e-06 0
0.00052383 -4.91081e-06 0
0.00052383 -4.91081e-06 0
0.000533557 -4.80139e-06 0
0.000533557 -4.80139e-06 0
0.000543064 -4.69167e-06 0
0.000543064 -4.69167e-06 0
0.000552351 -4.5819e-06 0
0.000552351 -4.5819e-06 0
0.000561418 -4.47234e-06 0
0.000561418 -4.47234e-06 0
0.000570266 -4.36319e-06 0
0.000570266 -4.36319e-06 0
0.000578896 -4.25467e-06 0
0.000578896 -4.25467e-06 0
0.000587309 -4.14696e-06 0
0.000587309 -4.14696e-06 0
0.000595507 -4.0402e-06 0
0.000595507 -4.0402e-06 0
0.000603493 -3.93453e-06 0
0.000603493 -3.93453e-06 0
0.000611268 -3.83009e-06 0
0.000611268 -3.83009e-06 0
0.000618835 -3.72697e-06 0
0.000618835 -3.72697e-06 0
0.000626197 -3.62527e-06 0
0.000626197 -3.62527e-06 0
0.000633357 -3.52505e-06 0
0.000633357 -3.52505e-06 0
0.000640317 -3.42639e-06 0
0.000640317 -3.42639e-06 0
0.000647082 -3.32933e-06 0
0.000647082 -3.32933e-06 0
0.000653654 -3.23392e-06 0
0.000653654 -3.23392e-06 0
0.000660036 -3.14018e-06 0
0.000660036 -3.14018e-06 0
0.000666232 -3.04814e-06 0
0.000666232 -3.04814e-06 0
0.000672246 -2.95781e-06 0
0.000672246 -2.95781e-06 0
0.00067808 -2.86919e-06 0
0.00067808 -2.86919e-06 0
0.000683739 -2.78228e-06 0
0.000683739 -2.78228e-06 0
0.000689225 -2.69708e-06 0
0.000689225 -2.69708e-06 0
0.000694543 -2.61356e-06 0
0.000694543 -2.61356e-06 0
0.000699695 -2.53173e-06 0
0.000699695 -2.53173e-06 0
0.000704684 -2.45155e-06 0
0.000704684 -2.45155e-06 0
0.000709515 -2.373e-06 0
0.000709515 -2.373e-06 0
0.00071419 -2.29605e-06 0
0.00071419 -2.29605e-06 0
0.000718712 -2.22067e-06 0
0.000718712 -2.22067e-06 0
0.000723086 -2.14682e-06 0
0.000723086 -2.14682e-06 0
0.000727312 -2.07448e-06 0
0.000727312 -2.07448e-06 0
0.000731396 -2.0036e-06 0
0.000731396 -2.0036e-06 0
0.000735338 -1.93415e-06 0
0.000735338 -1.93415e-06 0
0.000739143 -1.86608e-06 0
0.000739143 -1.86608e-06 0
0.000742814 -1.79935e-06 0
0.000742814 -1.79935e-06 0
0.000746351 -1.73392e-06 0
0.000746351 -1.73392e-06 0
0.00074976 -1.66976e-06 0
0.00074976 -1.66976e-06 0
0.000753041 -1.60681e-06 0
0.000753041 -1.60681e-06 0
0.000756197 -1.54503e-06 0
0.000756197 -1.54503e-06 0
0.00075923 -1.48437e-06 0
0.00075923 -1.48437e-06 0
0.000762143 -1.42481e-06 0
0.000762143 -1.42481e-06 0
0.000764938 -1.36626e-06 0
0.000764938 -1.36626e-06 0
0.000767616 -1.30875e-06 0
0.000767616 -1.30875e-06 0
0.000770181 -1.25211e-06 0
0.000770181 -1.25211e-06 0
0.000772632 -1.19651e-06 0
0.000772632 -1.19651e-06 0
0.000774975 -1.14155e-06 0
0.000774975 -1.14155e-06 0
0.000777205 -1.08774e-06 0
0.000777205 -1.08774e-06 0
0.000779334 -1.03424e-06 0
0.000779334 -1.03424e-06 0
0.000781347 -9.82044e-07 0
0.000781347 -9.82044e-07 0
0.000783271 -9.29755e-07 0
0.000783271 -9.29755e-07 0
0.000785067 -8.79324e-07 0
0.000785067 -8.79324e-07 0
0.000786803 -8.27413e-07 0
0.000786803 -8.27413e-07 0
0.000788369 -7.794e-07 0
0.000788369 -7.794e-07 0
0.000789947 -7.26899e-07 0
0.000789947 -7.26899e-07 0
0.000791243 -6.82182e-07 0
0.000791243 -6.82182e-07 0
0.992963 -0.000728979 0
0.992963 -0.000728979 0
1.98513 -0.00145729 0
1.98513 -0.00145729 0
