# vtk DataFile Version 2.0
sampleSurface
ASCII
DATASET POLYDATA
POINTS 652 double
0 0 0
0.02 0 0
0.02 0 0.1
0 0 0.1
0.04 0 0
0.04 0 0.1
0.06 0 0
0.06 0 0.1
0.08 0 0
0.08 0 0.1
0.1 0 0
0.1 0 0.1
0.12 0 0
0.12 0 0.1
0.14 0 0
0.14 0 0.1
0.16 0 0
0.16 0 0.1
0.18 0 0
0.18 0 0.1
0.2 0 0
0.2 0 0.1
0.22 0 0
0.22 0 0.1
0.24 0 0
0.24 0 0.1
0.26 0 0
0.26 0 0.1
0.28 0 0
0.28 0 0.1
0.3 0 0
0.3 0 0.1
0.32 0 0
0.32 0 0.1
0.34 0 0
0.34 0 0.1
0.36 0 0
0.36 0 0.1
0.38 0 0
0.38 0 0.1
0.4 0 0
0.4 0 0.1
0.42 0 0
0.42 0 0.1
0.44 0 0
0.44 0 0.1
0.46 0 0
0.46 0 0.1
0.48 0 0
0.48 0 0.1
0.5 0 0
0.5 0 0.1
0.52 0 0
0.52 0 0.1
0.54 0 0
0.54 0 0.1
0.56 0 0
0.56 0 0.1
0.58 0 0
0.58 0 0.1
0.6 0 0
0.6 0 0.1
0.62 0 0
0.62 0 0.1
0.64 0 0
0.64 0 0.1
0.66 0 0
0.66 0 0.1
0.68 0 0
0.68 0 0.1
0.7 0 0
0.7 0 0.1
0.72 0 0
0.72 0 0.1
0.74 0 0
0.74 0 0.1
0.76 0 0
0.76 0 0.1
0.78 0 0
0.78 0 0.1
0.8 0 0
0.8 0 0.1
0.82 0 0
0.82 0 0.1
0.84 0 0
0.84 0 0.1
0.86 0 0
0.86 0 0.1
0.88 0 0
0.88 0 0.1
0.9 0 0
0.9 0 0.1
0.92 0 0
0.92 0 0.1
0.94 0 0
0.94 0 0.1
0.96 0 0
0.96 0 0.1
0.98 0 0
0.98 0 0.1
1 0 0
1 0 0.1
1.02 0 0
1.02 0 0.1
1.04 0 0
1.04 0 0.1
1.06 0 0
1.06 0 0.1
1.08 0 0
1.08 0 0.1
1.1 0 0
1.1 0 0.1
1.12 0 0
1.12 0 0.1
1.14 0 0
1.14 0 0.1
1.16 0 0
1.16 0 0.1
1.18 0 0
1.18 0 0.1
1.2 0 0
1.2 0 0.1
1.22 0 0
1.22 0 0.1
1.24 0 0
1.24 0 0.1
1.26 0 0
1.26 0 0.1
1.28 0 0
1.28 0 0.1
1.3 0 0
1.3 0 0.1
1.32 0 0
1.32 0 0.1
1.34 0 0
1.34 0 0.1
1.36 0 0
1.36 0 0.1
1.38 0 0
1.38 0 0.1
1.4 0 0
1.4 0 0.1
1.42 0 0
1.42 0 0.1
1.44 0 0
1.44 0 0.1
1.46 0 0
1.46 0 0.1
1.48 0 0
1.48 0 0.1
1.5 0 0
1.5 0 0.1
1.52 0 0
1.52 0 0.1
1.54 0 0
1.54 0 0.1
1.56 0 0
1.56 0 0.1
1.58 0 0
1.58 0 0.1
1.6 0 0
1.6 0 0.1
1.62 0 0
1.62 0 0.1
1.64 0 0
1.64 0 0.1
1.66 0 0
1.66 0 0.1
1.68 0 0
1.68 0 0.1
1.7 0 0
1.7 0 0.1
1.72 0 0
1.72 0 0.1
1.74 0 0
1.74 0 0.1
1.76 0 0
1.76 0 0.1
1.78 0 0
1.78 0 0.1
1.8 0 0
1.8 0 0.1
1.82 0 0
1.82 0 0.1
1.84 0 0
1.84 0 0.1
1.86 0 0
1.86 0 0.1
1.88 0 0
1.88 0 0.1
1.9 0 0
1.9 0 0.1
1.92 0 0
1.92 0 0.1
1.94 0 0
1.94 0 0.1
1.96 0 0
1.96 0 0.1
1.98 0 0
1.98 0 0.1
2 0 0
2 0 0.1
2 0.02 0
2 0.02 0.1
2 0.04 0
2 0.04 0.1
2 0.06 0
2 0.06 0.1
2 0.08 0
2 0.08 0.1
2 0.1 0
2 0.1 0.1
2 0.12 0
2 0.12 0.1
2 0.14 0
2 0.14 0.1
2 0.16 0
2 0.16 0.1
2 0.18 0
2 0.18 0.1
2 0.2 0
2 0.2 0.1
2 0.22 0
2 0.22 0.1
2 0.24 0
2 0.24 0.1
2 0.26 0
2 0.26 0.1
2 0.28 0
2 0.28 0.1
2 0.3 0
2 0.3 0.1
2 0.32 0
2 0.32 0.1
2 0.34 0
2 0.34 0.1
2 0.36 0
2 0.36 0.1
2 0.38 0
2 0.38 0.1
2 0.4 0
2 0.4 0.1
2 0.42 0
2 0.42 0.1
2 0.44 0
2 0.44 0.1
2 0.46 0
2 0.46 0.1
2 0.48 0
2 0.48 0.1
2 0.5 0
2 0.5 0.1
2 0.52 0
2 0.52 0.1
2 0.54 0
2 0.54 0.1
2 0.56 0
2 0.56 0.1
2 0.58 0
2 0.58 0.1
2 0.6 0
2 0.6 0.1
2 0.62 0
2 0.62 0.1
2 0.64 0
2 0.64 0.1
2 0.66 0
2 0.66 0.1
2 0.68 0
2 0.68 0.1
2 0.7 0
2 0.7 0.1
2 0.72 0
2 0.72 0.1
2 0.74 0
2 0.74 0.1
2 0.76 0
2 0.76 0.1
2 0.78 0
2 0.78 0.1
2 0.8 0
2 0.8 0.1
2 0.82 0
2 0.82 0.1
2 0.84 0
2 0.84 0.1
2 0.86 0
2 0.86 0.1
2 0.88 0
2 0.88 0.1
2 0.9 0
2 0.9 0.1
2 0.92 0
2 0.92 0.1
2 0.94 0
2 0.94 0.1
2 0.96 0
2 0.96 0.1
2 0.98 0
2 0.98 0.1
2 1 0
2 1 0.1
2.02 1 0
2.02 1 0.1
2.04 1 0
2.04 1 0.1
2.06 1 0
2.06 1 0.1
2.08 1 0
2.08 1 0.1
2.1 1 0
2.1 1 0.1
2.12 1 0
2.12 1 0.1
2.14 1 0
2.14 1 0.1
2.16 1 0
2.16 1 0.1
2.18 1 0
2.18 1 0.1
2.2 1 0
2.2 1 0.1
2.22 1 0
2.22 1 0.1
2.24 1 0
2.24 1 0.1
2.26 1 0
2.26 1 0.1
2.28 1 0
2.28 1 0.1
2.3 1 0
2.3 1 0.1
2.32 1 0
2.32 1 0.1
2.34 1 0
2.34 1 0.1
2.36 1 0
2.36 1 0.1
2.38 1 0
2.38 1 0.1
2.4 1 0
2.4 1 0.1
2.42 1 0
2.42 1 0.1
2.44 1 0
2.44 1 0.1
2.46 1 0
2.46 1 0.1
2.48 1 0
2.48 1 0.1
2.5 1 0
2.5 1 0.1
2.5 0 0
2.5 0 0.1
2.5 0.02 0.1
2.5 0.02 0
2.5 0.04 0.1
2.5 0.04 0
2.5 0.06 0.1
2.5 0.06 0
2.5 0.08 0.1
2.5 0.08 0
2.5 0.1 0.1
2.5 0.1 0
2.5 0.12 0.1
2.5 0.12 0
2.5 0.14 0.1
2.5 0.14 0
2.5 0.16 0.1
2.5 0.16 0
2.5 0.18 0.1
2.5 0.18 0
2.5 0.2 0.1
2.5 0.2 0
2.5 0.22 0.1
2.5 0.22 0
2.5 0.24 0.1
2.5 0.24 0
2.5 0.26 0.1
2.5 0.26 0
2.5 0.28 0.1
2.5 0.28 0
2.5 0.3 0.1
2.5 0.3 0
2.5 0.32 0.1
2.5 0.32 0
2.5 0.34 0.1
2.5 0.34 0
2.5 0.36 0.1
2.5 0.36 0
2.5 0.38 0.1
2.5 0.38 0
2.5 0.4 0.1
2.5 0.4 0
2.5 0.42 0.1
2.5 0.42 0
2.5 0.44 0.1
2.5 0.44 0
2.5 0.46 0.1
2.5 0.46 0
2.5 0.48 0.1
2.5 0.48 0
2.5 0.5 0.1
2.5 0.5 0
2.5 0.52 0.1
2.5 0.52 0
2.5 0.54 0.1
2.5 0.54 0
2.5 0.56 0.1
2.5 0.56 0
2.5 0.58 0.1
2.5 0.58 0
2.5 0.6 0.1
2.5 0.6 0
2.5 0.62 0.1
2.5 0.62 0
2.5 0.64 0.1
2.5 0.64 0
2.5 0.66 0.1
2.5 0.66 0
2.5 0.68 0.1
2.5 0.68 0
2.5 0.7 0.1
2.5 0.7 0
2.5 0.72 0.1
2.5 0.72 0
2.5 0.74 0.1
2.5 0.74 0
2.5 0.76 0.1
2.5 0.76 0
2.5 0.78 0.1
2.5 0.78 0
2.5 0.8 0.1
2.5 0.8 0
2.5 0.82 0.1
2.5 0.82 0
2.5 0.84 0.1
2.5 0.84 0
2.5 0.86 0.1
2.5 0.86 0
2.5 0.88 0.1
2.5 0.88 0
2.5 0.9 0.1
2.5 0.9 0
2.5 0.92 0.1
2.5 0.92 0
2.5 0.94 0.1
2.5 0.94 0
2.5 0.96 0.1
2.5 0.96 0
2.5 0.98 0.1
2.5 0.98 0
2.52 0 0
2.52 0 0.1
2.54 0 0
2.54 0 0.1
2.56 0 0
2.56 0 0.1
2.58 0 0
2.58 0 0.1
2.6 0 0
2.6 0 0.1
2.62 0 0
2.62 0 0.1
2.64 0 0
2.64 0 0.1
2.66 0 0
2.66 0 0.1
2.68 0 0
2.68 0 0.1
2.7 0 0
2.7 0 0.1
2.72 0 0
2.72 0 0.1
2.74 0 0
2.74 0 0.1
2.76 0 0
2.76 0 0.1
2.78 0 0
2.78 0 0.1
2.8 0 0
2.8 0 0.1
2.82 0 0
2.82 0 0.1
2.84 0 0
2.84 0 0.1
2.86 0 0
2.86 0 0.1
2.88 0 0
2.88 0 0.1
2.9 0 0
2.9 0 0.1
2.92 0 0
2.92 0 0.1
2.94 0 0
2.94 0 0.1
2.96 0 0
2.96 0 0.1
2.98 0 0
2.98 0 0.1
3 0 0
3 0 0.1
3.02 0 0
3.02 0 0.1
3.04 0 0
3.04 0 0.1
3.06 0 0
3.06 0 0.1
3.08 0 0
3.08 0 0.1
3.1 0 0
3.1 0 0.1
3.12 0 0
3.12 0 0.1
3.14 0 0
3.14 0 0.1
3.16 0 0
3.16 0 0.1
3.18 0 0
3.18 0 0.1
3.2 0 0
3.2 0 0.1
3.22 0 0
3.22 0 0.1
3.24 0 0
3.24 0 0.1
3.26 0 0
3.26 0 0.1
3.28 0 0
3.28 0 0.1
3.3 0 0
3.3 0 0.1
3.32 0 0
3.32 0 0.1
3.34 0 0
3.34 0 0.1
3.36 0 0
3.36 0 0.1
3.38 0 0
3.38 0 0.1
3.4 0 0
3.4 0 0.1
3.42 0 0
3.42 0 0.1
3.44 0 0
3.44 0 0.1
3.46 0 0
3.46 0 0.1
3.48 0 0
3.48 0 0.1
3.5 0 0
3.5 0 0.1
3.52 0 0
3.52 0 0.1
3.54 0 0
3.54 0 0.1
3.56 0 0
3.56 0 0.1
3.58 0 0
3.58 0 0.1
3.6 0 0
3.6 0 0.1
3.62 0 0
3.62 0 0.1
3.64 0 0
3.64 0 0.1
3.66 0 0
3.66 0 0.1
3.68 0 0
3.68 0 0.1
3.7 0 0
3.7 0 0.1
3.72 0 0
3.72 0 0.1
3.74 0 0
3.74 0 0.1
3.76 0 0
3.76 0 0.1
3.78 0 0
3.78 0 0.1
3.8 0 0
3.8 0 0.1
3.82 0 0
3.82 0 0.1
3.84 0 0
3.84 0 0.1
3.86 0 0
3.86 0 0.1
3.88 0 0
3.88 0 0.1
3.9 0 0
3.9 0 0.1
3.92 0 0
3.92 0 0.1
3.94 0 0
3.94 0 0.1
3.96 0 0
3.96 0 0.1
3.98 0 0
3.98 0 0.1
4 0 0
4 0 0.1
4.02 0 0
4.02 0 0.1
4.04 0 0
4.04 0 0.1
4.06 0 0
4.06 0 0.1
4.08 0 0
4.08 0 0.1
4.1 0 0
4.1 0 0.1
4.12 0 0
4.12 0 0.1
4.14 0 0
4.14 0 0.1
4.16 0 0
4.16 0 0.1
4.18 0 0
4.18 0 0.1
4.2 0 0
4.2 0 0.1
4.22 0 0
4.22 0 0.1
4.24 0 0
4.24 0 0.1
4.26 0 0
4.26 0 0.1
4.28 0 0
4.28 0 0.1
4.3 0 0
4.3 0 0.1
4.32 0 0
4.32 0 0.1
4.34 0 0
4.34 0 0.1
4.36 0 0
4.36 0 0.1
4.38 0 0
4.38 0 0.1
4.4 0 0
4.4 0 0.1
4.42 0 0
4.42 0 0.1
4.44 0 0
4.44 0 0.1
4.46 0 0
4.46 0 0.1
4.48 0 0
4.48 0 0.1
4.5 0 0
4.5 0 0.1

POLYGONS 325 1625
4 0 1 2 3
4 1 4 5 2
4 4 6 7 5
4 6 8 9 7
4 8 10 11 9
4 10 12 13 11
4 12 14 15 13
4 14 16 17 15
4 16 18 19 17
4 18 20 21 19
4 20 22 23 21
4 22 24 25 23
4 24 26 27 25
4 26 28 29 27
4 28 30 31 29
4 30 32 33 31
4 32 34 35 33
4 34 36 37 35
4 36 38 39 37
4 38 40 41 39
4 40 42 43 41
4 42 44 45 43
4 44 46 47 45
4 46 48 49 47
4 48 50 51 49
4 50 52 53 51
4 52 54 55 53
4 54 56 57 55
4 56 58 59 57
4 58 60 61 59
4 60 62 63 61
4 62 64 65 63
4 64 66 67 65
4 66 68 69 67
4 68 70 71 69
4 70 72 73 71
4 72 74 75 73
4 74 76 77 75
4 76 78 79 77
4 78 80 81 79
4 80 82 83 81
4 82 84 85 83
4 84 86 87 85
4 86 88 89 87
4 88 90 91 89
4 90 92 93 91
4 92 94 95 93
4 94 96 97 95
4 96 98 99 97
4 98 100 101 99
4 100 102 103 101
4 102 104 105 103
4 104 106 107 105
4 106 108 109 107
4 108 110 111 109
4 110 112 113 111
4 112 114 115 113
4 114 116 117 115
4 116 118 119 117
4 118 120 121 119
4 120 122 123 121
4 122 124 125 123
4 124 126 127 125
4 126 128 129 127
4 128 130 131 129
4 130 132 133 131
4 132 134 135 133
4 134 136 137 135
4 136 138 139 137
4 138 140 141 139
4 140 142 143 141
4 142 144 145 143
4 144 146 147 145
4 146 148 149 147
4 148 150 151 149
4 150 152 153 151
4 152 154 155 153
4 154 156 157 155
4 156 158 159 157
4 158 160 161 159
4 160 162 163 161
4 162 164 165 163
4 164 166 167 165
4 166 168 169 167
4 168 170 171 169
4 170 172 173 171
4 172 174 175 173
4 174 176 177 175
4 176 178 179 177
4 178 180 181 179
4 180 182 183 181
4 182 184 185 183
4 184 186 187 185
4 186 188 189 187
4 188 190 191 189
4 190 192 193 191
4 192 194 195 193
4 194 196 197 195
4 196 198 199 197
4 198 200 201 199
4 200 202 203 201
4 202 204 205 203
4 204 206 207 205
4 206 208 209 207
4 208 210 211 209
4 210 212 213 211
4 212 214 215 213
4 214 216 217 215
4 216 218 219 217
4 218 220 221 219
4 220 222 223 221
4 222 224 225 223
4 224 226 227 225
4 226 228 229 227
4 228 230 231 229
4 230 232 233 231
4 232 234 235 233
4 234 236 237 235
4 236 238 239 237
4 238 240 241 239
4 240 242 243 241
4 242 244 245 243
4 244 246 247 245
4 246 248 249 247
4 248 250 251 249
4 250 252 253 251
4 252 254 255 253
4 254 256 257 255
4 256 258 259 257
4 258 260 261 259
4 260 262 263 261
4 262 264 265 263
4 264 266 267 265
4 266 268 269 267
4 268 270 271 269
4 270 272 273 271
4 272 274 275 273
4 274 276 277 275
4 276 278 279 277
4 278 280 281 279
4 280 282 283 281
4 282 284 285 283
4 284 286 287 285
4 286 288 289 287
4 288 290 291 289
4 290 292 293 291
4 292 294 295 293
4 294 296 297 295
4 296 298 299 297
4 298 300 301 299
4 300 302 303 301
4 302 304 305 303
4 304 306 307 305
4 306 308 309 307
4 308 310 311 309
4 310 312 313 311
4 312 314 315 313
4 314 316 317 315
4 316 318 319 317
4 318 320 321 319
4 320 322 323 321
4 322 324 325 323
4 324 326 327 325
4 326 328 329 327
4 328 330 331 329
4 330 332 333 331
4 332 334 335 333
4 334 336 337 335
4 336 338 339 337
4 338 340 341 339
4 340 342 343 341
4 342 344 345 343
4 344 346 347 345
4 346 348 349 347
4 348 350 351 349
4 352 353 354 355
4 355 354 356 357
4 357 356 358 359
4 359 358 360 361
4 361 360 362 363
4 363 362 364 365
4 365 364 366 367
4 367 366 368 369
4 369 368 370 371
4 371 370 372 373
4 373 372 374 375
4 375 374 376 377
4 377 376 378 379
4 379 378 380 381
4 381 380 382 383
4 383 382 384 385
4 385 384 386 387
4 387 386 388 389
4 389 388 390 391
4 391 390 392 393
4 393 392 394 395
4 395 394 396 397
4 397 396 398 399
4 399 398 400 401
4 401 400 402 403
4 403 402 404 405
4 405 404 406 407
4 407 406 408 409
4 409 408 410 411
4 411 410 412 413
4 413 412 414 415
4 415 414 416 417
4 417 416 418 419
4 419 418 420 421
4 421 420 422 423
4 423 422 424 425
4 425 424 426 427
4 427 426 428 429
4 429 428 430 431
4 431 430 432 433
4 433 432 434 435
4 435 434 436 437
4 437 436 438 439
4 439 438 440 441
4 441 440 442 443
4 443 442 444 445
4 445 444 446 447
4 447 446 448 449
4 449 448 450 451
4 451 450 351 350
4 352 452 453 353
4 452 454 455 453
4 454 456 457 455
4 456 458 459 457
4 458 460 461 459
4 460 462 463 461
4 462 464 465 463
4 464 466 467 465
4 466 468 469 467
4 468 470 471 469
4 470 472 473 471
4 472 474 475 473
4 474 476 477 475
4 476 478 479 477
4 478 480 481 479
4 480 482 483 481
4 482 484 485 483
4 484 486 487 485
4 486 488 489 487
4 488 490 491 489
4 490 492 493 491
4 492 494 495 493
4 494 496 497 495
4 496 498 499 497
4 498 500 501 499
4 500 502 503 501
4 502 504 505 503
4 504 506 507 505
4 506 508 509 507
4 508 510 511 509
4 510 512 513 511
4 512 514 515 513
4 514 516 517 515
4 516 518 519 517
4 518 520 521 519
4 520 522 523 521
4 522 524 525 523
4 524 526 527 525
4 526 528 529 527
4 528 530 531 529
4 530 532 533 531
4 532 534 535 533
4 534 536 537 535
4 536 538 539 537
4 538 540 541 539
4 540 542 543 541
4 542 544 545 543
4 544 546 547 545
4 546 548 549 547
4 548 550 551 549
4 550 552 553 551
4 552 554 555 553
4 554 556 557 555
4 556 558 559 557
4 558 560 561 559
4 560 562 563 561
4 562 564 565 563
4 564 566 567 565
4 566 568 569 567
4 568 570 571 569
4 570 572 573 571
4 572 574 575 573
4 574 576 577 575
4 576 578 579 577
4 578 580 581 579
4 580 582 583 581
4 582 584 585 583
4 584 586 587 585
4 586 588 589 587
4 588 590 591 589
4 590 592 593 591
4 592 594 595 593
4 594 596 597 595
4 596 598 599 597
4 598 600 601 599
4 600 602 603 601
4 602 604 605 603
4 604 606 607 605
4 606 608 609 607
4 608 610 611 609
4 610 612 613 611
4 612 614 615 613
4 614 616 617 615
4 616 618 619 617
4 618 620 621 619
4 620 622 623 621
4 622 624 625 623
4 624 626 627 625
4 626 628 629 627
4 628 630 631 629
4 630 632 633 631
4 632 634 635 633
4 634 636 637 635
4 636 638 639 637
4 638 640 641 639
4 640 642 643 641
4 642 644 645 643
4 644 646 647 645
4 646 648 649 647
4 648 650 651 649
POINT_DATA 652
FIELD attributes 1
U 3 652 float
2.56122 -0.0238086 -0.0270799
1.28112 -0.0118994 -0.0135399
1.28112 -0.0118994 -0.0135399
2.56122 -0.0238086 -0.0270799
0.00100682 5.6169e-06 0
0.00100682 5.6169e-06 0
0.00100407 2.80116e-08 0
0.00100407 2.80116e-08 0
0.00100234 -8.51227e-07 0
0.00100234 -8.51227e-07 0
0.00099972 7.53005e-07 0
0.00099972 7.53005e-07 0
0.000996421 2.48803e-06 0
0.000996421 2.48803e-06 0
0.000993828 2.71822e-06 0
0.000993828 2.71822e-06 0
0.000992607 1.83339e-06 0
0.000992607 1.83339e-06 0
0.000992142 1.46612e-06 0
0.000992142 1.46612e-06 0
0.000991129 2.27149e-06 0
0.000991129 2.27149e-06 0
0.000988884 3.26347e-06 0
0.000988884 3.26347e-06 0
0.000985889 3.23602e-06 0
0.000985889 3.23602e-06 0
0.000983121 2.16475e-06 0
0.000983121 2.16475e-06 0
0.000981077 1.2114e-06 0
0.000981077 1.2114e-06 0
0.000979388 1.58791e-06 0
0.000979388 1.58791e-06 0
0.000977167 3.37579e-06 0
0.000977167 3.37579e-06 0
0.000973758 5.31921e-06 0
0.000973758 5.31921e-06 0
0.000969335 5.78794e-06 0
0.000969335 5.78794e-06 0
0.000964833 4.13242e-06 0
0.000964833 4.13242e-06 0
0.000961213 1.30533e-06 0
0.000961213 1.30533e-06 0
0.000958666 -8.10734e-07 0
0.000958666 -8.10734e-07 0
0.000956404 -8.15752e-07 0
0.000956404 -8.15752e-07 0
0.00095316 1.234e-06 0
0.00095316 1.234e-06 0
0.000948053 3.96792e-06 0
0.000948053 3.96792e-06 0
0.000941167 5.69568e-06 0
0.000941167 5.69568e-06 0
0.000933441 5.45758e-06 0
0.000933441 5.45758e-06 0
0.000926098 3.54547e-06 0
0.000926098 3.54547e-06 0
0.000920061 1.29905e-06 0
0.000920061 1.29905e-06 0
0.000915601 2.70043e-07 0
0.000915601 2.70043e-07 0
0.000912192 1.23746e-06 0
0.000912192 1.23746e-06 0
0.000908716 3.66325e-06 0
0.000908716 3.66325e-06 0
0.000904092 5.97273e-06 0
0.000904092 5.97273e-06 0
0.00089797 6.66978e-06 0
0.00089797 6.66978e-06 0
0.000890911 5.50905e-06 0
0.000890911 5.50905e-06 0
0.000883816 3.65803e-06 0
0.000883816 3.65803e-06 0
0.00087712 2.67442e-06 0
0.00087712 2.67442e-06 0
0.000870501 3.22846e-06 0
0.000870501 3.22846e-06 0
0.000863315 4.72571e-06 0
0.000863315 4.72571e-06 0
0.000855218 6.06452e-06 0
0.000855218 6.06452e-06 0
0.000846337 6.6363e-06 0
0.000846337 6.6363e-06 0
0.000836961 6.56894e-06 0
0.000836961 6.56894e-06 0
0.000827267 6.18575e-06 0
0.000827267 6.18575e-06 0
0.000817395 5.5131e-06 0
0.000817395 5.5131e-06 0
0.00080761 4.44685e-06 0
0.00080761 4.44685e-06 0
0.000798178 3.24871e-06 0
0.000798178 3.24871e-06 0
0.000789029 2.59167e-06 0
0.000789029 2.59167e-06 0
0.00077969 2.97848e-06 0
0.00077969 2.97848e-06 0
0.000769698 4.21667e-06 0
0.000769698 4.21667e-06 0
0.000759046 5.62332e-06 0
0.000759046 5.62332e-06 0
0.000748107 6.75169e-06 0
0.000748107 6.75169e-06 0
0.000737031 7.76655e-06 0
0.000737031 7.76655e-06 0
0.000725339 9.01499e-06 0
0.000725339 9.01499e-06 0
0.000712282 1.03552e-05 0
0.000712282 1.03552e-05 0
0.000697651 1.1149e-05 0
0.000697651 1.1149e-05 0
0.000682129 1.10478e-05 0
0.000682129 1.10478e-05 0
0.000666652 1.068e-05 0
0.000666652 1.068e-05 0
0.00065132 1.13028e-05 0
0.00065132 1.13028e-05 0
0.000634976 1.35886e-05 0
0.000634976 1.35886e-05 0
0.000615982 1.67615e-05 0
0.000615982 1.67615e-05 0
0.000593579 1.90624e-05 0
0.000593579 1.90624e-05 0
0.000568597 1.91648e-05 0
0.000568597 1.91648e-05 0
0.000542925 1.7132e-05 0
0.000542925 1.7132e-05 0
0.000518355 1.4119e-05 0
0.000518355 1.4119e-05 0
0.000495828 1.13945e-05 0
0.000495828 1.13945e-05 0
0.000475391 9.63893e-06 0
0.000475391 9.63893e-06 0
0.000456545 8.86354e-06 0
0.000456545 8.86354e-06 0
0.000438615 8.73447e-06 0
0.000438615 8.73447e-06 0
0.000421017 8.90379e-06 0
0.000421017 8.90379e-06 0
0.000403361 9.14281e-06 0
0.000403361 9.14281e-06 0
0.000385442 9.34775e-06 0
0.000385442 9.34775e-06 0
0.000367183 9.49517e-06 0
0.000367183 9.49517e-06 0
0.000348578 9.59296e-06 0
0.000348578 9.59296e-06 0
0.000329658 9.65094e-06 0
0.000329658 9.65094e-06 0
0.000310466 9.67144e-06 0
0.000310466 9.67144e-06 0
0.000291052 9.65022e-06 0
0.000291052 9.65022e-06 0
0.000271475 9.5792e-06 0
0.000271475 9.5792e-06 0
0.000251803 9.44901e-06 0
0.000251803 9.44901e-06 0
0.000232116 9.25047e-06 0
0.000232116 9.25047e-06 0
0.000212506 8.97485e-06 0
0.000212506 8.97485e-06 0
0.000193078 8.6142e-06 0
0.000193078 8.6142e-06 0
0.00017395 8.1619e-06 0
0.00017395 8.1619e-06 0
0.00015525 7.61337e-06 0
0.00015525 7.61337e-06 0
0.000137116 6.96707e-06 0
0.000137116 6.96707e-06 0
0.000119691 6.22502e-06 0
0.000119691 6.22502e-06 0
0.000103119 5.39307e-06 0
0.000103119 5.39307e-06 0
8.7537e-05 4.48129e-06 0
8.7537e-05 4.48129e-06 0
7.30755e-05 3.50387e-06 0
7.30755e-05 3.50387e-06 0
5.9847e-05 2.4792e-06 0
5.9847e-05 2.4792e-06 0
4.79421e-05 1.43133e-06 0
4.79421e-05 1.43133e-06 0
3.74254e-05 3.87873e-07 0
3.74254e-05 3.87873e-07 0
2.83314e-05 -6.25129e-07 0
2.83314e-05 -6.25129e-07 0
2.06634e-05 -1.58453e-06 0
2.06634e-05 -1.58453e-06 0
1.4391e-05 -2.46963e-06 0
1.4391e-05 -2.46963e-06 0
9.45032e-06 -3.26202e-06 0
9.45032e-06 -3.26202e-06 0
5.7417e-06 -3.94724e-06 0
5.7417e-06 -3.94724e-06 0
3.13584e-06 -4.51438e-06 0
3.13584e-06 -4.51438e-06 0
1.46362e-06 -4.96182e-06 0
1.46362e-06 -4.96182e-06 0
5.39081e-07 -5.29704e-06 0
5.39081e-07 -5.29704e-06 0
1.37126e-07 -5.49675e-06 0
1.37126e-07 -5.49675e-06 0
3.21526e-08 -5.55593e-06 0
3.21526e-08 -5.55593e-06 0
4.60886e-06 1.46996e-07 0
4.60886e-06 1.46996e-07 0
1.12354e-05 1.86914e-05 0
1.12354e-05 1.86914e-05 0
1.37191e-05 4.5354e-05 0
1.37191e-05 4.5354e-05 0
1.3885e-05 7.34096e-05 0
1.3885e-05 7.34096e-05 0
1.31278e-05 0.00010073 0
1.31278e-05 0.00010073 0
1.21721e-05 0.000125966 0
1.21721e-05 0.000125966 0
1.13517e-05 0.000149449 0
1.13517e-05 0.000149449 0
1.07714e-05 0.000171551 0
1.07714e-05 0.000171551 0
1.04294e-05 0.000192766 0
1.04294e-05 0.000192766 0
1.02805e-05 0.000213512 0
1.02805e-05 0.000213512 0
1.02701e-05 0.000234111 0
1.02701e-05 0.000234111 0
1.03505e-05 0.000254798 0
1.03505e-05 0.000254798 0
1.04861e-05 0.000275714 0
1.04861e-05 0.000275714 0
1.06532e-05 0.000296938 0
1.06532e-05 0.000296938 0
1.08374e-05 0.000318515 0
1.08374e-05 0.000318515 0
1.10311e-05 0.000340468 0
1.10311e-05 0.000340468 0
1.12312e-05 0.000362813 0
1.12312e-05 0.000362813 0
1.14376e-05 0.000385561 0
1.14376e-05 0.000385561 0
1.16516e-05 0.000408726 0
1.16516e-05 0.000408726 0
1.18757e-05 0.000432327 0
1.18757e-05 0.000432327 0
1.21123e-05 0.000456385 0
1.21123e-05 0.000456385 0
1.23645e-05 0.000480928 0
1.23645e-05 0.000480928 0
1.26344e-05 0.000505991 0
1.26344e-05 0.000505991 0
1.29261e-05 0.000531613 0
1.29261e-05 0.000531613 0
1.32411e-05 0.000557838 0
1.32411e-05 0.000557838 0
1.35856e-05 0.000584721 0
1.35856e-05 0.000584721 0
1.39594e-05 0.000612317 0
1.39594e-05 0.000612317 0
1.43728e-05 0.0006407 0
1.43728e-05 0.0006407 0
1.4822e-05 0.000669937 0
1.4822e-05 0.000669937 0
1.53259e-05 0.000700129 0
1.53259e-05 0.000700129 0
1.58722e-05 0.000731357 0
1.58722e-05 0.000731357 0
1.64986e-05 0.000763765 0
1.64986e-05 0.000763765 0
1.71699e-05 0.000797443 0
1.71699e-05 0.000797443 0
1.79725e-05 0.000832617 0
1.79725e-05 0.000832617 0
1.88016e-05 0.000869365 0
1.88016e-05 0.000869365 0
1.98746e-05 0.00090807 0
1.98746e-05 0.00090807 0
2.09049e-05 0.000948753 0
2.09049e-05 0.000948753 0
2.24179e-05 0.000992106 0
2.24179e-05 0.000992106 0
2.36932e-05 0.00103797 0
2.36932e-05 0.00103797 0
2.60059e-05 0.00108771 0
2.60059e-05 0.00108771 0
2.75145e-05 0.00114068 0
2.75145e-05 0.00114068 0
3.14948e-05 0.00119965 0
3.14948e-05 0.00119965 0
3.30008e-05 0.00126298 0
3.30008e-05 0.00126298 0
4.08015e-05 0.00133632 0
4.08015e-05 0.00133632 0
4.21105e-05 0.00141679 0
4.21105e-05 0.00141679 0
5.96454e-05 0.00151545 0
5.96454e-05 0.00151545 0
6.24423e-05 0.00163108 0
6.24423e-05 0.00163108 0
0.000111594 0.0017836 0
0.000111594 0.0017836 0
0.000133119 0.00198652 0
0.000133119 0.00198652 0
0.000136519 0.0012783 0
0.000136519 0.0012783 0
-0.00031659 0.000290145 0
-0.00031659 0.000290145 0
-0.00074301 0.000111048 0
-0.00074301 0.000111048 0
-0.000999006 0.000110384 0
-0.000999006 0.000110384 0
-0.00136548 0.00010607 0
-0.00136548 0.00010607 0
-0.00153075 5.46355e-05 0
-0.00153075 5.46355e-05 0
-0.00155766 -6.4032e-05 0
-0.00155766 -6.4032e-05 0
-0.00130915 -0.000232941 0
-0.00130915 -0.000232941 0
-0.000792924 -0.000423218 0
-0.000792924 -0.000423218 0
3.58162e-05 -0.000533956 0
3.58162e-05 -0.000533956 0
0.000973118 -0.000518672 0
0.000973118 -0.000518672 0
0.00186476 -0.000443782 0
0.00186476 -0.000443782 0
0.00256671 -0.00034416 0
0.00256671 -0.00034416 0
0.00304697 -0.000210907 0
0.00304697 -0.000210907 0
0.00330796 -8.45984e-05 0
0.00330796 -8.45984e-05 0
0.00336093 5.42883e-06 0
0.00336093 5.42883e-06 0
0.00319716 0.000166872 0
0.00319716 0.000166872 0
0.00288653 0.0003093 0
0.00288653 0.0003093 0
0.00233131 0.000300858 0
0.00233131 0.000300858 0
0.00170372 0.000300773 0
0.00170372 0.000300773 0
0.00118366 0.000288733 0
0.00118366 0.000288733 0
0.00112027 0.000142223 0
0.00112027 0.000142223 0
0.00100688 -0.000188836 0
0.00100688 -0.000188836 0
0.00102373 -0.000216748 0
0.00102373 -0.000216748 0
0.000200768 0.000599878 0
0.000200768 0.000599878 0
-0.000532602 0.00139586 0
-0.000532602 0.00139586 0
-8.49496e-06 7.13137e-06 0
-8.49496e-06 7.13137e-06 0
-9.31657e-06 1.63923e-05 0
-9.31657e-06 1.63923e-05 0
-9.97815e-06 3.56365e-05 0
-9.97815e-06 3.56365e-05 0
-9.67865e-06 5.46542e-05 0
-9.67865e-06 5.46542e-05 0
-9.47628e-06 7.27968e-05 0
-9.47628e-06 7.27968e-05 0
-9.37655e-06 9.09134e-05 0
-9.37655e-06 9.09134e-05 0
-9.30279e-06 0.000108864 0
-9.30279e-06 0.000108864 0
-9.22021e-06 0.000126682 0
-9.22021e-06 0.000126682 0
-9.1174e-06 0.000144346 0
-9.1174e-06 0.000144346 0
-8.99018e-06 0.000161811 0
-8.99018e-06 0.000161811 0
-8.83553e-06 0.000179025 0
-8.83553e-06 0.000179025 0
-8.65026e-06 0.000195932 0
-8.65026e-06 0.000195932 0
-8.43055e-06 0.00021247 0
-8.43055e-06 0.00021247 0
-8.17279e-06 0.000228566 0
-8.17279e-06 0.000228566 0
-7.87356e-06 0.000244143 0
-7.87356e-06 0.000244143 0
-7.52896e-06 0.000259114 0
-7.52896e-06 0.000259114 0
-7.13603e-06 0.000273386 0
-7.13603e-06 0.000273386 0
-6.69347e-06 0.000286863 0
-6.69347e-06 0.000286863 0
-6.20076e-06 0.000299443 0
-6.20076e-06 0.000299443 0
-5.65824e-06 0.00031102 0
-5.65824e-06 0.00031102 0
-5.06828e-06 0.00032149 0
-5.06828e-06 0.00032149 0
-4.43354e-06 0.000330756 0
-4.43354e-06 0.000330756 0
-3.75788e-06 0.000338724 0
-3.75788e-06 0.000338724 0
-3.04568e-06 0.000345314 0
-3.04568e-06 0.000345314 0
-2.30664e-06 0.000350451 0
-2.30664e-06 0.000350451 0
-1.54592e-06 0.000354103 0
-1.54592e-06 0.000354103 0
-7.51377e-07 0.000356216 0
-7.51377e-07 0.000356216 0
7.63043e-08 0.000356827 0
7.63043e-08 0.000356827 0
9.42712e-07 0.000355785 0
9.42712e-07 0.000355785 0
1.8281e-06 0.000353329 0
1.8281e-06 0.000353329 0
2.70131e-06 0.000349147 0
2.70131e-06 0.000349147 0
3.47108e-06 0.000344154 0
3.47108e-06 0.000344154 0
4.13962e-06 0.000337205 0
4.13962e-06 0.000337205 0
4.5983e-06 0.000330924 0
4.5983e-06 0.000330924 0
4.90499e-06 0.000322304 0
4.90499e-06 0.000322304 0
4.89893e-06 0.000316421 0
4.89893e-06 0.000316421 0
4.59823e-06 0.000307863 0
4.59823e-06 0.000307863 0
3.60405e-06 0.000304698 0
3.60405e-06 0.000304698 0
2.31391e-06 0.000298982 0
2.31391e-06 0.000298982 0
-6.44149e-08 0.00030173 0
-6.44149e-08 0.00030173 0
-3.24151e-06 0.000302246 0
-3.24151e-06 0.000302246 0
-3.42352e-06 0.000320256 0
-3.42352e-06 0.000320256 0
-1.98838e-05 0.000321158 0
-1.98838e-05 0.000321158 0
-1.50519e-05 0.000381705 0
-1.50519e-05 0.000381705 0
-2.36016e-05 0.000399317 0
-2.36016e-05 0.000399317 0
-5.27335e-05 0.000465732 0
-5.27335e-05 0.000465732 0
-0.000108612 0.000587678 0
-0.000108612 0.000587678 0
-9.78309e-05 0.000734892 0
-9.78309e-05 0.000734892 0
-0.000230949 0.000980801 0
-0.000230949 0.000980801 0
-0.000266101 0.00131833 0
-0.000266101 0.00131833 0
-1.63252e-05 7.09617e-06 0
-1.63252e-05 7.09617e-06 0
-3.23839e-05 7.1819e-06 0
-3.23839e-05 7.1819e-06 0
-4.89103e-05 7.41088e-06 0
-4.89103e-05 7.41088e-06 0
-6.55934e-05 7.65174e-06 0
-6.55934e-05 7.65174e-06 0
-8.25728e-05 7.93764e-06 0
-8.25728e-05 7.93764e-06 0
-9.98816e-05 8.2505e-06 0
-9.98816e-05 8.2505e-06 0
-0.000117515 8.56921e-06 0
-0.000117515 8.56921e-06 0
-0.00013548 8.87673e-06 0
-0.00013548 8.87673e-06 0
-0.000153729 9.15553e-06 0
-0.000153729 9.15553e-06 0
-0.000172227 9.39047e-06 0
-0.000172227 9.39047e-06 0
-0.000190898 9.56915e-06 0
-0.000190898 9.56915e-06 0
-0.000209676 9.6832e-06 0
-0.000209676 9.6832e-06 0
-0.00022847 9.72901e-06 0
-0.00022847 9.72901e-06 0
-0.000247188 9.70913e-06 0
-0.000247188 9.70913e-06 0
-0.000265719 9.62521e-06 0
-0.000265719 9.62521e-06 0
-0.000283947 9.47238e-06 0
-0.000283947 9.47238e-06 0
-0.000301743 9.24342e-06 0
-0.000301743 9.24342e-06 0
-0.000318966 8.93088e-06 0
-0.000318966 8.93088e-06 0
-0.000335464 8.52777e-06 0
-0.000335464 8.52777e-06 0
-0.000351068 8.02751e-06 0
-0.000351068 8.02751e-06 0
-0.000365603 7.42473e-06 0
-0.000365603 7.42473e-06 0
-0.00037888 6.7162e-06 0
-0.00037888 6.7162e-06 0
-0.000390708 5.90082e-06 0
-0.000390708 5.90082e-06 0
-0.000400894 4.97981e-06 0
-0.000400894 4.97981e-06 0
-0.000409252 3.95841e-06 0
-0.000409252 3.95841e-06 0
-0.000415609 2.84779e-06 0
-0.000415609 2.84779e-06 0
-0.000419809 1.66664e-06 0
-0.000419809 1.66664e-06 0
-0.000421711 4.46738e-07 0
-0.000421711 4.46738e-07 0
-0.000421236 -7.80482e-07 0
-0.000421236 -7.80482e-07 0
-0.000418363 -2.00191e-06 0
-0.000418363 -2.00191e-06 0
-0.000413061 -3.21786e-06 0
-0.000413061 -3.21786e-06 0
-0.00040532 -4.4258e-06 0
-0.00040532 -4.4258e-06 0
-0.000395169 -5.61327e-06 0
-0.000395169 -5.61327e-06 0
-0.000382664 -6.76487e-06 0
-0.000382664 -6.76487e-06 0
-0.000367895 -7.8653e-06 0
-0.000367895 -7.8653e-06 0
-0.000350978 -8.90063e-06 0
-0.000350978 -8.90063e-06 0
-0.000332061 -9.85898e-06 0
-0.000332061 -9.85898e-06 0
-0.000311307 -1.07307e-05 0
-0.000311307 -1.07307e-05 0
-0.000288899 -1.15089e-05 0
-0.000288899 -1.15089e-05 0
-0.000265032 -1.21894e-05 0
-0.000265032 -1.21894e-05 0
-0.000239904 -1.27701e-05 0
-0.000239904 -1.27701e-05 0
-0.000213716 -1.32512e-05 0
-0.000213716 -1.32512e-05 0
-0.000186667 -1.36348e-05 0
-0.000186667 -1.36348e-05 0
-0.000158948 -1.39251e-05 0
-0.000158948 -1.39251e-05 0
-0.000130742 -1.41272e-05 0
-0.000130742 -1.41272e-05 0
-0.00010222 -1.42475e-05 0
-0.00010222 -1.42475e-05 0
-7.3536e-05 -1.42926e-05 0
-7.3536e-05 -1.42926e-05 0
-4.48292e-05 -1.42685e-05 0
-4.48292e-05 -1.42685e-05 0
-1.62337e-05 -1.41858e-05 0
-1.62337e-05 -1.41858e-05 0
1.21287e-05 -1.40511e-05 0
1.21287e-05 -1.40511e-05 0
4.01693e-05 -1.387e-05 0
4.01693e-05 -1.387e-05 0
6.78097e-05 -1.36509e-05 0
6.78097e-05 -1.36509e-05 0
9.49764e-05 -1.33998e-05 0
9.49764e-05 -1.33998e-05 0
0.000121612 -1.31229e-05 0
0.000121612 -1.31229e-05 0
0.000147671 -1.28256e-05 0
0.000147671 -1.28256e-05 0
0.000173118 -1.25129e-05 0
0.000173118 -1.25129e-05 0
0.000197926 -1.21894e-05 0
0.000197926 -1.21894e-05 0
0.000222077 -1.18586e-05 0
0.000222077 -1.18586e-05 0
0.000245562 -1.1524e-05 0
0.000245562 -1.1524e-05 0
0.000268374 -1.11883e-05 0
0.000268374 -1.11883e-05 0
0.000290515 -1.08539e-05 0
0.000290515 -1.08539e-05 0
0.00031199 -1.05227e-05 0
0.00031199 -1.05227e-05 0
0.000332805 -1.01965e-05 0
0.000332805 -1.01965e-05 0
0.000352973 -9.87638e-06 0
0.000352973 -9.87638e-06 0
0.000372507 -9.56349e-06 0
0.000372507 -9.56349e-06 0
0.000391423 -9.25861e-06 0
0.000391423 -9.25861e-06 0
0.000409736 -8.96232e-06 0
0.000409736 -8.96232e-06 0
0.000427465 -8.67508e-06 0
0.000427465 -8.67508e-06 0
0.000444628 -8.3972e-06 0
0.000444628 -8.3972e-06 0
0.000461244 -8.12887e-06 0
0.000461244 -8.12887e-06 0
0.000477331 -7.87009e-06 0
0.000477331 -7.87009e-06 0
0.000492911 -7.62085e-06 0
0.000492911 -7.62085e-06 0
0.000508 -7.38114e-06 0
0.000508 -7.38114e-06 0
0.000522619 -7.15095e-06 0
0.000522619 -7.15095e-06 0
0.000536787 -6.93019e-06 0
0.000536787 -6.93019e-06 0
0.000550521 -6.71864e-06 0
0.000550521 -6.71864e-06 0
0.000563841 -6.51604e-06 0
0.000563841 -6.51604e-06 0
0.000576763 -6.32215e-06 0
0.000576763 -6.32215e-06 0
0.000589305 -6.13678e-06 0
0.000589305 -6.13678e-06 0
0.000601484 -5.95972e-06 0
0.000601484 -5.95972e-06 0
0.000613317 -5.79074e-06 0
0.000613317 -5.79074e-06 0
0.000624817 -5.62962e-06 0
0.000624817 -5.62962e-06 0
0.000636005 -5.47612e-06 0
0.000636005 -5.47612e-06 0
0.000646888 -5.33006e-06 0
0.000646888 -5.33006e-06 0
0.000657491 -5.19117e-06 0
0.000657491 -5.19117e-06 0
0.000667815 -5.05931e-06 0
0.000667815 -5.05931e-06 0
0.000677892 -4.93412e-06 0
0.000677892 -4.93412e-06 0
0.000687707 -4.81559e-06 0
0.000687707 -4.81559e-06 0
0.000697318 -4.70317e-06 0
0.000697318 -4.70317e-06 0
0.000706666 -4.5972e-06 0
0.000706666 -4.5972e-06 0
0.000715873 -4.49679e-06 0
0.000715873 -4.49679e-06 0
0.000724784 -4.40293e-06 0
0.000724784 -4.40293e-06 0
0.000733666 -4.3138e-06 0
0.000733666 -4.3138e-06 0
0.000742139 -4.23173e-06 0
0.000742139 -4.23173e-06 0
0.000750809 -4.15285e-06 0
0.000750809 -4.15285e-06 0
0.000758783 -4.08275e-06 0
0.000758783 -4.08275e-06 0
0.000767438 -4.01283e-06 0
0.000767438 -4.01283e-06 0
0.000774715 -3.9558e-06 0
0.000774715 -3.9558e-06 0
0.989263 -0.00480867 0
0.989263 -0.00480867 0
1.97775 -0.00961341 0
1.97775 -0.00961341 0
