/*--------------------------------*- C++ -*----------------------------------*\
| =========                 |                                                 |
| \\      /  F ield         | OpenFOAM: The Open Source CFD Toolbox           |
|  \\    /   O peration     | Version:  4.1                                   |
|   \\  /    A nd           | Web:      www.OpenFOAM.org                      |
|    \\/     M anipulation  |                                                 |
\*---------------------------------------------------------------------------*/
FoamFile
{
    version     2.0;
    format      ascii;
    class       volScalarField;
    location    "90";
    object      p;
}
// * * * * * * * * * * * * * * * * * * * * * * * * * * * * * * * * * * * * * //

dimensions      [0 2 -2 0 0 0 0];

internalField   nonuniform List<scalar> 
43750
(
9.72199e-05
8.85139e-05
8.23995e-05
7.94941e-05
7.73914e-05
7.53236e-05
7.35292e-05
7.21744e-05
7.12062e-05
7.05295e-05
7.00822e-05
6.98189e-05
6.96965e-05
6.96763e-05
6.97283e-05
6.9831e-05
6.99694e-05
7.01338e-05
7.03185e-05
7.05204e-05
7.07386e-05
7.09733e-05
7.12255e-05
7.14966e-05
7.17881e-05
7.21012e-05
7.24368e-05
7.27952e-05
7.31763e-05
7.35788e-05
7.40011e-05
7.4441e-05
7.48962e-05
7.53642e-05
7.58431e-05
7.63312e-05
7.68277e-05
7.73322e-05
7.78449e-05
7.83661e-05
7.88966e-05
7.94368e-05
7.99872e-05
8.05479e-05
8.11184e-05
8.16981e-05
8.22859e-05
8.28806e-05
8.3481e-05
8.40857e-05
8.46939e-05
8.53048e-05
8.5918e-05
8.65332e-05
8.71503e-05
8.77693e-05
8.83901e-05
8.90126e-05
8.96368e-05
9.02625e-05
9.08893e-05
9.15171e-05
9.21454e-05
9.27739e-05
9.3402e-05
9.40294e-05
9.46554e-05
9.52794e-05
9.59008e-05
9.65188e-05
9.71327e-05
9.77417e-05
9.83449e-05
9.89415e-05
9.95305e-05
0.000100111
0.000100682
0.000101242
0.00010179
0.000102325
0.000102845
0.000103351
0.000103839
0.00010431
0.00010476
0.00010519
0.000105598
0.000105982
0.000106341
0.000106674
0.000106979
0.000107255
0.0001075
0.000107715
0.0001079
0.000108052
0.000108172
0.000108262
0.000108322
0.00010835
8.43091e-05
8.2727e-05
8.04703e-05
7.85918e-05
7.69391e-05
7.52753e-05
7.37377e-05
7.24935e-05
7.15611e-05
7.08888e-05
7.0427e-05
7.01367e-05
6.9981e-05
6.9926e-05
6.9944e-05
7.0015e-05
7.01252e-05
7.02653e-05
7.04292e-05
7.06136e-05
7.08172e-05
7.10398e-05
7.12819e-05
7.15446e-05
7.1829e-05
7.21364e-05
7.24673e-05
7.28223e-05
7.32008e-05
7.36019e-05
7.40237e-05
7.44638e-05
7.49197e-05
7.53887e-05
7.58684e-05
7.6357e-05
7.68534e-05
7.73574e-05
7.7869e-05
7.83891e-05
7.89185e-05
7.94579e-05
8.00079e-05
8.05686e-05
8.11395e-05
8.172e-05
8.23088e-05
8.29046e-05
8.3506e-05
8.41118e-05
8.47208e-05
8.53323e-05
8.5946e-05
8.65616e-05
8.7179e-05
8.77983e-05
8.84194e-05
8.90422e-05
8.96667e-05
9.02926e-05
9.09198e-05
9.15479e-05
9.21765e-05
9.28053e-05
9.34338e-05
9.40615e-05
9.46878e-05
9.53121e-05
9.59337e-05
9.6552e-05
9.71662e-05
9.77754e-05
9.83788e-05
9.89756e-05
9.95647e-05
0.000100145
0.000100716
0.000101276
0.000101824
0.00010236
0.00010288
0.000103386
0.000103874
0.000104345
0.000104795
0.000105226
0.000105633
0.000106017
0.000106376
0.000106709
0.000107014
0.000107291
0.000107537
0.000107752
0.000107935
0.000108085
0.000108204
0.000108291
0.000108349
0.00010838
8.22883e-05
8.15499e-05
7.99103e-05
7.8122e-05
7.65857e-05
7.5226e-05
7.39906e-05
7.29315e-05
7.20802e-05
7.14215e-05
7.09284e-05
7.0579e-05
7.03527e-05
7.02278e-05
7.01835e-05
7.02025e-05
7.02711e-05
7.0379e-05
7.05188e-05
7.06856e-05
7.08763e-05
7.10893e-05
7.13242e-05
7.15811e-05
7.18607e-05
7.21639e-05
7.24911e-05
7.28426e-05
7.3218e-05
7.36162e-05
7.40355e-05
7.44737e-05
7.4928e-05
7.5396e-05
7.58752e-05
7.63638e-05
7.68607e-05
7.73652e-05
7.78774e-05
7.83977e-05
7.89268e-05
7.94655e-05
8.00145e-05
8.05743e-05
8.11446e-05
8.17249e-05
8.23142e-05
8.29108e-05
8.35132e-05
8.412e-05
8.47299e-05
8.53422e-05
8.59564e-05
8.65725e-05
8.71903e-05
8.781e-05
8.84315e-05
8.90549e-05
8.968e-05
9.03067e-05
9.09347e-05
9.15637e-05
9.21933e-05
9.28232e-05
9.34528e-05
9.40817e-05
9.47092e-05
9.53348e-05
9.59579e-05
9.65776e-05
9.71932e-05
9.7804e-05
9.8409e-05
9.90074e-05
9.95982e-05
0.00010018
0.000100753
0.000101315
0.000101865
0.000102401
0.000102924
0.000103431
0.000103921
0.000104393
0.000104846
0.000105277
0.000105687
0.000106072
0.000106433
0.000106767
0.000107073
0.00010735
0.000107597
0.000107813
0.000107996
0.000108146
0.000108263
0.000108348
0.000108407
0.000108443
7.9828e-05
7.93108e-05
7.82656e-05
7.70318e-05
7.58812e-05
7.48336e-05
7.38563e-05
7.29791e-05
7.22415e-05
7.16503e-05
7.11925e-05
7.08529e-05
7.06179e-05
7.04726e-05
7.0402e-05
7.03925e-05
7.04331e-05
7.05152e-05
7.06323e-05
7.07797e-05
7.09541e-05
7.11537e-05
7.13775e-05
7.16251e-05
7.18967e-05
7.21924e-05
7.25125e-05
7.2857e-05
7.32252e-05
7.36163e-05
7.40286e-05
7.44604e-05
7.49092e-05
7.53728e-05
7.58492e-05
7.63364e-05
7.68332e-05
7.73389e-05
7.78531e-05
7.83759e-05
7.89076e-05
7.94486e-05
7.99993e-05
8.05597e-05
8.113e-05
8.17096e-05
8.22978e-05
8.28935e-05
8.34952e-05
8.41016e-05
8.47114e-05
8.53237e-05
8.59381e-05
8.65543e-05
8.71723e-05
8.77924e-05
8.84145e-05
8.90385e-05
8.96645e-05
9.02922e-05
9.09214e-05
9.15518e-05
9.2183e-05
9.28146e-05
9.34461e-05
9.4077e-05
9.47068e-05
9.53348e-05
9.59604e-05
9.65828e-05
9.72012e-05
9.78149e-05
9.8423e-05
9.90246e-05
9.96186e-05
0.000100204
0.00010078
0.000101345
0.000101899
0.000102439
0.000102965
0.000103476
0.00010397
0.000104445
0.000104901
0.000105336
0.000105749
0.000106137
0.000106501
0.000106838
0.000107146
0.000107426
0.000107674
0.000107891
0.000108075
0.000108225
0.00010834
0.000108424
0.000108483
0.000108526
7.80345e-05
7.77398e-05
7.7083e-05
7.62144e-05
7.53182e-05
7.44644e-05
7.36595e-05
7.29236e-05
7.22864e-05
7.17606e-05
7.13419e-05
7.10211e-05
7.07888e-05
7.06351e-05
7.05492e-05
7.05213e-05
7.05426e-05
7.06063e-05
7.07066e-05
7.08393e-05
7.10014e-05
7.11906e-05
7.14055e-05
7.16454e-05
7.19098e-05
7.21986e-05
7.25114e-05
7.28479e-05
7.32077e-05
7.35897e-05
7.39927e-05
7.44152e-05
7.48553e-05
7.53114e-05
7.57816e-05
7.62647e-05
7.67594e-05
7.72651e-05
7.77813e-05
7.83077e-05
7.88442e-05
7.93904e-05
7.99459e-05
8.05103e-05
8.10831e-05
8.16639e-05
8.22518e-05
8.28463e-05
8.34463e-05
8.40508e-05
8.46589e-05
8.52699e-05
8.58833e-05
8.64989e-05
8.71166e-05
8.77366e-05
8.83588e-05
8.89833e-05
8.961e-05
9.02386e-05
9.0869e-05
9.15008e-05
9.21337e-05
9.27672e-05
9.34008e-05
9.40342e-05
9.46666e-05
9.52975e-05
9.59262e-05
9.6552e-05
9.7174e-05
9.77916e-05
9.84037e-05
9.90095e-05
9.96079e-05
0.000100198
0.000100779
0.000101349
0.000101907
0.000102453
0.000102984
0.0001035
0.000103999
0.000104479
0.00010494
0.00010538
0.000105797
0.00010619
0.000106557
0.000106898
0.00010721
0.000107493
0.000107744
0.000107963
0.000108148
0.000108298
0.000108413
0.000108495
0.000108554
0.000108599
7.66491e-05
7.64605e-05
7.60124e-05
7.53779e-05
7.46826e-05
7.39985e-05
7.33465e-05
7.27416e-05
7.22041e-05
7.17478e-05
7.13749e-05
7.10816e-05
7.08624e-05
7.07113e-05
7.06212e-05
7.05848e-05
7.05957e-05
7.06481e-05
7.07374e-05
7.08599e-05
7.10125e-05
7.11932e-05
7.14004e-05
7.16331e-05
7.18905e-05
7.21721e-05
7.24774e-05
7.28059e-05
7.31569e-05
7.35296e-05
7.39228e-05
7.43354e-05
7.4766e-05
7.52131e-05
7.56756e-05
7.61523e-05
7.66424e-05
7.71454e-05
7.76608e-05
7.81886e-05
7.87282e-05
7.92793e-05
7.98407e-05
8.04114e-05
8.099e-05
8.15751e-05
8.21657e-05
8.27609e-05
8.33601e-05
8.3963e-05
8.45691e-05
8.5178e-05
8.57896e-05
8.64038e-05
8.70205e-05
8.76398e-05
8.82617e-05
8.88861e-05
8.9513e-05
9.01422e-05
9.07734e-05
9.14062e-05
9.20404e-05
9.26756e-05
9.33112e-05
9.39468e-05
9.45817e-05
9.52155e-05
9.58473e-05
9.64765e-05
9.71022e-05
9.77238e-05
9.83401e-05
9.89505e-05
9.95537e-05
0.000100149
0.000100735
0.00010131
0.000101874
0.000102426
0.000102963
0.000103484
0.000103989
0.000104475
0.000104942
0.000105387
0.00010581
0.000106208
0.000106581
0.000106926
0.000107242
0.000107529
0.000107783
0.000108005
0.000108192
0.000108344
0.00010846
0.000108541
0.000108599
0.000108645
7.55138e-05
7.53807e-05
7.50608e-05
7.45939e-05
7.40617e-05
7.35207e-05
7.29947e-05
7.24982e-05
7.20475e-05
7.16559e-05
7.1329e-05
7.10667e-05
7.08667e-05
7.07253e-05
7.0638e-05
7.05998e-05
7.06058e-05
7.06517e-05
7.07336e-05
7.08483e-05
7.09934e-05
7.11667e-05
7.13668e-05
7.15925e-05
7.1843e-05
7.21174e-05
7.24152e-05
7.27357e-05
7.30782e-05
7.34419e-05
7.38258e-05
7.42289e-05
7.46501e-05
7.50882e-05
7.55424e-05
7.60116e-05
7.64954e-05
7.69932e-05
7.7505e-05
7.80305e-05
7.85698e-05
7.91222e-05
7.96869e-05
8.02623e-05
8.08464e-05
8.1437e-05
8.20321e-05
8.26303e-05
8.32309e-05
8.38336e-05
8.44385e-05
8.50459e-05
8.56558e-05
8.62684e-05
8.68838e-05
8.7502e-05
8.81232e-05
8.87472e-05
8.93738e-05
9.0003e-05
9.06345e-05
9.1268e-05
9.19031e-05
9.25394e-05
9.31764e-05
9.38138e-05
9.44508e-05
9.50869e-05
9.57214e-05
9.63536e-05
9.69827e-05
9.76078e-05
9.82282e-05
9.88427e-05
9.94505e-05
0.000100051
0.000100642
0.000101222
0.000101792
0.000102349
0.000102892
0.000103419
0.00010393
0.000104422
0.000104895
0.000105346
0.000105774
0.000106178
0.000106556
0.000106906
0.000107227
0.000107517
0.000107775
0.000108
0.00010819
0.000108344
0.000108462
0.000108544
0.000108601
0.000108647
7.45552e-05
7.44583e-05
7.42247e-05
7.38771e-05
7.34685e-05
7.30406e-05
7.26157e-05
7.22086e-05
7.18332e-05
7.15012e-05
7.12195e-05
7.099e-05
7.08124e-05
7.06851e-05
7.06053e-05
7.05699e-05
7.05753e-05
7.06183e-05
7.0696e-05
7.08056e-05
7.09451e-05
7.11126e-05
7.13068e-05
7.15264e-05
7.17705e-05
7.20383e-05
7.23291e-05
7.26422e-05
7.29768e-05
7.33322e-05
7.37075e-05
7.41018e-05
7.45142e-05
7.49438e-05
7.53897e-05
7.58514e-05
7.63281e-05
7.68197e-05
7.7326e-05
7.78471e-05
7.83828e-05
7.89331e-05
7.94972e-05
8.00736e-05
8.06601e-05
8.12541e-05
8.18527e-05
8.24541e-05
8.30568e-05
8.36607e-05
8.42657e-05
8.48723e-05
8.54812e-05
8.60925e-05
8.67067e-05
8.73239e-05
8.79441e-05
8.85674e-05
8.91935e-05
8.98223e-05
9.04537e-05
9.10873e-05
9.17227e-05
9.23596e-05
9.29976e-05
9.36361e-05
9.42745e-05
9.49124e-05
9.55489e-05
9.61835e-05
9.68153e-05
9.74434e-05
9.80671e-05
9.86853e-05
9.9297e-05
9.99012e-05
0.000100497
0.000101082
0.000101657
0.000102219
0.000102767
0.0001033
0.000103816
0.000104314
0.000104792
0.000105249
0.000105682
0.000106091
0.000106474
0.000106829
0.000107154
0.000107449
0.000107711
0.000107938
0.000108131
0.000108288
0.000108407
0.00010849
0.000108548
0.000108593
7.37258e-05
7.36537e-05
7.34792e-05
7.32161e-05
7.29001e-05
7.25615e-05
7.22194e-05
7.18872e-05
7.1577e-05
7.1299e-05
7.10597e-05
7.08627e-05
7.07089e-05
7.0598e-05
7.05289e-05
7.04994e-05
7.05074e-05
7.05505e-05
7.06264e-05
7.07331e-05
7.08689e-05
7.1032e-05
7.12213e-05
7.14357e-05
7.16742e-05
7.1936e-05
7.22204e-05
7.25267e-05
7.28541e-05
7.32019e-05
7.35694e-05
7.39557e-05
7.436e-05
7.47817e-05
7.52199e-05
7.56742e-05
7.6144e-05
7.66292e-05
7.71294e-05
7.76449e-05
7.81757e-05
7.87216e-05
7.92822e-05
7.98562e-05
8.04415e-05
8.10354e-05
8.16349e-05
8.22375e-05
8.28415e-05
8.34462e-05
8.40516e-05
8.46581e-05
8.52663e-05
8.58769e-05
8.64901e-05
8.71062e-05
8.77254e-05
8.83477e-05
8.89729e-05
8.96011e-05
9.02319e-05
9.08651e-05
9.15004e-05
9.21373e-05
9.27756e-05
9.34146e-05
9.40539e-05
9.46929e-05
9.53308e-05
9.5967e-05
9.66007e-05
9.72312e-05
9.78574e-05
9.84784e-05
9.90932e-05
9.97008e-05
0.0001003
0.000100889
0.000101468
0.000102034
0.000102587
0.000103125
0.000103645
0.000104148
0.000104631
0.000105093
0.000105531
0.000105945
0.000106332
0.000106691
0.00010702
0.000107318
0.000107583
0.000107814
0.00010801
0.000108168
0.00010829
0.000108374
0.000108432
0.000108478
7.29924e-05
7.29378e-05
7.28053e-05
7.26038e-05
7.23581e-05
7.20904e-05
7.18159e-05
7.15461e-05
7.12915e-05
7.10608e-05
7.08604e-05
7.06942e-05
7.05641e-05
7.04708e-05
7.04139e-05
7.03926e-05
7.04053e-05
7.04506e-05
7.05267e-05
7.06322e-05
7.07655e-05
7.09255e-05
7.1111e-05
7.13209e-05
7.15545e-05
7.18109e-05
7.20895e-05
7.23895e-05
7.27102e-05
7.30511e-05
7.34113e-05
7.37902e-05
7.41871e-05
7.46014e-05
7.50324e-05
7.54797e-05
7.59428e-05
7.64214e-05
7.69156e-05
7.74252e-05
7.79504e-05
7.84909e-05
7.90465e-05
7.96158e-05
8.01972e-05
8.07881e-05
8.13855e-05
8.19868e-05
8.25902e-05
8.31945e-05
8.37995e-05
8.44055e-05
8.5013e-05
8.56227e-05
8.62348e-05
8.68497e-05
8.74677e-05
8.80888e-05
8.87129e-05
8.93399e-05
8.99697e-05
9.06021e-05
9.12367e-05
9.18731e-05
9.25111e-05
9.31501e-05
9.37895e-05
9.44288e-05
9.50674e-05
9.57046e-05
9.63395e-05
9.69714e-05
9.75993e-05
9.82224e-05
9.88395e-05
9.94497e-05
0.000100052
0.000100644
0.000101226
0.000101796
0.000102352
0.000102893
0.000103418
0.000103925
0.000104412
0.000104877
0.000105319
0.000105737
0.000106128
0.00010649
0.000106823
0.000107124
0.000107392
0.000107625
0.000107823
0.000107984
0.000108106
0.000108192
0.00010825
0.000108296
7.23319e-05
7.229e-05
7.21882e-05
7.20326e-05
7.18408e-05
7.16292e-05
7.14095e-05
7.11914e-05
7.09839e-05
7.07945e-05
7.06291e-05
7.04916e-05
7.03844e-05
7.03088e-05
7.0265e-05
7.0253e-05
7.02719e-05
7.03208e-05
7.03986e-05
7.05041e-05
7.06362e-05
7.0794e-05
7.09764e-05
7.11826e-05
7.14119e-05
7.16634e-05
7.19366e-05
7.22309e-05
7.25455e-05
7.28798e-05
7.32333e-05
7.36052e-05
7.39951e-05
7.44024e-05
7.48264e-05
7.52668e-05
7.57233e-05
7.61955e-05
7.66835e-05
7.7187e-05
7.77062e-05
7.82409e-05
7.87905e-05
7.93541e-05
7.99299e-05
8.05157e-05
8.11088e-05
8.17066e-05
8.23072e-05
8.29094e-05
8.35128e-05
8.41173e-05
8.47235e-05
8.53317e-05
8.59423e-05
8.65557e-05
8.7172e-05
8.77914e-05
8.84139e-05
8.90393e-05
8.96676e-05
9.02986e-05
9.09319e-05
9.15672e-05
9.22042e-05
9.28424e-05
9.34813e-05
9.41203e-05
9.47589e-05
9.53962e-05
9.60315e-05
9.66641e-05
9.72929e-05
9.79172e-05
9.85357e-05
9.91476e-05
9.97514e-05
0.000100346
0.00010093
0.000101503
0.000102062
0.000102606
0.000103134
0.000103643
0.000104133
0.000104602
0.000105047
0.000105468
0.000105861
0.000106227
0.000106562
0.000106865
0.000107135
0.000107371
0.00010757
0.000107732
0.000107856
0.000107942
0.000108001
0.000108047
7.17272e-05
7.16948e-05
7.16161e-05
7.14952e-05
7.13451e-05
7.11779e-05
7.10028e-05
7.08277e-05
7.066e-05
7.05064e-05
7.03721e-05
7.02608e-05
7.01751e-05
7.01166e-05
7.00861e-05
7.0084e-05
7.01099e-05
7.01634e-05
7.02438e-05
7.03503e-05
7.04821e-05
7.06385e-05
7.08185e-05
7.10216e-05
7.1247e-05
7.14942e-05
7.17625e-05
7.20513e-05
7.23601e-05
7.26883e-05
7.30354e-05
7.34007e-05
7.37838e-05
7.41842e-05
7.46015e-05
7.50352e-05
7.5485e-05
7.59507e-05
7.64322e-05
7.69294e-05
7.74423e-05
7.79706e-05
7.85138e-05
7.90709e-05
7.96402e-05
8.02196e-05
8.08068e-05
8.13994e-05
8.19955e-05
8.2594e-05
8.31942e-05
8.37961e-05
8.43998e-05
8.50056e-05
8.5614e-05
8.62251e-05
8.68392e-05
8.74563e-05
8.80765e-05
8.86997e-05
8.93259e-05
8.99548e-05
9.05861e-05
9.12197e-05
9.1855e-05
9.24917e-05
9.31293e-05
9.37672e-05
9.44049e-05
9.50415e-05
9.56764e-05
9.63088e-05
9.69378e-05
9.75623e-05
9.81815e-05
9.87941e-05
9.9399e-05
9.99949e-05
0.000100581
0.000101155
0.000101715
0.000102261
0.000102791
0.000103303
0.000103795
0.000104266
0.000104714
0.000105136
0.000105532
0.0001059
0.000106237
0.000106542
0.000106814
0.000107051
0.000107251
0.000107414
0.000107539
0.000107625
0.000107685
0.000107731
7.11656e-05
7.11405e-05
7.10793e-05
7.09852e-05
7.08678e-05
7.07361e-05
7.05972e-05
7.04577e-05
7.03238e-05
7.0201e-05
7.00939e-05
7.00062e-05
6.99403e-05
6.98981e-05
6.98806e-05
6.98884e-05
6.99218e-05
6.99805e-05
7.00641e-05
7.01723e-05
7.03044e-05
7.04599e-05
7.06382e-05
7.08386e-05
7.10607e-05
7.13039e-05
7.15676e-05
7.18514e-05
7.21547e-05
7.2477e-05
7.28179e-05
7.31768e-05
7.35534e-05
7.39471e-05
7.43575e-05
7.47844e-05
7.52275e-05
7.56865e-05
7.61613e-05
7.66519e-05
7.71581e-05
7.76796e-05
7.82159e-05
7.87658e-05
7.93279e-05
7.99001e-05
8.04803e-05
8.10664e-05
8.16567e-05
8.225e-05
8.28457e-05
8.34435e-05
8.40436e-05
8.4646e-05
8.52512e-05
8.58591e-05
8.64701e-05
8.70842e-05
8.77013e-05
8.83216e-05
8.89449e-05
8.95709e-05
9.01996e-05
9.08305e-05
9.14634e-05
9.20978e-05
9.27333e-05
9.33693e-05
9.40052e-05
9.46403e-05
9.5274e-05
9.59053e-05
9.65334e-05
9.71573e-05
9.77761e-05
9.83886e-05
9.89936e-05
9.95898e-05
0.000100176
0.000100751
0.000101312
0.00010186
0.00010239
0.000102904
0.000103397
0.000103869
0.000104318
0.000104743
0.00010514
0.000105509
0.000105847
0.000106153
0.000106426
0.000106664
0.000106865
0.000107029
0.000107154
0.000107241
0.0001073
0.000107347
7.06375e-05
7.0618e-05
7.05705e-05
7.04973e-05
7.04056e-05
7.03024e-05
7.01932e-05
7.00833e-05
6.99777e-05
6.98814e-05
6.97982e-05
6.97315e-05
6.96836e-05
6.96565e-05
6.96513e-05
6.96689e-05
6.97097e-05
6.97738e-05
6.98611e-05
6.99714e-05
7.01043e-05
7.02594e-05
7.04363e-05
7.06345e-05
7.08535e-05
7.1093e-05
7.13525e-05
7.16315e-05
7.19295e-05
7.22462e-05
7.25811e-05
7.29338e-05
7.33038e-05
7.36909e-05
7.40946e-05
7.45147e-05
7.49509e-05
7.5403e-05
7.58708e-05
7.63544e-05
7.68535e-05
7.73678e-05
7.78966e-05
7.84388e-05
7.8993e-05
7.95573e-05
8.01298e-05
8.07084e-05
8.12918e-05
8.18787e-05
8.24685e-05
8.3061e-05
8.36562e-05
8.42541e-05
8.48549e-05
8.54587e-05
8.60656e-05
8.66757e-05
8.7289e-05
8.79054e-05
8.85249e-05
8.91473e-05
8.97724e-05
9.03999e-05
9.10295e-05
9.16607e-05
9.22932e-05
9.29263e-05
9.35596e-05
9.41923e-05
9.48237e-05
9.54529e-05
9.60793e-05
9.67017e-05
9.73191e-05
9.79305e-05
9.85346e-05
9.91302e-05
9.97159e-05
0.00010029
0.000100852
0.000101399
0.000101931
0.000102444
0.000102938
0.000103411
0.000103861
0.000104285
0.000104683
0.000105053
0.000105392
0.000105699
0.000105972
0.00010621
0.000106412
0.000106576
0.000106701
0.000106787
0.000106847
0.000106894
7.01353e-05
7.01203e-05
7.00835e-05
7.00268e-05
6.99557e-05
6.98756e-05
6.97907e-05
6.97053e-05
6.96237e-05
6.955e-05
6.94876e-05
6.94394e-05
6.94077e-05
6.93944e-05
6.94007e-05
6.94276e-05
6.94757e-05
6.95452e-05
6.96363e-05
6.97489e-05
6.98828e-05
7.00378e-05
7.02136e-05
7.04098e-05
7.06262e-05
7.08622e-05
7.11176e-05
7.1392e-05
7.1685e-05
7.19962e-05
7.23252e-05
7.26717e-05
7.30354e-05
7.34158e-05
7.38128e-05
7.42259e-05
7.46551e-05
7.51e-05
7.55607e-05
7.60369e-05
7.65285e-05
7.70351e-05
7.7556e-05
7.809e-05
7.86358e-05
7.91916e-05
7.97555e-05
8.03258e-05
8.09012e-05
8.14806e-05
8.20634e-05
8.26495e-05
8.32386e-05
8.38308e-05
8.44261e-05
8.50247e-05
8.56265e-05
8.62316e-05
8.684e-05
8.74517e-05
8.80665e-05
8.86843e-05
8.93049e-05
8.9928e-05
9.05533e-05
9.11804e-05
9.18089e-05
9.24382e-05
9.30678e-05
9.36971e-05
9.43252e-05
9.49515e-05
9.5575e-05
9.61948e-05
9.68098e-05
9.74191e-05
9.80213e-05
9.86152e-05
9.91995e-05
9.97727e-05
0.000100333
0.00010088
0.00010141
0.000101923
0.000102417
0.00010289
0.000103339
0.000103764
0.000104162
0.000104531
0.00010487
0.000105177
0.000105451
0.000105689
0.00010589
0.000106054
0.000106178
0.000106265
0.000106324
0.000106371
6.96533e-05
6.96417e-05
6.96136e-05
6.957e-05
6.95155e-05
6.9454e-05
6.93891e-05
6.93242e-05
6.92629e-05
6.92085e-05
6.9164e-05
6.91321e-05
6.91149e-05
6.9114e-05
6.91309e-05
6.91664e-05
6.92214e-05
6.92961e-05
6.9391e-05
6.95059e-05
6.9641e-05
6.97961e-05
6.9971e-05
7.01655e-05
7.03792e-05
7.0612e-05
7.08636e-05
7.11335e-05
7.14216e-05
7.17274e-05
7.20506e-05
7.2391e-05
7.27483e-05
7.31221e-05
7.35121e-05
7.39183e-05
7.43402e-05
7.47778e-05
7.5231e-05
7.56996e-05
7.61833e-05
7.66818e-05
7.71942e-05
7.77196e-05
7.82564e-05
7.8803e-05
7.93577e-05
7.99189e-05
8.04854e-05
8.10564e-05
8.16312e-05
8.22096e-05
8.27915e-05
8.33768e-05
8.39656e-05
8.45578e-05
8.51535e-05
8.57525e-05
8.6355e-05
8.69609e-05
8.757e-05
8.81822e-05
8.87972e-05
8.94149e-05
9.0035e-05
9.06569e-05
9.12804e-05
9.19049e-05
9.25298e-05
9.31545e-05
9.37784e-05
9.44005e-05
9.50201e-05
9.56362e-05
9.62478e-05
9.68538e-05
9.7453e-05
9.80441e-05
9.86259e-05
9.91968e-05
9.97553e-05
0.0001003
0.000100829
0.00010134
0.000101833
0.000102304
0.000102753
0.000103177
0.000103574
0.000103942
0.000104281
0.000104587
0.00010486
0.000105098
0.000105298
0.000105461
0.000105586
0.000105671
0.000105729
0.000105777
6.91867e-05
6.9178e-05
6.91566e-05
6.91237e-05
6.90826e-05
6.90364e-05
6.8988e-05
6.89402e-05
6.88959e-05
6.8858e-05
6.8829e-05
6.88114e-05
6.88069e-05
6.88172e-05
6.88436e-05
6.88871e-05
6.89484e-05
6.90281e-05
6.91265e-05
6.92438e-05
6.938e-05
6.95352e-05
6.97093e-05
6.99021e-05
7.01134e-05
7.03431e-05
7.05908e-05
7.08564e-05
7.11396e-05
7.14401e-05
7.17576e-05
7.20919e-05
7.24427e-05
7.28098e-05
7.31929e-05
7.35919e-05
7.40064e-05
7.44365e-05
7.48819e-05
7.53425e-05
7.5818e-05
7.63079e-05
7.68115e-05
7.73276e-05
7.78549e-05
7.83918e-05
7.89366e-05
7.9488e-05
8.00449e-05
8.06064e-05
8.11722e-05
8.1742e-05
8.23156e-05
8.28929e-05
8.3474e-05
8.40587e-05
8.46471e-05
8.5239e-05
8.58345e-05
8.64335e-05
8.70358e-05
8.76413e-05
8.82498e-05
8.8861e-05
8.94747e-05
9.00904e-05
9.07078e-05
9.13263e-05
9.19454e-05
9.25645e-05
9.31828e-05
9.37997e-05
9.44142e-05
9.50254e-05
9.56324e-05
9.6234e-05
9.6829e-05
9.74163e-05
9.79943e-05
9.85618e-05
9.91171e-05
9.96587e-05
0.000100185
0.000100694
0.000101184
0.000101653
0.0001021
0.000102522
0.000102918
0.000103285
0.000103622
0.000103927
0.000104199
0.000104435
0.000104635
0.000104797
0.00010492
0.000105005
0.000105063
0.00010511
6.87318e-05
6.87253e-05
6.87095e-05
6.86852e-05
6.8655e-05
6.86214e-05
6.85867e-05
6.85531e-05
6.85232e-05
6.84993e-05
6.84837e-05
6.84784e-05
6.84851e-05
6.85053e-05
6.85403e-05
6.85909e-05
6.86581e-05
6.87423e-05
6.88439e-05
6.89634e-05
6.91007e-05
6.9256e-05
6.94293e-05
6.96204e-05
6.98293e-05
7.00559e-05
7.02999e-05
7.05612e-05
7.08395e-05
7.11347e-05
7.14465e-05
7.17747e-05
7.2119e-05
7.24793e-05
7.28553e-05
7.32469e-05
7.36539e-05
7.40761e-05
7.45135e-05
7.49658e-05
7.54327e-05
7.59137e-05
7.6408e-05
7.69144e-05
7.74317e-05
7.79583e-05
7.84926e-05
7.90335e-05
7.95799e-05
8.01312e-05
8.0687e-05
8.12471e-05
8.18113e-05
8.23796e-05
8.29519e-05
8.3528e-05
8.4108e-05
8.46917e-05
8.5279e-05
8.587e-05
8.64644e-05
8.70621e-05
8.76629e-05
8.82665e-05
8.88726e-05
8.9481e-05
9.0091e-05
9.07024e-05
9.13145e-05
9.19267e-05
9.25384e-05
9.31487e-05
9.37569e-05
9.43621e-05
9.49632e-05
9.55591e-05
9.61487e-05
9.67307e-05
9.73039e-05
9.78666e-05
9.84176e-05
9.8955e-05
9.94773e-05
9.99827e-05
0.000100469
0.000100936
0.000101379
0.000101799
0.000102192
0.000102557
0.000102892
0.000103195
0.000103465
0.0001037
0.000103898
0.000104059
0.00010418
0.000104264
0.000104321
0.000104368
6.82855e-05
6.82809e-05
6.82696e-05
6.82524e-05
6.82311e-05
6.82079e-05
6.81845e-05
6.81629e-05
6.81451e-05
6.81331e-05
6.81289e-05
6.81343e-05
6.81508e-05
6.81797e-05
6.82221e-05
6.82792e-05
6.83515e-05
6.84398e-05
6.85444e-05
6.86658e-05
6.8804e-05
6.89593e-05
6.91316e-05
6.93211e-05
6.95276e-05
6.97511e-05
6.99914e-05
7.02483e-05
7.05218e-05
7.08116e-05
7.11176e-05
7.14396e-05
7.17774e-05
7.21308e-05
7.24996e-05
7.28836e-05
7.32828e-05
7.3697e-05
7.4126e-05
7.45697e-05
7.50276e-05
7.54993e-05
7.59839e-05
7.64802e-05
7.69869e-05
7.75026e-05
7.80258e-05
7.85554e-05
7.90906e-05
7.96309e-05
8.01758e-05
8.07253e-05
8.12792e-05
8.18373e-05
8.23997e-05
8.29662e-05
8.35366e-05
8.41109e-05
8.4689e-05
8.52708e-05
8.58561e-05
8.64449e-05
8.70368e-05
8.76316e-05
8.8229e-05
8.88287e-05
8.94303e-05
9.00332e-05
9.06371e-05
9.12412e-05
9.18448e-05
9.24474e-05
9.30479e-05
9.36456e-05
9.42395e-05
9.48284e-05
9.54112e-05
9.59868e-05
9.65536e-05
9.71104e-05
9.76556e-05
9.81876e-05
9.87048e-05
9.92054e-05
9.96875e-05
0.000100149
0.000100589
0.000101005
0.000101395
0.000101756
0.000102089
0.000102389
0.000102656
0.000102889
0.000103085
0.000103243
0.000103363
0.000103445
0.000103501
0.000103548
6.78455e-05
6.78423e-05
6.78348e-05
6.78233e-05
6.78094e-05
6.77947e-05
6.77808e-05
6.77691e-05
6.77615e-05
6.77597e-05
6.77653e-05
6.77798e-05
6.78047e-05
6.78412e-05
6.78903e-05
6.79529e-05
6.80299e-05
6.81217e-05
6.82289e-05
6.83518e-05
6.84907e-05
6.86458e-05
6.88172e-05
6.90049e-05
6.92089e-05
6.94292e-05
6.96657e-05
6.99183e-05
7.01869e-05
7.04713e-05
7.07714e-05
7.10871e-05
7.14182e-05
7.17645e-05
7.21259e-05
7.25023e-05
7.28935e-05
7.32993e-05
7.37197e-05
7.41544e-05
7.4603e-05
7.5065e-05
7.55394e-05
7.60251e-05
7.65208e-05
7.7025e-05
7.75365e-05
7.80543e-05
7.85775e-05
7.91059e-05
7.96391e-05
8.0177e-05
8.07196e-05
8.12666e-05
8.1818e-05
8.23737e-05
8.29335e-05
8.34972e-05
8.40649e-05
8.46364e-05
8.52115e-05
8.579e-05
8.63718e-05
8.69566e-05
8.7544e-05
8.81339e-05
8.87256e-05
8.93189e-05
8.99131e-05
9.05077e-05
9.1102e-05
9.16953e-05
9.22868e-05
9.28757e-05
9.34608e-05
9.40413e-05
9.46159e-05
9.51835e-05
9.57426e-05
9.62919e-05
9.683e-05
9.73552e-05
9.78658e-05
9.83601e-05
9.88364e-05
9.92928e-05
9.97273e-05
0.000100138
0.000100523
0.000100881
0.000101209
0.000101506
0.00010177
0.000101999
0.000102192
0.000102348
0.000102466
0.000102545
0.0001026
0.000102647
6.74096e-05
6.74077e-05
6.74032e-05
6.73964e-05
6.73886e-05
6.7381e-05
6.73749e-05
6.73716e-05
6.73726e-05
6.73794e-05
6.73932e-05
6.74156e-05
6.74478e-05
6.74908e-05
6.75456e-05
6.76131e-05
6.76939e-05
6.77888e-05
6.78981e-05
6.80223e-05
6.81617e-05
6.83163e-05
6.84865e-05
6.86723e-05
6.88737e-05
6.90907e-05
6.93234e-05
6.95715e-05
6.98351e-05
7.01141e-05
7.04082e-05
7.07175e-05
7.10418e-05
7.13809e-05
7.17347e-05
7.21032e-05
7.24861e-05
7.28834e-05
7.32948e-05
7.37202e-05
7.41592e-05
7.4611e-05
7.50749e-05
7.55495e-05
7.60336e-05
7.65259e-05
7.7025e-05
7.75302e-05
7.80408e-05
7.85565e-05
7.90772e-05
7.96027e-05
8.01329e-05
8.06678e-05
8.12072e-05
8.1751e-05
8.2299e-05
8.28512e-05
8.34073e-05
8.39672e-05
8.45308e-05
8.50979e-05
8.56683e-05
8.62418e-05
8.6818e-05
8.73965e-05
8.79771e-05
8.85593e-05
8.91425e-05
8.97261e-05
9.03096e-05
9.08923e-05
9.14732e-05
9.20517e-05
9.26266e-05
9.31971e-05
9.37619e-05
9.43199e-05
9.48697e-05
9.54101e-05
9.59394e-05
9.64561e-05
9.69587e-05
9.74453e-05
9.79142e-05
9.83636e-05
9.87915e-05
9.9196e-05
9.95753e-05
9.99274e-05
0.00010025
0.000100543
0.000100802
0.000101028
0.000101217
0.00010137
0.000101484
0.000101561
0.000101614
0.00010166
6.69762e-05
6.69753e-05
6.69733e-05
6.69705e-05
6.69677e-05
6.6966e-05
6.69664e-05
6.69701e-05
6.69783e-05
6.69923e-05
6.70132e-05
6.70422e-05
6.70805e-05
6.71291e-05
6.71887e-05
6.72603e-05
6.73445e-05
6.74419e-05
6.7553e-05
6.76781e-05
6.78175e-05
6.79715e-05
6.81403e-05
6.8324e-05
6.85227e-05
6.87363e-05
6.8965e-05
6.92086e-05
6.9467e-05
6.97404e-05
7.00285e-05
7.03312e-05
7.06485e-05
7.09802e-05
7.13263e-05
7.16866e-05
7.2061e-05
7.24494e-05
7.28517e-05
7.32675e-05
7.36964e-05
7.41377e-05
7.45905e-05
7.50536e-05
7.55257e-05
7.60054e-05
7.64917e-05
7.69836e-05
7.74809e-05
7.79832e-05
7.84904e-05
7.90026e-05
7.95196e-05
8.00414e-05
8.05678e-05
8.10987e-05
8.16338e-05
8.21731e-05
8.27164e-05
8.32636e-05
8.38145e-05
8.4369e-05
8.49267e-05
8.54875e-05
8.6051e-05
8.6617e-05
8.7185e-05
8.77546e-05
8.83253e-05
8.88965e-05
8.94677e-05
9.0038e-05
9.06068e-05
9.11732e-05
9.17363e-05
9.22951e-05
9.28484e-05
9.33951e-05
9.39339e-05
9.44635e-05
9.49824e-05
9.5489e-05
9.59818e-05
9.6459e-05
9.69188e-05
9.73595e-05
9.77793e-05
9.8176e-05
9.8548e-05
9.88932e-05
9.92098e-05
9.9496e-05
9.97501e-05
9.99704e-05
0.000100155
0.000100304
0.000100415
0.000100488
0.000100539
0.000100585
6.6544e-05
6.65439e-05
6.6544e-05
6.65444e-05
6.65458e-05
6.65489e-05
6.65548e-05
6.65643e-05
6.65785e-05
6.65985e-05
6.66253e-05
6.666e-05
6.67035e-05
6.67567e-05
6.68205e-05
6.68955e-05
6.69824e-05
6.70818e-05
6.71941e-05
6.73197e-05
6.74589e-05
6.76121e-05
6.77793e-05
6.79607e-05
6.81564e-05
6.83665e-05
6.8591e-05
6.88299e-05
6.90831e-05
6.93507e-05
6.96325e-05
6.99286e-05
7.02387e-05
7.05628e-05
7.09009e-05
7.12529e-05
7.16185e-05
7.19978e-05
7.23905e-05
7.27964e-05
7.32149e-05
7.36453e-05
7.40867e-05
7.45378e-05
7.49973e-05
7.5464e-05
7.59367e-05
7.64149e-05
7.68981e-05
7.73862e-05
7.78792e-05
7.83773e-05
7.88802e-05
7.93879e-05
7.99002e-05
8.04171e-05
8.09382e-05
8.14636e-05
8.19929e-05
8.25262e-05
8.30631e-05
8.36036e-05
8.41473e-05
8.46941e-05
8.52436e-05
8.57955e-05
8.63495e-05
8.6905e-05
8.74616e-05
8.80188e-05
8.85759e-05
8.91324e-05
8.96873e-05
9.02399e-05
9.07894e-05
9.13346e-05
9.18746e-05
9.24081e-05
9.2934e-05
9.3451e-05
9.39575e-05
9.4452e-05
9.49331e-05
9.5399e-05
9.58479e-05
9.62781e-05
9.66878e-05
9.70751e-05
9.7438e-05
9.77747e-05
9.80834e-05
9.83622e-05
9.86094e-05
9.88234e-05
9.90026e-05
9.91459e-05
9.92524e-05
9.93221e-05
9.93697e-05
9.9415e-05
6.61118e-05
6.61125e-05
6.61142e-05
6.61172e-05
6.61221e-05
6.61293e-05
6.61396e-05
6.6154e-05
6.61732e-05
6.61982e-05
6.62299e-05
6.62693e-05
6.63171e-05
6.63742e-05
6.64413e-05
6.65191e-05
6.66082e-05
6.67091e-05
6.68222e-05
6.69479e-05
6.70866e-05
6.72385e-05
6.74039e-05
6.75828e-05
6.77754e-05
6.79817e-05
6.82019e-05
6.84359e-05
6.86838e-05
6.89454e-05
6.92209e-05
6.951e-05
6.98128e-05
7.01292e-05
7.04591e-05
7.08024e-05
7.1159e-05
7.15289e-05
7.19118e-05
7.23073e-05
7.27151e-05
7.31343e-05
7.35638e-05
7.40024e-05
7.44489e-05
7.49019e-05
7.53606e-05
7.58243e-05
7.62927e-05
7.6766e-05
7.7244e-05
7.7727e-05
7.82149e-05
7.87076e-05
7.92049e-05
7.97067e-05
8.02128e-05
8.0723e-05
8.12372e-05
8.17553e-05
8.2277e-05
8.28022e-05
8.33306e-05
8.38619e-05
8.43959e-05
8.49323e-05
8.54707e-05
8.60105e-05
8.65515e-05
8.7093e-05
8.76344e-05
8.81751e-05
8.87143e-05
8.92513e-05
8.97852e-05
9.03149e-05
9.08396e-05
9.13579e-05
9.18689e-05
9.2371e-05
9.2863e-05
9.33434e-05
9.38106e-05
9.4263e-05
9.46989e-05
9.51166e-05
9.55142e-05
9.58899e-05
9.62418e-05
9.65681e-05
9.6867e-05
9.71366e-05
9.73754e-05
9.75816e-05
9.77539e-05
9.78908e-05
9.79918e-05
9.80566e-05
9.8101e-05
9.81452e-05
6.56787e-05
6.56799e-05
6.56831e-05
6.56883e-05
6.5696e-05
6.57065e-05
6.57205e-05
6.57388e-05
6.57622e-05
6.57914e-05
6.58272e-05
6.58704e-05
6.59217e-05
6.5982e-05
6.60518e-05
6.61317e-05
6.62224e-05
6.63243e-05
6.64378e-05
6.65633e-05
6.67011e-05
6.68515e-05
6.70147e-05
6.71909e-05
6.73801e-05
6.75825e-05
6.77982e-05
6.80272e-05
6.82695e-05
6.8525e-05
6.87939e-05
6.90759e-05
6.93712e-05
6.96796e-05
7.00011e-05
7.03355e-05
7.06829e-05
7.1043e-05
7.14157e-05
7.18007e-05
7.21973e-05
7.26048e-05
7.30221e-05
7.34478e-05
7.38807e-05
7.43196e-05
7.47636e-05
7.52122e-05
7.56653e-05
7.61229e-05
7.65852e-05
7.70524e-05
7.75244e-05
7.80011e-05