/*--------------------------------*- C++ -*----------------------------------*\
| =========                 |                                                 |
| \\      /  F ield         | OpenFOAM: The Open Source CFD Toolbox           |
|  \\    /   O peration     | Version:  4.1                                   |
|   \\  /    A nd           | Web:      www.OpenFOAM.org                      |
|    \\/     M anipulation  |                                                 |
\*---------------------------------------------------------------------------*/
FoamFile
{
    version     2.0;
    format      ascii;
    class       surfaceScalarField;
    location    "90";
    object      phi;
}
// * * * * * * * * * * * * * * * * * * * * * * * * * * * * * * * * * * * * * //

dimensions      [0 3 -1 0 0 0 0];

internalField   nonuniform List<scalar> 
87025
(
1.89908e-05
1.0092e-06
1.72879e-05
1.70289e-06
1.54806e-05
1.8073e-06
1.37362e-05
1.74442e-06
1.21225e-05
1.61366e-06
1.06904e-05
1.43209e-06
9.46e-06
1.23043e-06
8.42557e-06
1.03443e-06
7.56905e-06
8.56515e-07
6.86702e-06
7.02033e-07
6.29464e-06
5.72384e-07
5.82803e-06
4.66606e-07
5.44576e-06
3.82272e-07
5.12949e-06
3.16273e-07
4.86411e-06
2.65382e-07
4.63754e-06
2.26565e-07
4.44041e-06
1.97129e-07
4.26561e-06
1.748e-07
4.10789e-06
1.57726e-07
3.96345e-06
1.4444e-07
3.82963e-06
1.33811e-07
3.70464e-06
1.24992e-07
3.58727e-06
1.17371e-07
3.47675e-06
1.1052e-07
3.37259e-06
1.04164e-07
3.27444e-06
9.81508e-08
3.182e-06
9.2434e-08
3.09495e-06
8.70506e-08
3.01286e-06
8.20973e-08
2.93516e-06
7.76975e-08
2.86119e-06
7.39636e-08
2.79023e-06
7.09632e-08
2.72154e-06
6.86953e-08
2.65445e-06
6.70856e-08
2.58845e-06
6.59982e-08
2.52319e-06
6.52612e-08
2.45849e-06
6.46972e-08
2.39434e-06
6.41508e-08
2.33083e-06
6.35083e-08
2.26813e-06
6.27077e-08
2.20639e-06
6.17396e-08
2.14575e-06
6.06399e-08
2.08627e-06
5.94777e-08
2.02793e-06
5.83395e-08
1.97062e-06
5.7314e-08
1.91414e-06
5.64775e-08
1.85826e-06
5.58828e-08
1.8027e-06
5.55519e-08
1.74723e-06
5.54743e-08
1.69162e-06
5.5611e-08
1.63571e-06
5.59044e-08
1.57942e-06
5.629e-08
1.52272e-06
5.67079e-08
1.46561e-06
5.71095e-08
1.40815e-06
5.7461e-08
1.3504e-06
5.77415e-08
1.29246e-06
5.79398e-08
1.23441e-06
5.80504e-08
1.17634e-06
5.80705e-08
1.11835e-06
5.79982e-08
1.06051e-06
5.78316e-08
1.00295e-06
5.75682e-08
9.4574e-07
5.72053e-08
8.89e-07
5.674e-08
8.32831e-07
5.61691e-08
7.77342e-07
5.54893e-08
7.22644e-07
5.46974e-08
6.68854e-07
5.37903e-08
6.16089e-07
5.27649e-08
5.6447e-07
5.16187e-08
5.14121e-07
5.03493e-08
4.65166e-07
4.89551e-08
4.17731e-07
4.74348e-08
3.71943e-07
4.5788e-08
3.27928e-07
4.40153e-08
2.8581e-07
4.21179e-08
2.45711e-07
4.00986e-08
2.0775e-07
3.79612e-08
1.72039e-07
3.5711e-08
1.38684e-07
3.3355e-08
1.07782e-07
3.09019e-08
7.94197e-08
2.83624e-08
5.36705e-08
2.57492e-08
3.05936e-08
2.30769e-08
1.02329e-08
2.03607e-08
-7.38267e-09
1.76156e-08
-2.23259e-08
1.49432e-08
-3.45953e-08
1.22694e-08
-4.42536e-08
9.65832e-09
-5.14104e-08
7.15681e-09
-5.62503e-08
4.83994e-09
-5.89978e-08
2.74742e-09
-6.00147e-08
1.01691e-09
-5.98996e-08
-1.15049e-10
-5.91474e-08
-7.52229e-10
-5.84006e-08
-7.4682e-10
-5.68433e-08
-1.5573e-09
-4.9905e-08
-6.93828e-09
-2.9507e-08
-2.0398e-08
-2.9507e-08
2.06193e-05
3.89948e-07
2.1242e-05
1.08011e-06
2.15554e-05
1.49391e-06
2.15659e-05
1.73392e-06
2.13151e-05
1.86453e-06
2.08552e-05
1.89198e-06
2.02497e-05
1.83593e-06
1.95561e-05
1.72797e-06
1.88192e-05
1.59348e-06
1.8072e-05
1.44919e-06
1.73381e-05
1.30626e-06
1.66327e-05
1.172e-06
1.59646e-05
1.05045e-06
1.53377e-05
9.4311e-07
1.47533e-05
8.49841e-07
1.42103e-05
7.69563e-07
1.37067e-05
7.00713e-07
1.32399e-05
6.41586e-07
1.28071e-05
5.90546e-07
1.24054e-05
5.4609e-07
1.20323e-05
5.06918e-07
1.16854e-05
4.7195e-07
1.13624e-05
4.40331e-07
1.10615e-05
4.11418e-07
1.07809e-05
3.84777e-07
1.05189e-05
3.60168e-07
1.02738e-05
3.37531e-07
1.00439e-05
3.16958e-07
9.82732e-06
2.98649e-07
9.62219e-06
2.82834e-07
9.42646e-06
2.69693e-07
9.23814e-06
2.59282e-07
9.05537e-06
2.51467e-07
8.87654e-06
2.45912e-07
8.70044e-06
2.42099e-07
8.52631e-06
2.3939e-07
8.35388e-06
2.37125e-07
8.18331e-06
2.34721e-07
8.01506e-06
2.31762e-07
7.84971e-06
2.28055e-07
7.68781e-06
2.23642e-07
7.52968e-06
2.18766e-07
7.37537e-06
2.13794e-07
7.22457e-06
2.09138e-07
7.07672e-06
2.05164e-07
6.93105e-06
2.0214e-07
6.78674e-06
2.00192e-07
6.64298e-06
1.99315e-07
6.49907e-06
1.99383e-07
6.35449e-06
2.00199e-07
6.20885e-06
2.01537e-07
6.06197e-06
2.03176e-07
5.91374e-06
2.04935e-07
5.76417e-06
2.0668e-07
5.61331e-06
2.08323e-07
5.46123e-06
2.09816e-07
5.30804e-06
2.11132e-07
5.15383e-06
2.12256e-07
4.99873e-06
2.1318e-07
4.84283e-06
2.13894e-07
4.68627e-06
2.1439e-07
4.52918e-06
2.14655e-07
4.37171e-06
2.14677e-07
4.21401e-06
2.14444e-07
4.05623e-06
2.13943e-07
3.89856e-06
2.1316e-07
3.74118e-06
2.12082e-07
3.58427e-06
2.10696e-07
3.42805e-06
2.0899e-07
3.27272e-06
2.06951e-07
3.11849e-06
2.0457e-07
2.96561e-06
2.01839e-07
2.8143e-06
1.9875e-07
2.66478e-06
1.95298e-07
2.51732e-06
1.91483e-07
2.37213e-06
1.87305e-07
2.22946e-06
1.82769e-07
2.08954e-06
1.77884e-07
1.95259e-06
1.72663e-07
1.81882e-06
1.67124e-07
1.68843e-06
1.61291e-07
1.5616e-06
1.55193e-07
1.43848e-06
1.48866e-07
1.3192e-06
1.42353e-07
1.20386e-06
1.35704e-07
1.09249e-06
1.2898e-07
9.85173e-07
1.22264e-07
8.81831e-07
1.15611e-07
7.82374e-07
1.09114e-07
6.86649e-07
1.02882e-07
5.94435e-07
9.70539e-08
5.05396e-07
9.17868e-08
4.19097e-07
8.73157e-08
3.35042e-07
8.394e-08
2.52461e-07
8.18291e-08
1.7129e-07
8.04239e-08
9.38452e-08
7.58874e-08
2.9125e-08
5.77819e-08
-5.06248e-09
1.37894e-08
-3.45694e-08
2.01348e-05
2.55152e-07
2.05111e-05
7.03786e-07
2.0962e-05
1.04307e-06
2.14119e-05
1.28396e-06
2.18135e-05
1.463e-06
2.21196e-05
1.58582e-06
2.23058e-05
1.64977e-06
2.23703e-05
1.66339e-06
2.23239e-05
1.63993e-06
2.21822e-05
1.59086e-06
2.1963e-05
1.52544e-06
2.16837e-05
1.4513e-06
2.13599e-05
1.37425e-06
2.10048e-05
1.29825e-06
2.0629e-05
1.22562e-06
2.0241e-05
1.15755e-06
1.98474e-05
1.09438e-06
1.9453e-05
1.03598e-06
1.90616e-05
9.81924e-07
1.8676e-05
9.31669e-07
1.82983e-05
8.84642e-07
1.79299e-05
8.40326e-07
1.75719e-05
7.98314e-07
1.7225e-05
7.58329e-07
1.68896e-05
7.20253e-07
1.65656e-05
6.84127e-07
1.6253e-05
6.50152e-07
1.59513e-05
6.18663e-07
1.56598e-05
5.90087e-07
1.53778e-05
5.64871e-07
1.51041e-05
5.43401e-07
1.48375e-05
5.25912e-07
1.45765e-05
5.12418e-07
1.43198e-05
5.02654e-07
1.40658e-05
4.96072e-07
1.38133e-05
4.91863e-07
1.35614e-05
4.89032e-07
1.33096e-05
4.86499e-07
1.30582e-05
4.8324e-07
1.28078e-05
4.7843e-07
1.25598e-05
4.71588e-07
1.23159e-05
4.62675e-07
1.20776e-05
4.5213e-07
1.18459e-05
4.40795e-07
1.16213e-05
4.29745e-07
1.14034e-05
4.2005e-07
1.11911e-05
4.12545e-07
1.09827e-05
4.07663e-07
1.07767e-05
4.05403e-07
1.05715e-05
4.05403e-07
1.0366e-05
4.07096e-07
1.01592e-05
4.09879e-07
9.95095e-06
4.13235e-07
9.74083e-06
4.16795e-07
9.52882e-06
4.20336e-07
9.31489e-06
4.23744e-07
9.09906e-06
4.26969e-07
8.88133e-06
4.29985e-07
8.66173e-06
4.32775e-07
8.44031e-06
4.35319e-07
8.2171e-06
4.37593e-07
7.99219e-06
4.39571e-07
7.76564e-06
4.41226e-07
7.53755e-06
4.4253e-07
7.30804e-06
4.43453e-07
7.07724e-06
4.43966e-07
6.84528e-06
4.44042e-07
6.61232e-06
4.43651e-07
6.37855e-06
4.42766e-07
6.14414e-06
4.4136e-07
5.9093e-06
4.39411e-07
5.67424e-06
4.36895e-07
5.4392e-06
4.33795e-07
5.2044e-06
4.30095e-07
4.9701e-06
4.25784e-07
4.73655e-06
4.20859e-07
4.504e-06
4.15319e-07
4.27271e-06
4.09171e-07
4.04294e-06
4.02432e-07
3.81494e-06
3.95125e-07
3.58895e-06
3.87283e-07
3.36519e-06
3.78949e-07
3.14388e-06
3.70179e-07
2.92519e-06
3.61037e-07
2.70929e-06
3.51605e-07
2.4963e-06
3.41976e-07
2.2863e-06
3.3226e-07
2.07934e-06
3.22577e-07
1.87538e-06
3.13067e-07
1.67437e-06
3.03894e-07
1.47617e-06
2.95256e-07
1.28057e-06
2.87382e-07
1.08733e-06
2.80565e-07
8.96127e-07
2.75138e-07
7.06708e-07
2.71249e-07
5.19404e-07
2.67727e-07
3.37049e-07
2.58242e-07
1.70287e-07
2.24544e-07
4.56546e-08
1.38422e-07
1.10851e-08
2.00746e-05
1.80566e-07
2.02525e-05
5.25852e-07
2.04858e-05
8.09774e-07
2.07477e-05
1.02204e-06
2.10312e-05
1.17958e-06
2.13218e-05
1.29516e-06
2.15991e-05
1.37254e-06
2.18457e-05
1.41676e-06
2.20503e-05
1.43532e-06
2.22062e-05
1.43493e-06
2.2311e-05
1.4207e-06
2.23654e-05
1.39681e-06
2.23729e-05
1.36677e-06
2.23379e-05
1.33328e-06
2.22653e-05
1.29822e-06
2.21601e-05
1.26278e-06
2.20268e-05
1.22764e-06
2.18697e-05
1.1931e-06
2.16924e-05
1.15923e-06
2.14981e-05
1.12593e-06
2.12897e-05
1.09306e-06
2.10695e-05
1.06048e-06
2.08397e-05
1.0281e-06
2.06021e-05
9.95947e-07
2.03582e-05
9.64148e-07
2.01094e-05
9.32977e-07
1.98567e-05
9.0284e-07
1.96011e-05
8.74258e-07
1.93434e-05
8.47828e-07
1.90841e-05
8.24168e-07
1.88236e-05
8.03837e-07
1.85623e-05
7.87268e-07
1.83e-05
7.74691e-07
1.80366e-05
7.66088e-07
1.77715e-05
7.61169e-07
1.75039e-05
7.59379e-07
1.72331e-05
7.59919e-07
1.69578e-05
7.6178e-07
1.66772e-05
7.63774e-07
1.63911e-05
7.64596e-07
1.60997e-05
7.62935e-07
1.58047e-05
7.57681e-07
1.55086e-05
7.48208e-07
1.52148e-05
7.34649e-07
1.49265e-05
7.18025e-07
1.46465e-05
7.00112e-07
1.4376e-05
6.83039e-07
1.41149e-05
6.68747e-07
1.38618e-05
6.58523e-07
1.36144e-05
6.52763e-07
1.33704e-05
6.51058e-07
1.31278e-05
6.52484e-07
1.28851e-05
6.55979e-07
1.26413e-05
6.60625e-07
1.23958e-05
6.65787e-07
1.21484e-05
6.71107e-07
1.1899e-05
6.76419e-07
1.16473e-05
6.81655e-07
1.13933e-05
6.86781e-07
1.11369e-05
6.91761e-07
1.08779e-05
6.96554e-07
1.06164e-05
7.01111e-07
1.03522e-05
7.05382e-07
1.00854e-05
7.09319e-07
9.816e-06
7.12874e-07
9.54397e-06
7.15997e-07
9.26937e-06
7.18642e-07
8.99226e-06
7.20761e-07
8.71272e-06
7.22308e-07
8.43084e-06
7.2324e-07
8.14674e-06
7.23513e-07
7.86054e-06
7.23089e-07
7.57241e-06
7.21931e-07
7.28249e-06
7.2001e-07
6.99098e-06
7.17299e-07
6.69806e-06
7.1378e-07
6.40394e-06
7.09441e-07
6.10883e-06
7.0428e-07
5.81296e-06
6.98304e-07
5.51655e-06
6.91533e-07
5.21983e-06
6.83998e-07
4.92304e-06
6.75744e-07
4.62639e-06
6.66832e-07
4.33009e-06
6.57338e-07
4.03433e-06
6.47356e-07
3.73931e-06
6.36998e-07
3.44518e-06
6.26397e-07
3.15205e-06
6.15702e-07
2.86003e-06
6.05088e-07
2.56917e-06
5.94754e-07
2.2795e-06
5.84927e-07
1.99101e-06
5.75869e-07
1.70369e-06
5.67882e-07
1.41756e-06
5.61276e-07
1.1327e-06
5.56101e-07
8.49741e-07
5.5069e-07
5.71559e-07
5.36424e-07
3.09522e-07
4.86581e-07
9.66274e-08
3.51317e-07
1.07713e-07
2.00412e-05
1.39409e-07
2.01518e-05
4.15211e-07
2.03051e-05
6.56506e-07
2.04778e-05
8.49294e-07
2.066e-05
9.97405e-07
2.08462e-05
1.10894e-06
2.10301e-05
1.18864e-06
2.12061e-05
1.2408e-06
2.13701e-05
1.27124e-06
2.15193e-05
1.28574e-06
2.16512e-05
1.28889e-06
2.17638e-05
1.2842e-06
2.18561e-05
1.2744e-06
2.19279e-05
1.26157e-06
2.1979e-05
1.24711e-06
2.20098e-05
1.23191e-06
2.2021e-05
1.21643e-06
2.20133e-05
1.20088e-06
2.19872e-05
1.18525e-06
2.19437e-05
1.16946e-06
2.18834e-05
1.15336e-06
2.1807e-05
1.13683e-06
2.17153e-05
1.1198e-06
2.1609e-05
1.10228e-06
2.14887e-05
1.08441e-06
2.13553e-05
1.06644e-06
2.12094e-05
1.04874e-06
2.10518e-05
1.03181e-06
2.08835e-05
1.0162e-06
2.07051e-05
1.00252e-06
2.05176e-05
9.91332e-07
2.03217e-05
9.83132e-07
2.01182e-05
9.78265e-07
1.99074e-05
9.769e-07
1.96895e-05
9.79011e-07
1.94645e-05
9.84389e-07
1.92318e-05
9.92658e-07
1.89903e-05
1.00327e-06
1.87386e-05
1.01542e-06
1.84753e-05
1.02798e-06
1.81989e-05
1.03931e-06
1.79092e-05
1.04739e-06
1.76073e-05
1.05007e-06
1.72963e-05
1.04565e-06
1.69808e-05
1.03357e-06
1.6666e-05
1.01485e-06
1.63571e-05
9.92004e-07
1.60574e-05
9.68446e-07
1.57683e-05
9.47534e-07
1.54894e-05
9.31682e-07
1.52186e-05
9.21898e-07
1.49532e-05
9.17853e-07
1.46908e-05
9.18358e-07
1.44295e-05
9.21961e-07
1.41679e-05
9.27403e-07
1.39052e-05
9.33826e-07
1.36408e-05
9.40749e-07
1.33745e-05
9.4795e-07
1.3106e-05
9.55324e-07
1.2835e-05
9.62802e-07
1.25612e-05
9.70316e-07
1.22845e-05
9.77789e-07
1.20048e-05
9.85144e-07
1.17218e-05
9.92304e-07
1.14354e-05
9.99199e-07
1.11457e-05
1.00576e-06
1.08524e-05
1.01191e-06
1.05556e-05
1.01759e-06
1.02552e-05
1.02274e-06
9.95111e-06
1.02729e-06
9.64345e-06
1.03117e-06
9.3322e-06
1.03434e-06
9.01739e-06
1.03674e-06
8.69909e-06
1.03831e-06
8.37737e-06
1.03902e-06
8.05233e-06
1.03882e-06
7.72408e-06
1.03769e-06
7.39275e-06
1.03561e-06
7.05848e-06
1.03257e-06
6.72144e-06
1.02858e-06
6.38179e-06
1.02365e-06
6.03972e-06
1.01782e-06
5.69541e-06
1.01114e-06
5.34907e-06
1.00368e-06
5.00089e-06
9.95537e-07
4.65107e-06
9.86818e-07
4.29981e-06
9.77659e-07
3.94729e-06
9.68218e-07
3.5937e-06
9.58675e-07
3.23922e-06
9.49237e-07
2.88401e-06
9.40136e-07
2.52825e-06
9.31629e-07
2.17214e-06
9.23995e-07
1.81592e-06
9.1749e-07
1.45997e-06
9.12053e-07
1.10506e-06
9.05598e-07
7.54158e-07
8.8733e-07
4.19244e-07
8.21495e-07
1.3842e-07
6.3214e-07
2.46133e-07
2.00256e-05
1.13819e-07
2.01007e-05
3.4009e-07
2.02115e-05
5.4575e-07
2.03414e-05
7.19409e-07
2.0479e-05
8.59772e-07
2.06175e-05
9.70472e-07
2.07513e-05
1.05476e-06
2.08766e-05
1.11554e-06
2.09912e-05
1.15666e-06
2.10944e-05
1.18249e-06
2.11864e-05
1.19695e-06
2.12673e-05
1.20327e-06
2.13377e-05
1.20403e-06
2.1398e-05
1.20127e-06
2.14486e-05
1.19649e-06
2.14898e-05
1.19069e-06
2.15217e-05
1.1845e-06
2.15444e-05
1.17824e-06
2.15576e-05
1.17206e-06
2.15611e-05
1.16596e-06
2.15545e-05
1.15988e-06
2.15377e-05
1.15372e-06
2.151e-05
1.14744e-06
2.14713e-05
1.14103e-06
2.14211e-05
1.13455e-06
2.13594e-05
1.12819e-06
2.12859e-05
1.1222e-06
2.12008e-05
1.11694e-06
2.11041e-05
1.11284e-06
2.09963e-05
1.11035e-06
2.08777e-05
1.10994e-06
2.07488e-05
1.11203e-06
2.06101e-05
1.11695e-06
2.04621e-05
1.12494e-06
2.0305e-05
1.13611e-06
2.01389e-05
1.1505e-06
1.99634e-05
1.16812e-06
1.97777e-05
1.18898e-06
1.95802e-05
1.21292e-06
1.93687e-05
1.23943e-06
1.91408e-05
1.26726e-06
1.88941e-05
1.29408e-06
1.86275e-05
1.31663e-06
1.8342e-05
1.33123e-06
1.80406e-05
1.33492e-06
1.77289e-05
1.32655e-06
1.74134e-05
1.30753e-06
1.71003e-05
1.28153e-06
1.67943e-05
1.25351e-06
1.64978e-05
1.22822e-06
1.62108e-05
1.20893e-06
1.59317e-05
1.19696e-06
1.56581e-05
1.19187e-06
1.53879e-05
1.1922e-06
1.51191e-05
1.19624e-06
1.48503e-05
1.20259e-06
1.45807e-05
1.21034e-06
1.43097e-05
1.21896e-06
1.40368e-05
1.22821e-06
1.37617e-05
1.23795e-06
1.34839e-05
1.24806e-06
1.32033e-05
1.25842e-06
1.29195e-05
1.26894e-06
1.26323e-05
1.2795e-06
1.23415e-05
1.29e-06
1.20469e-05
1.30036e-06
1.17483e-05
1.31047e-06
1.14457e-05
1.32026e-06
1.11388e-05
1.32965e-06
1.08275e-05
1.33854e-06
1.05118e-05
1.34687e-06
1.01916e-05
1.35456e-06
9.8668e-06
1.36153e-06
9.53738e-06
1.36772e-06
9.20333e-06
1.37307e-06
8.86462e-06
1.37752e-06
8.52129e-06
1.38102e-06
8.17336e-06
1.38354e-06
7.82089e-06
1.38504e-06
7.46395e-06
1.38552e-06
7.10263e-06
1.38497e-06
6.73704e-06
1.3834e-06
6.36733e-06
1.38086e-06
5.99362e-06
1.37738e-06
5.6161e-06
1.37306e-06
5.23495e-06
1.36798e-06
4.85035e-06
1.36225e-06
4.46253e-06
1.35604e-06
4.07171e-06
1.34949e-06
3.67814e-06
1.34281e-06
3.28208e-06
1.33619e-06
2.88383e-06
1.32988e-06
2.48373e-06
1.3241e-06
2.08218e-06
1.31904e-06
1.67969e-06
1.31455e-06
1.27715e-06
1.30813e-06
8.77663e-07
1.28682e-06
4.9385e-07
1.20531e-06
1.67313e-07
9.58678e-07
4.13446e-07
2.00179e-05
9.59139e-08
2.00711e-05
2.86875e-07
2.01522e-05
4.64684e-07
2.02507e-05
6.20886e-07
2.03579e-05
7.52558e-07
2.04676e-05
8.60766e-07
2.05749e-05
9.47482e-07
2.06757e-05
1.01471e-06
2.07674e-05
1.06497e-06
2.08486e-05
1.10129e-06
2.09189e-05
1.12664e-06
2.09786e-05
1.14364e-06
2.10281e-05
1.15446e-06
2.10685e-05
1.16094e-06
2.11004e-05
1.16452e-06
2.11248e-05
1.16628e-06
2.11424e-05
1.16697e-06
2.11535e-05
1.16711e-06
2.11585e-05
1.16703e-06
2.11576e-05
1.16691e-06
2.11506e-05
1.16686e-06
2.11374e-05
1.16693e-06
2.11177e-05
1.16718e-06
2.10911e-05
1.16766e-06
2.10571e-05
1.1685e-06
2.10155e-05
1.16984e-06
2.09657e-05
1.17191e-06
2.09077e-05
1.17499e-06
2.08411e-05
1.1794e-06
2.0766e-05
1.18549e-06
2.06823e-05
1.19362e-06
2.05902e-05
1.20412e-06
2.04899e-05
1.21728e-06
2.03816e-05
1.2333e-06
2.02653e-05
1.25237e-06
2.01411e-05
1.27466e-06
2.00088e-05
1.30048e-06
1.98675e-05
1.33028e-06
1.97158e-05
1.3646e-06
1.95515e-05
1.40371e-06
1.93717e-05
1.44709e-06
1.9173e-05
1.49273e-06
1.89528e-05
1.53689e-06
1.87096e-05
1.57445e-06
1.84443e-05
1.60013e-06
1.81607e-05
1.61018e-06
1.78644e-05
1.60385e-06
1.7562e-05
1.58387e-06
1.72599e-05
1.55569e-06
1.69623e-05
1.52575e-06
1.66717e-05
1.49956e-06
1.63882e-05
1.48049e-06
1.61106e-05
1.46949e-06
1.58371e-05
1.4657e-06
1.55659e-05
1.46741e-06
1.52956e-05
1.4729e-06
1.50251e-05
1.48085e-06
1.47536e-05
1.49045e-06
1.44805e-05
1.50125e-06
1.42055e-05
1.51301e-06
1.3928e-05
1.52553e-06
1.36478e-05
1.53868e-06
1.33644e-05
1.55229e-06
1.30777e-05
1.56624e-06
1.27873e-05
1.5804e-06
1.2493e-05
1.59465e-06
1.21945e-05
1.60889e-06
1.18918e-05
1.623e-06
1.15846e-05
1.63689e-06
1.12726e-05
1.65047e-06
1.09559e-05
1.66363e-06
1.06341e-05
1.6763e-06
1.03073e-05
1.68838e-06
9.97523e-06
1.69979e-06
9.63786e-06
1.71045e-06
9.29508e-06
1.72029e-06
8.94686e-06
1.72925e-06
8.59313e-06
1.73726e-06
8.23389e-06
1.74429e-06
7.86912e-06
1.75029e-06
7.49885e-06
1.75524e-06
7.12312e-06
1.75913e-06
6.74201e-06
1.76197e-06
6.35559e-06
1.7638e-06
5.96399e-06
1.76466e-06
5.56736e-06
1.76461e-06
5.16587e-06
1.76374e-06
4.75973e-06
1.76218e-06
4.34917e-06
1.76005e-06
3.93446e-06
1.75751e-06
3.51592e-06
1.75474e-06
3.09389e-06
1.7519e-06
2.6688e-06
1.74919e-06
2.2411e-06
1.74674e-06
1.81138e-06
1.74427e-06
1.3806e-06
1.73891e-06
9.51991e-07
1.71543e-06
5.38782e-07
1.61852e-06
1.84856e-07
1.3126e-06
5.98302e-07
2.0013e-05
8.29245e-08
2.00517e-05
2.48201e-07
2.01118e-05
4.04533e-07
2.0187e-05
5.45749e-07
2.02707e-05
6.6879e-07
2.0358e-05
7.7344e-07
2.04448e-05
8.60687e-07
2.05277e-05
9.31857e-07
2.0604e-05
9.88649e-07
2.06721e-05
1.03316e-06
2.07312e-05
1.06759e-06
2.07808e-05
1.09398e-06
2.08212e-05
1.11413e-06
2.08526e-05
1.12955e-06
2.08756e-05
1.14151e-06
2.08908e-05
1.15104e-06
2.08989e-05
1.1589e-06
2.09004e-05
1.16565e-06
2.08957e-05
1.17173e-06
2.08851e-05
1.17743e-06
2.0869e-05
1.18297e-06
2.08474e-05
1.18851e-06
2.08204e-05
1.19422e-06
2.07878e-05
1.20023e-06
2.07496e-05
1.20672e-06
2.07056e-05
1.21387e-06
2.06556e-05
1.22193e-06
2.05994e-05
1.23113e-06
2.0537e-05
1.24179e-06
2.04683e-05
1.25418e-06
2.03933e-05
1.26863e-06
2.0312e-05
1.28539e-06
2.02246e-05
1.30473e-06
2.01311e-05
1.32683e-06
2.00315e-05
1.35191e-06
1.99259e-05
1.38024e-06
1.98141e-05
1.41232e-06
1.96954e-05
1.44899e-06
1.95686e-05
1.49135e-06
1.94319e-05
1.54042e-06
1.92825e-05
1.59648e-06
1.91172e-05
1.65808e-06
1.89326e-05
1.72151e-06
1.87262e-05
1.78083e-06
1.84973e-05
1.82906e-06
1.82473e-05
1.86014e-06
1.79801e-05
1.87105e-06
1.7701e-05
1.86294e-06
1.74159e-05
1.84082e-06
1.71297e-05
1.81191e-06
1.6846e-05
1.78331e-06
1.65663e-05
1.76021e-06
1.62907e-05
1.74508e-06
1.60184e-05
1.738e-06
1.57481e-05
1.73763e-06
1.54788e-05
1.74223e-06
1.52094e-05
1.75028e-06
1.49391e-05
1.76075e-06
1.46673e-05
1.77302e-06
1.43936e-05
1.78671e-06
1.41175e-05
1.8016e-06
1.38387e-05
1.81749e-06
1.35568e-05
1.83418e-06
1.32716e-05
1.85151e-06
1.29826e-05
1.86933e-06
1.26898e-05
1.88751e-06
1.23928e-05
1.90591e-06
1.20914e-05
1.92442e-06
1.17853e-05
1.94292e-06
1.14745e-05
1.96131e-06
1.11586e-05
1.97947e-06
1.08376e-05
1.99731e-06
1.05113e-05
2.01473e-06
1.01794e-05
2.03163e-06
9.84197e-06
2.04792e-06
9.49876e-06
2.06351e-06
9.14968e-06
2.07832e-06
8.79466e-06
2.09228e-06
8.43363e-06
2.10533e-06
8.06652e-06
2.11739e-06
7.69331e-06
2.12844e-06
7.31399e-06
2.13845e-06
6.92859e-06
2.14738e-06
6.53714e-06
2.15525e-06
6.13973e-06
2.16206e-06
5.73648e-06
2.16787e-06
5.32751e-06
2.17271e-06
4.91302e-06
2.17667e-06
4.49324e-06
2.17983e-06
4.06844e-06
2.18232e-06
3.63892e-06
2.18425e-06
3.20508e-06
2.18575e-06
2.76733e-06
2.18694e-06
2.32617e-06
2.1879e-06
1.88218e-06
2.18826e-06
1.43635e-06
2.18474e-06
9.92048e-07
2.15973e-06
5.62946e-07
2.04762e-06
1.94313e-07
1.68124e-06
7.92615e-07
2.00096e-05
7.32868e-08
2.00384e-05
2.19416e-07
2.00838e-05
3.5915e-07
2.01416e-05
4.87958e-07
2.02072e-05
6.03158e-07
2.02767e-05
7.03981e-07
2.03466e-05
7.90744e-07
2.04143e-05
8.64228e-07
2.04773e-05
9.25564e-07
2.05343e-05
9.7621e-07
2.05841e-05
1.01779e-06
2.06262e-05
1.05189e-06
2.06604e-05
1.07995e-06
2.06867e-05
1.10326e-06
2.07053e-05
1.12291e-06
2.07165e-05
1.13981e-06
2.07207e-05
1.15468e-06
2.07183e-05
1.16811e-06
2.07095e-05
1.18053e-06
2.06946e-05
1.19229e-06
2.06739e-05
1.20367e-06
2.06475e-05
1.2149e-06
2.06155e-05
1.22618e-06
2.05781e-05
1.23771e-06
2.05351e-05
1.24969e-06
2.04866e-05
1.26233e-06
2.04327e-05
1.27587e-06
2.03733e-05
1.29056e-06
2.03084e-05
1.30668e-06
2.02381e-05
1.3245e-06
2.01624e-05
1.34428e-06
2.00815e-05
1.36629e-06
1.99955e-05
1.39076e-06
1.99044e-05
1.41787e-06
1.98085e-05
1.44785e-06
1.97077e-05
1.48107e-06
1.96018e-05
1.5182e-06
1.94904e-05
1.56038e-06
1.93726e-05
1.60918e-06
1.92467e-05
1.66625e-06
1.91107e-05
1.7325e-06
1.89618e-05
1.80705e-06
1.87969e-05
1.88636e-06
1.86136e-05
1.96411e-06
1.84104e-05
2.03225e-06
1.81875e-05
2.08307e-06
1.79469e-05
2.11169e-06
1.76921e-05
2.11768e-06
1.74277e-05
2.10522e-06
1.7158e-05
2.08159e-06
1.68866e-05
2.05476e-06
1.66156e-05
2.03117e-06
1.63462e-05
2.01456e-06
1.60782e-05
2.00598e-06
1.58112e-05
2.00463e-06
1.55444e-05
2.00899e-06
1.52772e-05
2.01752e-06
1.50088e-05
2.0291e-06
1.47389e-05
2.043e-06
1.44668e-05
2.05878e-06
1.41923e-05
2.07613e-06
1.39149e-05
2.09483e-06
1.36344e-05
2.11467e-06
1.33505e-05
2.13544e-06
1.30628e-05
2.15699e-06
1.27712e-05
2.17915e-06
1.24753e-05
2.20177e-06
1.2175e-05
2.22474e-06
1.187e-05
2.24792e-06
1.15601e-05
2.2712e-06
1.12451e-05
2.29445e-06
1.09249e-05
2.31756e-06
1.05992e-05
2.34043e-06
1.02679e-05
2.36294e-06
9.9308e-06
2.38499e-06
9.58782e-06
2.40649e-06
9.2388e-06
2.42734e-06
8.88364e-06
2.44745e-06
8.52223e-06
2.46673e-06
8.15451e-06
2.48512e-06
7.78042e-06
2.50254e-06
7.39992e-06
2.51894e-06
7.01301e-06
2.53429e-06
6.61972e-06
2.54854e-06
6.22009e-06
2.56169e-06
5.81421e-06
2.57374e-06
5.40222e-06
2.5847e-06
4.98427e-06
2.59461e-06
4.56059e-06
2.60352e-06
4.13143e-06
2.61148e-06
3.69711e-06
2.61857e-06
3.258e-06
2.62486e-06
2.81452e-06
2.63042e-06
2.36715e-06
2.63527e-06
1.91646e-06
2.63895e-06
1.46344e-06
2.63776e-06
1.01154e-06
2.61163e-06
5.74697e-07
2.48446e-06
1.98923e-07
2.05701e-06
9.91538e-07
2.00073e-05
6.59959e-08
2.00291e-05
1.97604e-07
2.00638e-05
3.24466e-07
2.01085e-05
4.43209e-07
2.01601e-05
5.51609e-07
2.02153e-05
6.48729e-07
2.02716e-05
7.34485e-07
2.03266e-05
8.09271e-07
2.03783e-05
8.7381e-07
2.04254e-05
9.29111e-07
2.04668e-05
9.76356e-07
2.0502e-05
1.01676e-06
2.05304e-05
1.0515e-06
2.05521e-05
1.08161e-06
2.05669e-05
1.10805e-06
2.05751e-05
1.13162e-06
2.05768e-05
1.15298e-06
2.05722e-05
1.1727e-06
2.05615e-05
1.19123e-06
2.05449e-05
1.20893e-06
2.05224e-05
1.2261e-06
2.04943e-05
1.243e-06
2.04606e-05
1.25988e-06
2.04214e-05
1.27694e-06
2.03767e-05
1.29441e-06
2.03265e-05
1.3125e-06
2.02709e-05
1.33146e-06
2.021e-05
1.35152e-06
2.01437e-05
1.37294e-06
2.00723e-05
1.39596e-06
1.99957e-05
1.42085e-06
1.99142e-05
1.44784e-06
1.98278e-05
1.47714e-06
1.97367e-05
1.50894e-06
1.9641e-05
1.5435e-06
1.95409e-05
1.58126e-06
1.9436e-05
1.62305e-06
1.93261e-05
1.67028e-06
1.92103e-05
1.72494e-06
1.90874e-05
1.78914e-06
1.89556e-05
1.8643e-06
1.88128e-05
1.94992e-06
1.86566e-05
2.04257e-06
1.8485e-05
2.13571e-06
1.82966e-05
2.22061e-06
1.80912e-05
2.28849e-06
1.78697e-05
2.33318e-06
1.76344e-05
2.35303e-06
1.73882e-05
2.3514e-06
1.71345e-05
2.3353e-06
1.68762e-05
2.31303e-06
1.66156e-05
2.29179e-06
1.6354e-05
2.27617e-06
1.60919e-05
2.26802e-06
1.58295e-05
2.2671e-06
1.55663e-05
2.27219e-06
1.53019e-05
2.28187e-06
1.5036e-05
2.29503e-06
1.47681e-05
2.31091e-06
1.44978e-05
2.32904e-06
1.42249e-05
2.34909e-06
1.39489e-05
2.3708e-06
1.36696e-05
2.39393e-06
1.33868e-05
2.41829e-06
1.31001e-05
2.44367e-06
1.28093e-05
2.46992e-06
1.25142e-05
2.49688e-06
1.22146e-05
2.5244e-06
1.19101e-05
2.55235e-06
1.16007e-05
2.5806e-06
1.12862e-05
2.60902e-06
1.09662e-05
2.63749e-06
1.06408e-05
2.66589e-06
1.03096e-05
2.6941e-06
9.97258e-06
2.72202e-06
9.62955e-06
2.74952e-06
9.28039e-06
2.7765e-06
8.92498e-06
2.80286e-06
8.56321e-06
2.82849e-06
8.19502e-06
2.85331e-06
7.82034e-06
2.87722e-06
7.43912e-06
2.90016e-06
7.05137e-06
2.92204e-06
6.65709e-06
2.94282e-06
6.25633e-06
2.96245e-06
5.84917e-06
2.98089e-06
5.43575e-06
2.99813e-06
5.01621e-06
3.01415e-06
4.59077e-06
3.02896e-06
4.15968e-06
3.04257e-06
3.72326e-06
3.055e-06
3.28185e-06
3.06627e-06
2.83588e-06
3.07639e-06
2.38581e-06
3.08534e-06
1.93218e-06
3.09258e-06
1.47598e-06
3.09396e-06
1.02067e-06
3.06694e-06
5.80295e-07
2.92484e-06
2.01163e-07
2.43614e-06
1.1927e-06
2.00056e-05
6.04089e-08
2.00223e-05
1.80878e-07
2.00491e-05
2.97718e-07
2.00839e-05
4.08374e-07
2.01245e-05
5.11042e-07
2.01684e-05
6.04791e-07
2.02136e-05
6.89335e-07
2.0258e-05
7.64807e-07
2.03002e-05
8.31647e-07
2.03387e-05
8.9054e-07
2.03728e-05
9.42342e-07
2.04015e-05
9.87978e-07
2.04247e-05
1.02837e-06
2.04419e-05
1.06439e-06
2.04531e-05
1.09683e-06
2.04583e-05
1.12639e-06
2.04576e-05
1.15369e-06
2.04511e-05
1.17925e-06
2.04388e-05
1.20351e-06
2.04209e-05
1.22683e-06
2.03975e-05
1.24954e-06
2.03686e-05
1.27191e-06
2.03343e-05
1.29419e-06
2.02946e-05
1.31662e-06
2.02496e-05
1.33942e-06
2.01992e-05
1.36282e-06
2.01437e-05
1.38705e-06
2.00828e-05
1.41234e-06
2.00168e-05
1.43892e-06
1.99458e-05
1.46703e-06
1.98697e-05
1.49691e-06
1.97888e-05
1.52878e-06
1.97031e-05
1.56283e-06
1.96128e-05
1.59927e-06
1.95179e-05
1.63836e-06
1.94185e-05
1.68061e-06
1.93146e-05
1.72703e-06
1.92056e-05
1.77929e-06
1.90908e-05
1.83973e-06
1.8969e-05
1.9109e-06
1.88387e-05
1.99456e-06
1.86982e-05
2.09044e-06
1.85457e-05
2.19511e-06
1.83797e-05
2.30175e-06
1.81992e-05
2.40109e-06
1.8004e-05
2.48364e-06
1.77948e-05
2.54239e-06
1.7573e-05
2.57488e-06
1.73405e-05
2.58384e-06
1.70998e-05
2.57601e-06
1.68531e-05
2.55975e-06
1.66022e-05
2.54264e-06
1.63486e-05
2.52982e-06
1.60929e-05
2.5237e-06
1.58355e-05
2.52451e-06
1.55764e-05
2.53131e-06
1.53154e-05
2.54288e-06
1.50522e-05
2.55818e-06
1.47866e-05
2.57649e-06
1.45183e-05
2.59732e-06
1.42471e-05
2.62035e-06
1.39726e-05
2.64531e-06
1.36946e-05
2.67195e-06
1.34128e-05
2.70006e-06
1.3127e-05
2.72945e-06
1.2837e-05
2.75994e-06
1.25425e-05
2.79135e-06
1.22434e-05
2.82356e-06
1.19393e-05
2.8564e-06
1.16302e-05
2.88974e-06
1.13158e-05
2.92344e-06
1.09959e-05
2.95738e-06
1.06703e-05
2.99142e-06
1.0339e-05
3.02544e-06
1.00017e-05
3.05932e-06
9.65829e-06
3.09292e-06
9.30867e-06
3.12613e-06
8.9527e-06
3.15883e-06
8.59029e-06
3.1909e-06
8.22137e-06
3.22223e-06
7.84589e-06
3.25271e-06
7.46379e-06
3.28225e-06
7.07509e-06
3.31075e-06
6.6798e-06
3.33811e-06
6.27797e-06
3.36428e-06
5.8697e-06
3.38916e-06
5.45512e-06
3.41272e-06
5.03438e-06
3.43489e-06
4.6077e-06
3.45564e-06
4.17534e-06
3.47492e-06
3.73761e-06
3.49272e-06
3.29487e-06
3.50901e-06
2.84751e-06
3.52375e-06
2.39599e-06
3.53686e-06
1.94085e-06
3.54772e-06
1.48304e-06
3.55176e-06
1.02601e-06
3.52397e-06
5.83752e-07
3.3671e-06
2.02621e-07
2.81727e-06
1.39532e-06
2.00043e-05
5.60937e-08
2.00172e-05
1.67952e-07
2.0038e-05
2.76965e-07
2.00652e-05
3.81165e-07
2.00971e-05
4.79098e-07
2.0132e-05
5.69914e-07
2.01681e-05
6.53241e-07
2.02039e-05
7.29053e-07
2.02379e-05
7.97591e-07
2.02692e-05
8.59312e-07
2.02967e-05
9.1483e-07
2.03198e-05
9.64844e-07
2.03381e-05
1.01008e-06
2.03512e-05
1.05125e-06
2.0359e-05
1.08901e-06
2.03615e-05
1.12399e-06
2.03584e-05
1.15671e-06
2.035e-05
1.18767e-06
2.03362e-05
1.21729e-06
2.03171e-05
1.24591e-06
2.02928e-05
1.27387e-06
2.02633e-05
1.30145e-06
2.02286e-05
1.3289e-06
2.01887e-05
1.35646e-06
2.01438e-05
1.38438e-06
2.00937e-05
1.41287e-06
2.00386e-05
1.44215e-06
1.99785e-05
1.47245e-06
1.99134e-05
1.504e-06
1.98434e-05
1.53702e-06
1.97686e-05
1.57174e-06
1.9689e-05
1.60835e-06
1.96048e-05
1.64706e-06
1.9516e-05
1.68805e-06
1.94228e-05
1.7316e-06
1.93251e-05
1.77832e-06
1.92227e-05
1.82936e-06
1.91154e-05
1.88666e-06
1.90022e-05
1.95293e-06
1.8882e-05
2.03107e-06
1.87534e-05
2.12317e-06
1.86148e-05
2.22906e-06
1.84647e-05
2.34521e-06
1.8302e-05
2.46442e-06
1.81262e-05
2.5769e-06
1.79373e-05
2.67258e-06
1.77358e-05
2.74382e-06
1.7523e-05
2.78769e-06
1.73003e-05
2.80654e-06
1.70694e-05
2.80691e-06
1.6832e-05
2.79718e-06
1.65895e-05
2.78513e-06
1.63431e-05
2.77624e-06
1.60935e-05
2.77328e-06
1.58412e-05
2.77681e-06
1.55863e-05
2.78618e-06
1.53289e-05
2.80032e-06
1.50687e-05
2.81832e-06
1.48057e-05
2.83948e-06
1.45397e-05
2.86338e-06
1.42703e-05
2.8897e-06
1.39975e-05
2.91816e-06
1.37209e-05
2.94854e-06
1.34403e-05
2.98061e-06
1.31556e-05
3.01419e-06
1.28665e-05
3.04908e-06
1.25727e-05
3.08512e-06
1.22741e-05
3.12215e-06
1.19705e-05
3.16002e-06
1.16616e-05
3.19859e-06
1.13474e-05
3.23771e-06
1.10275e-05
3.27725e-06
1.07018e-05
3.31706e-06
1.03703e-05
3.35701e-06
1.00326e-05
3.39697e-06
9.68875e-06
3.43679e-06
9.33853e-06
3.47635e-06
8.98186e-06
3.5155e-06
8.61865e-06
3.55411e-06
8.24882e-06
3.59206e-06
7.87233e-06
3.6292e-06
7.48915e-06
3.66543e-06
7.09929e-06
3.70061e-06
6.70277e-06
3.73463e-06
6.29966e-06
3.76738e-06
5.89007e-06
3.79876e-06
5.47413e-06
3.82866e-06
5.05202e-06
3.857e-06
4.62396e-06
3.88369e-06
4.19022e-06
3.90866e-06
3.75112e-06
3.93183e-06
3.30701e-06
3.95312e-06
2.85829e-06
3.97246e-06
2.40542e-06
3.98973e-06
1.94892e-06
4.00422e-06
1.48974e-06
4.01094e-06
1.03125e-06
3.98246e-06
5.87301e-07
3.81105e-06
2.04176e-07
3.2004e-06
1.5995e-06
2.00033e-05
5.27468e-08
2.00134e-05
1.57923e-07
2.00295e-05
2.60817e-07
2.00508e-05
3.59894e-07
2.00759e-05
4.53981e-07
2.01035e-05
5.42333e-07
2.01322e-05
6.24559e-07
2.01607e-05
7.0054e-07
2.01879e-05
7.70384e-07
2.02128e-05
8.3439e-07
2.02347e-05
8.92993e-07
2.02528e-05
9.46721e-07
2.02667e-05
9.96141e-07
2.02761e-05
1.04183e-06
2.02808e-05
1.08434e-06
2.02806e-05
1.1242e-06
2.02754e-05
1.1619e-06
2.02652e-05
1.19786e-06
2.025e-05
1.23247e-06
2.02299e-05
1.26609e-06
2.02047e-05
1.29902e-06
2.01746e-05
1.33154e-06
2.01396e-05
1.36392e-06
2.00997e-05
1.39639e-06
2.00549e-05
1.42919e-06
2.00052e-05
1.46254e-06
1.99507e-05
1.49666e-06
1.98914e-05
1.53177e-06
1.98273e-05
1.56808e-06
1.97585e-05
1.60581e-06
1.96851e-05
1.64518e-06