# vtk DataFile Version 2.0
sampleSurface
ASCII
DATASET POLYDATA
POINTS 652 double
0 0 0
0.02 0 0
0.02 0 0.1
0 0 0.1
0.04 0 0
0.04 0 0.1
0.06 0 0
0.06 0 0.1
0.08 0 0
0.08 0 0.1
0.1 0 0
0.1 0 0.1
0.12 0 0
0.12 0 0.1
0.14 0 0
0.14 0 0.1
0.16 0 0
0.16 0 0.1
0.18 0 0
0.18 0 0.1
0.2 0 0
0.2 0 0.1
0.22 0 0
0.22 0 0.1
0.24 0 0
0.24 0 0.1
0.26 0 0
0.26 0 0.1
0.28 0 0
0.28 0 0.1
0.3 0 0
0.3 0 0.1
0.32 0 0
0.32 0 0.1
0.34 0 0
0.34 0 0.1
0.36 0 0
0.36 0 0.1
0.38 0 0
0.38 0 0.1
0.4 0 0
0.4 0 0.1
0.42 0 0
0.42 0 0.1
0.44 0 0
0.44 0 0.1
0.46 0 0
0.46 0 0.1
0.48 0 0
0.48 0 0.1
0.5 0 0
0.5 0 0.1
0.52 0 0
0.52 0 0.1
0.54 0 0
0.54 0 0.1
0.56 0 0
0.56 0 0.1
0.58 0 0
0.58 0 0.1
0.6 0 0
0.6 0 0.1
0.62 0 0
0.62 0 0.1
0.64 0 0
0.64 0 0.1
0.66 0 0
0.66 0 0.1
0.68 0 0
0.68 0 0.1
0.7 0 0
0.7 0 0.1
0.72 0 0
0.72 0 0.1
0.74 0 0
0.74 0 0.1
0.76 0 0
0.76 0 0.1
0.78 0 0
0.78 0 0.1
0.8 0 0
0.8 0 0.1
0.82 0 0
0.82 0 0.1
0.84 0 0
0.84 0 0.1
0.86 0 0
0.86 0 0.1
0.88 0 0
0.88 0 0.1
0.9 0 0
0.9 0 0.1
0.92 0 0
0.92 0 0.1
0.94 0 0
0.94 0 0.1
0.96 0 0
0.96 0 0.1
0.98 0 0
0.98 0 0.1
1 0 0
1 0 0.1
1.02 0 0
1.02 0 0.1
1.04 0 0
1.04 0 0.1
1.06 0 0
1.06 0 0.1
1.08 0 0
1.08 0 0.1
1.1 0 0
1.1 0 0.1
1.12 0 0
1.12 0 0.1
1.14 0 0
1.14 0 0.1
1.16 0 0
1.16 0 0.1
1.18 0 0
1.18 0 0.1
1.2 0 0
1.2 0 0.1
1.22 0 0
1.22 0 0.1
1.24 0 0
1.24 0 0.1
1.26 0 0
1.26 0 0.1
1.28 0 0
1.28 0 0.1
1.3 0 0
1.3 0 0.1
1.32 0 0
1.32 0 0.1
1.34 0 0
1.34 0 0.1
1.36 0 0
1.36 0 0.1
1.38 0 0
1.38 0 0.1
1.4 0 0
1.4 0 0.1
1.42 0 0
1.42 0 0.1
1.44 0 0
1.44 0 0.1
1.46 0 0
1.46 0 0.1
1.48 0 0
1.48 0 0.1
1.5 0 0
1.5 0 0.1
1.52 0 0
1.52 0 0.1
1.54 0 0
1.54 0 0.1
1.56 0 0
1.56 0 0.1
1.58 0 0
1.58 0 0.1
1.6 0 0
1.6 0 0.1
1.62 0 0
1.62 0 0.1
1.64 0 0
1.64 0 0.1
1.66 0 0
1.66 0 0.1
1.68 0 0
1.68 0 0.1
1.7 0 0
1.7 0 0.1
1.72 0 0
1.72 0 0.1
1.74 0 0
1.74 0 0.1
1.76 0 0
1.76 0 0.1
1.78 0 0
1.78 0 0.1
1.8 0 0
1.8 0 0.1
1.82 0 0
1.82 0 0.1
1.84 0 0
1.84 0 0.1
1.86 0 0
1.86 0 0.1
1.88 0 0
1.88 0 0.1
1.9 0 0
1.9 0 0.1
1.92 0 0
1.92 0 0.1
1.94 0 0
1.94 0 0.1
1.96 0 0
1.96 0 0.1
1.98 0 0
1.98 0 0.1
2 0 0
2 0 0.1
2 0.02 0
2 0.02 0.1
2 0.04 0
2 0.04 0.1
2 0.06 0
2 0.06 0.1
2 0.08 0
2 0.08 0.1
2 0.1 0
2 0.1 0.1
2 0.12 0
2 0.12 0.1
2 0.14 0
2 0.14 0.1
2 0.16 0
2 0.16 0.1
2 0.18 0
2 0.18 0.1
2 0.2 0
2 0.2 0.1
2 0.22 0
2 0.22 0.1
2 0.24 0
2 0.24 0.1
2 0.26 0
2 0.26 0.1
2 0.28 0
2 0.28 0.1
2 0.3 0
2 0.3 0.1
2 0.32 0
2 0.32 0.1
2 0.34 0
2 0.34 0.1
2 0.36 0
2 0.36 0.1
2 0.38 0
2 0.38 0.1
2 0.4 0
2 0.4 0.1
2 0.42 0
2 0.42 0.1
2 0.44 0
2 0.44 0.1
2 0.46 0
2 0.46 0.1
2 0.48 0
2 0.48 0.1
2 0.5 0
2 0.5 0.1
2 0.52 0
2 0.52 0.1
2 0.54 0
2 0.54 0.1
2 0.56 0
2 0.56 0.1
2 0.58 0
2 0.58 0.1
2 0.6 0
2 0.6 0.1
2 0.62 0
2 0.62 0.1
2 0.64 0
2 0.64 0.1
2 0.66 0
2 0.66 0.1
2 0.68 0
2 0.68 0.1
2 0.7 0
2 0.7 0.1
2 0.72 0
2 0.72 0.1
2 0.74 0
2 0.74 0.1
2 0.76 0
2 0.76 0.1
2 0.78 0
2 0.78 0.1
2 0.8 0
2 0.8 0.1
2 0.82 0
2 0.82 0.1
2 0.84 0
2 0.84 0.1
2 0.86 0
2 0.86 0.1
2 0.88 0
2 0.88 0.1
2 0.9 0
2 0.9 0.1
2 0.92 0
2 0.92 0.1
2 0.94 0
2 0.94 0.1
2 0.96 0
2 0.96 0.1
2 0.98 0
2 0.98 0.1
2 1 0
2 1 0.1
2.02 1 0
2.02 1 0.1
2.04 1 0
2.04 1 0.1
2.06 1 0
2.06 1 0.1
2.08 1 0
2.08 1 0.1
2.1 1 0
2.1 1 0.1
2.12 1 0
2.12 1 0.1
2.14 1 0
2.14 1 0.1
2.16 1 0
2.16 1 0.1
2.18 1 0
2.18 1 0.1
2.2 1 0
2.2 1 0.1
2.22 1 0
2.22 1 0.1
2.24 1 0
2.24 1 0.1
2.26 1 0
2.26 1 0.1
2.28 1 0
2.28 1 0.1
2.3 1 0
2.3 1 0.1
2.32 1 0
2.32 1 0.1
2.34 1 0
2.34 1 0.1
2.36 1 0
2.36 1 0.1
2.38 1 0
2.38 1 0.1
2.4 1 0
2.4 1 0.1
2.42 1 0
2.42 1 0.1
2.44 1 0
2.44 1 0.1
2.46 1 0
2.46 1 0.1
2.48 1 0
2.48 1 0.1
2.5 1 0
2.5 1 0.1
2.5 0 0
2.5 0 0.1
2.5 0.02 0.1
2.5 0.02 0
2.5 0.04 0.1
2.5 0.04 0
2.5 0.06 0.1
2.5 0.06 0
2.5 0.08 0.1
2.5 0.08 0
2.5 0.1 0.1
2.5 0.1 0
2.5 0.12 0.1
2.5 0.12 0
2.5 0.14 0.1
2.5 0.14 0
2.5 0.16 0.1
2.5 0.16 0
2.5 0.18 0.1
2.5 0.18 0
2.5 0.2 0.1
2.5 0.2 0
2.5 0.22 0.1
2.5 0.22 0
2.5 0.24 0.1
2.5 0.24 0
2.5 0.26 0.1
2.5 0.26 0
2.5 0.28 0.1
2.5 0.28 0
2.5 0.3 0.1
2.5 0.3 0
2.5 0.32 0.1
2.5 0.32 0
2.5 0.34 0.1
2.5 0.34 0
2.5 0.36 0.1
2.5 0.36 0
2.5 0.38 0.1
2.5 0.38 0
2.5 0.4 0.1
2.5 0.4 0
2.5 0.42 0.1
2.5 0.42 0
2.5 0.44 0.1
2.5 0.44 0
2.5 0.46 0.1
2.5 0.46 0
2.5 0.48 0.1
2.5 0.48 0
2.5 0.5 0.1
2.5 0.5 0
2.5 0.52 0.1
2.5 0.52 0
2.5 0.54 0.1
2.5 0.54 0
2.5 0.56 0.1
2.5 0.56 0
2.5 0.58 0.1
2.5 0.58 0
2.5 0.6 0.1
2.5 0.6 0
2.5 0.62 0.1
2.5 0.62 0
2.5 0.64 0.1
2.5 0.64 0
2.5 0.66 0.1
2.5 0.66 0
2.5 0.68 0.1
2.5 0.68 0
2.5 0.7 0.1
2.5 0.7 0
2.5 0.72 0.1
2.5 0.72 0
2.5 0.74 0.1
2.5 0.74 0
2.5 0.76 0.1
2.5 0.76 0
2.5 0.78 0.1
2.5 0.78 0
2.5 0.8 0.1
2.5 0.8 0
2.5 0.82 0.1
2.5 0.82 0
2.5 0.84 0.1
2.5 0.84 0
2.5 0.86 0.1
2.5 0.86 0
2.5 0.88 0.1
2.5 0.88 0
2.5 0.9 0.1
2.5 0.9 0
2.5 0.92 0.1
2.5 0.92 0
2.5 0.94 0.1
2.5 0.94 0
2.5 0.96 0.1
2.5 0.96 0
2.5 0.98 0.1
2.5 0.98 0
2.52 0 0
2.52 0 0.1
2.54 0 0
2.54 0 0.1
2.56 0 0
2.56 0 0.1
2.58 0 0
2.58 0 0.1
2.6 0 0
2.6 0 0.1
2.62 0 0
2.62 0 0.1
2.64 0 0
2.64 0 0.1
2.66 0 0
2.66 0 0.1
2.68 0 0
2.68 0 0.1
2.7 0 0
2.7 0 0.1
2.72 0 0
2.72 0 0.1
2.74 0 0
2.74 0 0.1
2.76 0 0
2.76 0 0.1
2.78 0 0
2.78 0 0.1
2.8 0 0
2.8 0 0.1
2.82 0 0
2.82 0 0.1
2.84 0 0
2.84 0 0.1
2.86 0 0
2.86 0 0.1
2.88 0 0
2.88 0 0.1
2.9 0 0
2.9 0 0.1
2.92 0 0
2.92 0 0.1
2.94 0 0
2.94 0 0.1
2.96 0 0
2.96 0 0.1
2.98 0 0
2.98 0 0.1
3 0 0
3 0 0.1
3.02 0 0
3.02 0 0.1
3.04 0 0
3.04 0 0.1
3.06 0 0
3.06 0 0.1
3.08 0 0
3.08 0 0.1
3.1 0 0
3.1 0 0.1
3.12 0 0
3.12 0 0.1
3.14 0 0
3.14 0 0.1
3.16 0 0
3.16 0 0.1
3.18 0 0
3.18 0 0.1
3.2 0 0
3.2 0 0.1
3.22 0 0
3.22 0 0.1
3.24 0 0
3.24 0 0.1
3.26 0 0
3.26 0 0.1
3.28 0 0
3.28 0 0.1
3.3 0 0
3.3 0 0.1
3.32 0 0
3.32 0 0.1
3.34 0 0
3.34 0 0.1
3.36 0 0
3.36 0 0.1
3.38 0 0
3.38 0 0.1
3.4 0 0
3.4 0 0.1
3.42 0 0
3.42 0 0.1
3.44 0 0
3.44 0 0.1
3.46 0 0
3.46 0 0.1
3.48 0 0
3.48 0 0.1
3.5 0 0
3.5 0 0.1
3.52 0 0
3.52 0 0.1
3.54 0 0
3.54 0 0.1
3.56 0 0
3.56 0 0.1
3.58 0 0
3.58 0 0.1
3.6 0 0
3.6 0 0.1
3.62 0 0
3.62 0 0.1
3.64 0 0
3.64 0 0.1
3.66 0 0
3.66 0 0.1
3.68 0 0
3.68 0 0.1
3.7 0 0
3.7 0 0.1
3.72 0 0
3.72 0 0.1
3.74 0 0
3.74 0 0.1
3.76 0 0
3.76 0 0.1
3.78 0 0
3.78 0 0.1
3.8 0 0
3.8 0 0.1
3.82 0 0
3.82 0 0.1
3.84 0 0
3.84 0 0.1
3.86 0 0
3.86 0 0.1
3.88 0 0
3.88 0 0.1
3.9 0 0
3.9 0 0.1
3.92 0 0
3.92 0 0.1
3.94 0 0
3.94 0 0.1
3.96 0 0
3.96 0 0.1
3.98 0 0
3.98 0 0.1
4 0 0
4 0 0.1
4.02 0 0
4.02 0 0.1
4.04 0 0
4.04 0 0.1
4.06 0 0
4.06 0 0.1
4.08 0 0
4.08 0 0.1
4.1 0 0
4.1 0 0.1
4.12 0 0
4.12 0 0.1
4.14 0 0
4.14 0 0.1
4.16 0 0
4.16 0 0.1
4.18 0 0
4.18 0 0.1
4.2 0 0
4.2 0 0.1
4.22 0 0
4.22 0 0.1
4.24 0 0
4.24 0 0.1
4.26 0 0
4.26 0 0.1
4.28 0 0
4.28 0 0.1
4.3 0 0
4.3 0 0.1
4.32 0 0
4.32 0 0.1
4.34 0 0
4.34 0 0.1
4.36 0 0
4.36 0 0.1
4.38 0 0
4.38 0 0.1
4.4 0 0
4.4 0 0.1
4.42 0 0
4.42 0 0.1
4.44 0 0
4.44 0 0.1
4.46 0 0
4.46 0 0.1
4.48 0 0
4.48 0 0.1
4.5 0 0
4.5 0 0.1

POLYGONS 325 1625
4 0 1 2 3
4 1 4 5 2
4 4 6 7 5
4 6 8 9 7
4 8 10 11 9
4 10 12 13 11
4 12 14 15 13
4 14 16 17 15
4 16 18 19 17
4 18 20 21 19
4 20 22 23 21
4 22 24 25 23
4 24 26 27 25
4 26 28 29 27
4 28 30 31 29
4 30 32 33 31
4 32 34 35 33
4 34 36 37 35
4 36 38 39 37
4 38 40 41 39
4 40 42 43 41
4 42 44 45 43
4 44 46 47 45
4 46 48 49 47
4 48 50 51 49
4 50 52 53 51
4 52 54 55 53
4 54 56 57 55
4 56 58 59 57
4 58 60 61 59
4 60 62 63 61
4 62 64 65 63
4 64 66 67 65
4 66 68 69 67
4 68 70 71 69
4 70 72 73 71
4 72 74 75 73
4 74 76 77 75
4 76 78 79 77
4 78 80 81 79
4 80 82 83 81
4 82 84 85 83
4 84 86 87 85
4 86 88 89 87
4 88 90 91 89
4 90 92 93 91
4 92 94 95 93
4 94 96 97 95
4 96 98 99 97
4 98 100 101 99
4 100 102 103 101
4 102 104 105 103
4 104 106 107 105
4 106 108 109 107
4 108 110 111 109
4 110 112 113 111
4 112 114 115 113
4 114 116 117 115
4 116 118 119 117
4 118 120 121 119
4 120 122 123 121
4 122 124 125 123
4 124 126 127 125
4 126 128 129 127
4 128 130 131 129
4 130 132 133 131
4 132 134 135 133
4 134 136 137 135
4 136 138 139 137
4 138 140 141 139
4 140 142 143 141
4 142 144 145 143
4 144 146 147 145
4 146 148 149 147
4 148 150 151 149
4 150 152 153 151
4 152 154 155 153
4 154 156 157 155
4 156 158 159 157
4 158 160 161 159
4 160 162 163 161
4 162 164 165 163
4 164 166 167 165
4 166 168 169 167
4 168 170 171 169
4 170 172 173 171
4 172 174 175 173
4 174 176 177 175
4 176 178 179 177
4 178 180 181 179
4 180 182 183 181
4 182 184 185 183
4 184 186 187 185
4 186 188 189 187
4 188 190 191 189
4 190 192 193 191
4 192 194 195 193
4 194 196 197 195
4 196 198 199 197
4 198 200 201 199
4 200 202 203 201
4 202 204 205 203
4 204 206 207 205
4 206 208 209 207
4 208 210 211 209
4 210 212 213 211
4 212 214 215 213
4 214 216 217 215
4 216 218 219 217
4 218 220 221 219
4 220 222 223 221
4 222 224 225 223
4 224 226 227 225
4 226 228 229 227
4 228 230 231 229
4 230 232 233 231
4 232 234 235 233
4 234 236 237 235
4 236 238 239 237
4 238 240 241 239
4 240 242 243 241
4 242 244 245 243
4 244 246 247 245
4 246 248 249 247
4 248 250 251 249
4 250 252 253 251
4 252 254 255 253
4 254 256 257 255
4 256 258 259 257
4 258 260 261 259
4 260 262 263 261
4 262 264 265 263
4 264 266 267 265
4 266 268 269 267
4 268 270 271 269
4 270 272 273 271
4 272 274 275 273
4 274 276 277 275
4 276 278 279 277
4 278 280 281 279
4 280 282 283 281
4 282 284 285 283
4 284 286 287 285
4 286 288 289 287
4 288 290 291 289
4 290 292 293 291
4 292 294 295 293
4 294 296 297 295
4 296 298 299 297
4 298 300 301 299
4 300 302 303 301
4 302 304 305 303
4 304 306 307 305
4 306 308 309 307
4 308 310 311 309
4 310 312 313 311
4 312 314 315 313
4 314 316 317 315
4 316 318 319 317
4 318 320 321 319
4 320 322 323 321
4 322 324 325 323
4 324 326 327 325
4 326 328 329 327
4 328 330 331 329
4 330 332 333 331
4 332 334 335 333
4 334 336 337 335
4 336 338 339 337
4 338 340 341 339
4 340 342 343 341
4 342 344 345 343
4 344 346 347 345
4 346 348 349 347
4 348 350 351 349
4 352 353 354 355
4 355 354 356 357
4 357 356 358 359
4 359 358 360 361
4 361 360 362 363
4 363 362 364 365
4 365 364 366 367
4 367 366 368 369
4 369 368 370 371
4 371 370 372 373
4 373 372 374 375
4 375 374 376 377
4 377 376 378 379
4 379 378 380 381
4 381 380 382 383
4 383 382 384 385
4 385 384 386 387
4 387 386 388 389
4 389 388 390 391
4 391 390 392 393
4 393 392 394 395
4 395 394 396 397
4 397 396 398 399
4 399 398 400 401
4 401 400 402 403
4 403 402 404 405
4 405 404 406 407
4 407 406 408 409
4 409 408 410 411
4 411 410 412 413
4 413 412 414 415
4 415 414 416 417
4 417 416 418 419
4 419 418 420 421
4 421 420 422 423
4 423 422 424 425
4 425 424 426 427
4 427 426 428 429
4 429 428 430 431
4 431 430 432 433
4 433 432 434 435
4 435 434 436 437
4 437 436 438 439
4 439 438 440 441
4 441 440 442 443
4 443 442 444 445
4 445 444 446 447
4 447 446 448 449
4 449 448 450 451
4 451 450 351 350
4 352 452 453 353
4 452 454 455 453
4 454 456 457 455
4 456 458 459 457
4 458 460 461 459
4 460 462 463 461
4 462 464 465 463
4 464 466 467 465
4 466 468 469 467
4 468 470 471 469
4 470 472 473 471
4 472 474 475 473
4 474 476 477 475
4 476 478 479 477
4 478 480 481 479
4 480 482 483 481
4 482 484 485 483
4 484 486 487 485
4 486 488 489 487
4 488 490 491 489
4 490 492 493 491
4 492 494 495 493
4 494 496 497 495
4 496 498 499 497
4 498 500 501 499
4 500 502 503 501
4 502 504 505 503
4 504 506 507 505
4 506 508 509 507
4 508 510 511 509
4 510 512 513 511
4 512 514 515 513
4 514 516 517 515
4 516 518 519 517
4 518 520 521 519
4 520 522 523 521
4 522 524 525 523
4 524 526 527 525
4 526 528 529 527
4 528 530 531 529
4 530 532 533 531
4 532 534 535 533
4 534 536 537 535
4 536 538 539 537
4 538 540 541 539
4 540 542 543 541
4 542 544 545 543
4 544 546 547 545
4 546 548 549 547
4 548 550 551 549
4 550 552 553 551
4 552 554 555 553
4 554 556 557 555
4 556 558 559 557
4 558 560 561 559
4 560 562 563 561
4 562 564 565 563
4 564 566 567 565
4 566 568 569 567
4 568 570 571 569
4 570 572 573 571
4 572 574 575 573
4 574 576 577 575
4 576 578 579 577
4 578 580 581 579
4 580 582 583 581
4 582 584 585 583
4 584 586 587 585
4 586 588 589 587
4 588 590 591 589
4 590 592 593 591
4 592 594 595 593
4 594 596 597 595
4 596 598 599 597
4 598 600 601 599
4 600 602 603 601
4 602 604 605 603
4 604 606 607 605
4 606 608 609 607
4 608 610 611 609
4 610 612 613 611
4 612 614 615 613
4 614 616 617 615
4 616 618 619 617
4 618 620 621 619
4 620 622 623 621
4 622 624 625 623
4 624 626 627 625
4 626 628 629 627
4 628 630 631 629
4 630 632 633 631
4 632 634 635 633
4 634 636 637 635
4 636 638 639 637
4 638 640 641 639
4 640 642 643 641
4 642 644 645 643
4 644 646 647 645
4 646 648 649 647
4 648 650 651 649
POINT_DATA 652
FIELD attributes 1
U 3 652 float
2.42107 -0.0153724 -0.0069194
1.21102 -0.00769015 -0.0034597
1.21102 -0.00769015 -0.0034597
2.42107 -0.0153724 -0.0069194
0.000981407 -7.21394e-06 0
0.000981407 -7.21394e-06 0
0.000985312 -5.81083e-06 0
0.000985312 -5.81083e-06 0
0.000989505 -3.52287e-06 0
0.000989505 -3.52287e-06 0
0.000992387 -8.11365e-07 0
0.000992387 -8.11365e-07 0
0.000993829 3.64288e-07 0
0.000993829 3.64288e-07 0
0.000994221 3.88672e-08 0
0.000994221 3.88672e-08 0
0.000993446 -6.41078e-07 0
0.000993446 -6.41078e-07 0
0.000991341 -8.17542e-07 0
0.000991341 -8.17542e-07 0
0.000988383 -3.38439e-07 0
0.000988383 -3.38439e-07 0
0.000985624 4.5377e-07 0
0.000985624 4.5377e-07 0
0.000983869 1.14923e-06 0
0.000983869 1.14923e-06 0
0.000982946 1.58243e-06 0
0.000982946 1.58243e-06 0
0.000981789 1.82888e-06 0
0.000981789 1.82888e-06 0
0.000979322 1.93322e-06 0
0.000979322 1.93322e-06 0
0.000975406 1.75339e-06 0
0.000975406 1.75339e-06 0
0.000970934 1.15566e-06 0
0.000970934 1.15566e-06 0
0.000966945 3.5142e-07 0
0.000966945 3.5142e-07 0
0.000963683 -1.37874e-07 0
0.000963683 -1.37874e-07 0
0.000960553 1.17187e-08 0
0.000960553 1.17187e-08 0
0.00095691 5.59706e-07 0
0.00095691 5.59706e-07 0
0.00095276 9.82207e-07 0
0.00095276 9.82207e-07 0
0.000948645 1.11949e-06 0
0.000948645 1.11949e-06 0
0.00094495 1.41751e-06 0
0.00094495 1.41751e-06 0
0.000941431 2.39681e-06 0
0.000941431 2.39681e-06 0
0.000937463 3.91492e-06 0
0.000937463 3.91492e-06 0
0.000932705 5.11305e-06 0
0.000932705 5.11305e-06 0
0.000927439 5.19463e-06 0
0.000927439 5.19463e-06 0
0.000922229 4.26943e-06 0
0.000922229 4.26943e-06 0
0.000917284 3.37418e-06 0
0.000917284 3.37418e-06 0
0.000912206 3.5741e-06 0
0.000912206 3.5741e-06 0
0.00090635 4.98728e-06 0
0.00090635 4.98728e-06 0
0.000899463 6.65658e-06 0
0.000899463 6.65658e-06 0
0.000891965 7.36729e-06 0
0.000891965 7.36729e-06 0
0.000884616 6.66508e-06 0
0.000884616 6.66508e-06 0
0.000877881 5.20894e-06 0
0.000877881 5.20894e-06 0
0.000871516 4.21788e-06 0
0.000871516 4.21788e-06 0
0.00086467 4.55077e-06 0
0.00086467 4.55077e-06 0
0.000856371 6.15948e-06 0
0.000856371 6.15948e-06 0
0.000846077 8.23035e-06 0
0.000846077 8.23035e-06 0
0.000833952 9.79195e-06 0
0.000833952 9.79195e-06 0
0.000820719 1.02927e-05 0
0.000820719 1.02927e-05 0
0.000807252 9.78354e-06 0
0.000807252 9.78354e-06 0
0.000794199 8.70753e-06 0
0.000794199 8.70753e-06 0
0.00078183 7.55948e-06 0
0.00078183 7.55948e-06 0
0.000770093 6.65825e-06 0
0.000770093 6.65825e-06 0
0.00075877 6.10313e-06 0
0.00075877 6.10313e-06 0
0.000747624 5.84624e-06 0
0.000747624 5.84624e-06 0
0.000736468 5.78683e-06 0
0.000736468 5.78683e-06 0
0.000725191 5.83373e-06 0
0.000725191 5.83373e-06 0
0.000713738 5.92779e-06 0
0.000713738 5.92779e-06 0
0.000702088 6.03897e-06 0
0.000702088 6.03897e-06 0
0.000690231 6.15525e-06 0
0.000690231 6.15525e-06 0
0.000678167 6.27302e-06 0
0.000678167 6.27302e-06 0
0.000665894 6.39158e-06 0
0.000665894 6.39158e-06 0
0.000653408 6.51083e-06 0
0.000653408 6.51083e-06 0
0.000640708 6.63064e-06 0
0.000640708 6.63064e-06 0
0.000627792 6.75074e-06 0
0.000627792 6.75074e-06 0
0.000614656 6.87081e-06 0
0.000614656 6.87081e-06 0
0.000601299 6.99052e-06 0
0.000601299 6.99052e-06 0
0.000587719 7.10952e-06 0
0.000587719 7.10952e-06 0
0.000573915 7.22745e-06 0
0.000573915 7.22745e-06 0
0.000559887 7.34379e-06 0
0.000559887 7.34379e-06 0
0.000545635 7.45755e-06 0
0.000545635 7.45755e-06 0
0.000531161 7.56747e-06 0
0.000531161 7.56747e-06 0
0.000516465 7.6723e-06 0
0.000516465 7.6723e-06 0
0.000501552 7.77091e-06 0
0.000501552 7.77091e-06 0
0.000486425 7.86214e-06 0
0.000486425 7.86214e-06 0
0.000471089 7.94481e-06 0
0.000471089 7.94481e-06 0
0.000455553 8.01767e-06 0
0.000455553 8.01767e-06 0
0.000439824 8.07935e-06 0
0.000439824 8.07935e-06 0
0.000423913 8.12836e-06 0
0.000423913 8.12836e-06 0
0.000407834 8.16311e-06 0
0.000407834 8.16311e-06 0
0.000391602 8.18191e-06 0
0.000391602 8.18191e-06 0
0.000375233 8.18301e-06 0
0.000375233 8.18301e-06 0
0.000358748 8.16458e-06 0
0.000358748 8.16458e-06 0
0.000342169 8.12481e-06 0
0.000342169 8.12481e-06 0
0.000325521 8.06193e-06 0
0.000325521 8.06193e-06 0
0.000308833 7.97433e-06 0
0.000308833 7.97433e-06 0
0.000292134 7.86063e-06 0
0.000292134 7.86063e-06 0
0.000275458 7.71972e-06 0
0.000275458 7.71972e-06 0
0.000258839 7.55083e-06 0
0.000258839 7.55083e-06 0
0.000242314 7.35374e-06 0
0.000242314 7.35374e-06 0
0.000225919 7.12887e-06 0
0.000225919 7.12887e-06 0
0.000209693 6.87742e-06 0
0.000209693 6.87742e-06 0
0.000193672 6.60147e-06 0
0.000193672 6.60147e-06 0
0.000177892 6.30403e-06 0
0.000177892 6.30403e-06 0
0.000162384 5.98905e-06 0
0.000162384 5.98905e-06 0
0.000147177 5.66149e-06 0
0.000147177 5.66149e-06 0
0.000132291 5.32718e-06 0
0.000132291 5.32718e-06 0
0.000117743 4.9928e-06 0
0.000117743 4.9928e-06 0
0.000103539 4.66561e-06 0
0.000103539 4.66561e-06 0
8.96765e-05 4.3533e-06 0
8.96765e-05 4.3533e-06 0
7.61439e-05 4.06367e-06 0
7.61439e-05 4.06367e-06 0
6.2919e-05 3.80419e-06 0
6.2919e-05 3.80419e-06 0
4.99697e-05 3.58179e-06 0
4.99697e-05 3.58179e-06 0
3.72537e-05 3.4015e-06 0
3.72537e-05 3.4015e-06 0
2.47249e-05 3.26377e-06 0
2.47249e-05 3.26377e-06 0
1.23232e-05 3.18338e-06 0
1.23232e-05 3.18338e-06 0
6.14461e-06 3.16149e-06 0
6.14461e-06 3.16149e-06 0
8.43836e-06 1.24281e-05 0
8.43836e-06 1.24281e-05 0
1.09336e-05 3.3722e-05 0
1.09336e-05 3.3722e-05 0
1.08637e-05 5.6272e-05 0
1.08637e-05 5.6272e-05 0
1.0356e-05 7.72722e-05 0
1.0356e-05 7.72722e-05 0
9.99644e-06 9.77221e-05 0
9.99644e-06 9.77221e-05 0
9.83308e-06 0.000117516 0
9.83308e-06 0.000117516 0
9.79917e-06 0.000137154 0
9.79917e-06 0.000137154 0
9.83308e-06 0.00015683 0
9.83308e-06 0.00015683 0
9.89868e-06 0.000176616 0
9.89868e-06 0.000176616 0
9.97925e-06 0.000196548 0
9.97925e-06 0.000196548 0
1.00687e-05 0.00021665 0
1.00687e-05 0.00021665 0
1.01657e-05 0.000236939 0
1.01657e-05 0.000236939 0
1.02707e-05 0.000257429 0
1.02707e-05 0.000257429 0
1.03846e-05 0.000278138 0
1.03846e-05 0.000278138 0
1.05085e-05 0.000299083 0
1.05085e-05 0.000299083 0
1.06434e-05 0.000320286 0
1.06434e-05 0.000320286 0
1.07902e-05 0.000341771 0
1.07902e-05 0.000341771 0
1.09502e-05 0.000363561 0
1.09502e-05 0.000363561 0
1.11245e-05 0.000385684 0
1.11245e-05 0.000385684 0
1.13144e-05 0.000408171 0
1.13144e-05 0.000408171 0
1.15211e-05 0.000431053 0
1.15211e-05 0.000431053 0
1.17471e-05 0.000454367 0
1.17471e-05 0.000454367 0
1.19929e-05 0.00047815 0
1.19929e-05 0.00047815 0
1.22621e-05 0.000502448 0
1.22621e-05 0.000502448 0
1.25559e-05 0.000527306 0
1.25559e-05 0.000527306 0
1.28793e-05 0.00055278 0
1.28793e-05 0.00055278 0
1.32314e-05 0.000578924 0
1.32314e-05 0.000578924 0
1.36231e-05 0.000605814 0
1.36231e-05 0.000605814 0
1.40493e-05 0.000633514 0
1.40493e-05 0.000633514 0
1.45299e-05 0.000662123 0
1.45299e-05 0.000662123 0
1.5051e-05 0.000691719 0
1.5051e-05 0.000691719 0
1.56508e-05 0.000722444 0
1.56508e-05 0.000722444 0
1.62911e-05 0.000754385 0
1.62911e-05 0.000754385 0
1.70648e-05 0.000787759 0
1.70648e-05 0.000787759 0
1.78631e-05 0.000822653 0
1.78631e-05 0.000822653 0
1.88899e-05 0.000859413 0
1.88899e-05 0.000859413 0
1.98916e-05 0.000898101 0
1.98916e-05 0.000898101 0
2.13379e-05 0.000939335 0
2.13379e-05 0.000939335 0
2.25929e-05 0.000983046 0
2.25929e-05 0.000983046 0
2.48019e-05 0.00103043 0
2.48019e-05 0.00103043 0
2.63176e-05 0.00108106 0
2.63176e-05 0.00108106 0
3.00944e-05 0.00113739 0
3.00944e-05 0.00113739 0
3.1742e-05 0.00119814 0
3.1742e-05 0.00119814 0
3.91084e-05 0.0012685 0
3.91084e-05 0.0012685 0
4.07717e-05 0.00134592 0
4.07717e-05 0.00134592 0
5.7622e-05 0.00144129 0
5.7622e-05 0.00144129 0
6.11836e-05 0.00155324 0
6.11836e-05 0.00155324 0
0.000109125 0.00170204 0
0.000109125 0.00170204 0
0.000132321 0.00190059 0
0.000132321 0.00190059 0
0.000135668 0.00121401 0
0.000135668 0.00121401 0
-0.000321274 0.000192693 0
-0.000321274 0.000192693 0
-0.000464753 -9.16164e-05 0
-0.000464753 -9.16164e-05 0
-0.000136427 -0.000164639 0
-0.000136427 -0.000164639 0
0.0003024 -0.000283126 0
0.0003024 -0.000283126 0
0.000923951 -0.000208499 0
0.000923951 -0.000208499 0
0.000947751 7.87165e-05 0
0.000947751 7.87165e-05 0
0.00064356 0.000136265 0
0.00064356 0.000136265 0
0.000253693 0.000159367 0
0.000253693 0.000159367 0
-0.000402925 0.000352771 0
-0.000402925 0.000352771 0
-0.0012459 0.000445948 0
-0.0012459 0.000445948 0
-0.00197553 0.000387638 0
-0.00197553 0.000387638 0
-0.00257266 0.000306048 0
-0.00257266 0.000306048 0
-0.00302525 0.000219265 0
-0.00302525 0.000219265 0
-0.0033275 0.000134364 0
-0.0033275 0.000134364 0
-0.00348096 5.47124e-05 0
-0.00348096 5.47124e-05 0
-0.00349438 -1.58589e-05 0
-0.00349438 -1.58589e-05 0
-0.00338931 -7.53121e-05 0
-0.00338931 -7.53121e-05 0
-0.0031847 -0.000123195 0
-0.0031847 -0.000123195 0
-0.00289981 -0.000159128 0
-0.00289981 -0.000159128 0
-0.00255851 -0.000184153 0
-0.00255851 -0.000184153 0
-0.00217962 -0.000200603 0
-0.00217962 -0.000200603 0
-0.00177949 -0.000211161 0
-0.00177949 -0.000211161 0
-0.00136924 -0.000218291 0
-0.00136924 -0.000218291 0
-0.000956955 -0.000218655 0
-0.000956955 -0.000218655 0
-0.000362018 -3.59677e-05 0
-0.000362018 -3.59677e-05 0
-6.55618e-06 5.83935e-06 0
-6.55618e-06 5.83935e-06 0
-6.63882e-06 1.17774e-05 0
-6.63882e-06 1.17774e-05 0
-6.72602e-06 2.37514e-05 0
-6.72602e-06 2.37514e-05 0
-6.78123e-06 3.58762e-05 0
-6.78123e-06 3.58762e-05 0
-6.9033e-06 4.81956e-05 0
-6.9033e-06 4.81956e-05 0
-7.06376e-06 6.08364e-05 0
-7.06376e-06 6.08364e-05 0
-7.2602e-06 7.38768e-05 0
-7.2602e-06 7.38768e-05 0
-7.49239e-06 8.73966e-05 0
-7.49239e-06 8.73966e-05 0
-7.7602e-06 0.000101477 0
-7.7602e-06 0.000101477 0
-8.06332e-06 0.000116197 0
-8.06332e-06 0.000116197 0
-8.40064e-06 0.000131636 0
-8.40064e-06 0.000131636 0
-8.77127e-06 0.000147873 0
-8.77127e-06 0.000147873 0
-9.17321e-06 0.000164979 0
-9.17321e-06 0.000164979 0
-9.60354e-06 0.000183025 0
-9.60354e-06 0.000183025 0
-1.00585e-05 0.000202073 0
-1.00585e-05 0.000202073 0
-1.05326e-05 0.000222172 0
-1.05326e-05 0.000222172 0
-1.10184e-05 0.000243364 0
-1.10184e-05 0.000243364 0
-1.1507e-05 0.000265663 0
-1.1507e-05 0.000265663 0
-1.19849e-05 0.00028907 0
-1.19849e-05 0.00028907 0
-1.24386e-05 0.000313543 0
-1.24386e-05 0.000313543 0
-1.2844e-05 0.000339021 0
-1.2844e-05 0.000339021 0
-1.31851e-05 0.000365379 0
-1.31851e-05 0.000365379 0
-1.34284e-05 0.000392466 0
-1.34284e-05 0.000392466 0
-1.35375e-05 0.000420054 0
-1.35375e-05 0.000420054 0
-1.34944e-05 0.000447841 0
-1.34944e-05 0.000447841 0
-1.32485e-05 0.000475486 0
-1.32485e-05 0.000475486 0
-1.27474e-05 0.000502527 0
-1.27474e-05 0.000502527 0
-1.19733e-05 0.000528388 0
-1.19733e-05 0.000528388 0
-1.09065e-05 0.000552499 0
-1.09065e-05 0.000552499 0
-9.48272e-06 0.000574162 0
-9.48272e-06 0.000574162 0
-7.64121e-06 0.000592612 0
-7.64121e-06 0.000592612 0
-5.38508e-06 0.000606958 0
-5.38508e-06 0.000606958 0
-2.74299e-06 0.000616444 0
-2.74299e-06 0.000616444 0
3.80448e-07 0.000620256 0
3.80448e-07 0.000620256 0
4.115e-06 0.000617589 0
4.115e-06 0.000617589 0
8.4099e-06 0.000607313 0
8.4099e-06 0.000607313 0
1.31808e-05 0.000589109 0
1.31808e-05 0.000589109 0
1.83285e-05 0.000561931 0
1.83285e-05 0.000561931 0
2.39164e-05 0.000525752 0
2.39164e-05 0.000525752 0
3.00818e-05 0.000479379 0
3.00818e-05 0.000479379 0
3.72994e-05 0.00042295 0
3.72994e-05 0.00042295 0
4.4989e-05 0.000354081 0
4.4989e-05 0.000354081 0
5.41564e-05 0.000273775 0
5.41564e-05 0.000273775 0
6.34675e-05 0.000178576 0
6.34675e-05 0.000178576 0
7.43618e-05 6.98021e-05 0
7.43618e-05 6.98021e-05 0
6.4466e-05 -4.88685e-05 0
6.4466e-05 -4.88685e-05 0
-7.46653e-06 -0.000144773 0
-7.46653e-06 -0.000144773 0
-0.000128303 -0.000128606 0
-0.000128303 -0.000128606 0
-0.000194656 -1.86841e-05 0
-0.000194656 -1.86841e-05 0
-8.41517e-05 9.35558e-05 0
-8.41517e-05 9.35558e-05 0
-1.17762e-05 5.53113e-06 0
-1.17762e-05 5.53113e-06 0
-2.22479e-05 5.2882e-06 0
-2.22479e-05 5.2882e-06 0
-3.30066e-05 5.32571e-06 0
-3.30066e-05 5.32571e-06 0
-4.36734e-05 5.22065e-06 0
-4.36734e-05 5.22065e-06 0
-5.39712e-05 5.04327e-06 0
-5.39712e-05 5.04327e-06 0
-6.38878e-05 4.82131e-06 0
-6.38878e-05 4.82131e-06 0
-7.32637e-05 4.55689e-06 0
-7.32637e-05 4.55689e-06 0
-8.2085e-05 4.24933e-06 0
-8.2085e-05 4.24933e-06 0
-9.02111e-05 3.89941e-06 0
-9.02111e-05 3.89941e-06 0
-9.75989e-05 3.50839e-06 0
-9.75989e-05 3.50839e-06 0
-0.000104142 3.07606e-06 0
-0.000104142 3.07606e-06 0
-0.000109775 2.60366e-06 0
-0.000109775 2.60366e-06 0
-0.000114418 2.09262e-06 0
-0.000114418 2.09262e-06 0
-0.000118006 1.54607e-06 0
-0.000118006 1.54607e-06 0
-0.000120476 9.68846e-07 0
-0.000120476 9.68846e-07 0
-0.000121775 3.68808e-07 0
-0.000121775 3.68808e-07 0
-0.00012186 -2.45904e-07 0
-0.00012186 -2.45904e-07 0
-0.000120711 -8.68115e-07 0
-0.000120711 -8.68115e-07 0
-0.000118315 -1.49291e-06 0
-0.000118315 -1.49291e-06 0
-0.000114663 -2.11817e-06 0
-0.000114663 -2.11817e-06 0
-0.00010976 -2.73895e-06 0
-0.00010976 -2.73895e-06 0
-0.000103618 -3.35023e-06 0
-0.000103618 -3.35023e-06 0
-9.62625e-05 -3.94734e-06 0
-9.62625e-05 -3.94734e-06 0
-8.77291e-05 -4.52435e-06 0
-8.77291e-05 -4.52435e-06 0
-7.80611e-05 -5.07716e-06 0
-7.80611e-05 -5.07716e-06 0
-6.73119e-05 -5.6016e-06 0
-6.73119e-05 -5.6016e-06 0
-5.55436e-05 -6.09395e-06 0
-5.55436e-05 -6.09395e-06 0
-4.28253e-05 -6.55142e-06 0
-4.28253e-05 -6.55142e-06 0
-2.92294e-05 -6.9714e-06 0
-2.92294e-05 -6.9714e-06 0
-1.48261e-05 -7.35263e-06 0
-1.48261e-05 -7.35263e-06 0
3.15986e-07 -7.69456e-06 0
3.15986e-07 -7.69456e-06 0
1.61127e-05 -7.99581e-06 0
1.61127e-05 -7.99581e-06 0
3.24661e-05 -8.25606e-06 0
3.24661e-05 -8.25606e-06 0
4.92912e-05 -8.47657e-06 0
4.92912e-05 -8.47657e-06 0
6.65136e-05 -8.65837e-06 0
6.65136e-05 -8.65837e-06 0
8.40574e-05 -8.80286e-06 0
8.40574e-05 -8.80286e-06 0
0.00010185 -8.91175e-06 0
0.00010185 -8.91175e-06 0
0.000119824 -8.98698e-06 0
0.000119824 -8.98698e-06 0
0.000137914 -9.03067e-06 0
0.000137914 -9.03067e-06 0
0.000156063 -9.0451e-06 0
0.000156063 -9.0451e-06 0
0.000174214 -9.03265e-06 0
0.000174214 -9.03265e-06 0
0.000192316 -8.99572e-06 0
0.000192316 -8.99572e-06 0
0.00021032 -8.93669e-06 0
0.00021032 -8.93669e-06 0
0.000228185 -8.85786e-06 0
0.000228185 -8.85786e-06 0
0.000245874 -8.76149e-06 0
0.000245874 -8.76149e-06 0
0.000263354 -8.64971e-06 0
0.000263354 -8.64971e-06 0
0.000280596 -8.52456e-06 0
0.000280596 -8.52456e-06 0
0.000297574 -8.38795e-06 0
0.000297574 -8.38795e-06 0
0.000314268 -8.24163e-06 0
0.000314268 -8.24163e-06 0
0.000330661 -8.08726e-06 0
0.000330661 -8.08726e-06 0
0.000346737 -7.92633e-06 0
0.000346737 -7.92633e-06 0
0.000362484 -7.76021e-06 0
0.000362484 -7.76021e-06 0
0.000377895 -7.59013e-06 0
0.000377895 -7.59013e-06 0
0.000392961 -7.41721e-06 0
0.000392961 -7.41721e-06 0
0.000407678 -7.24244e-06 0
0.000407678 -7.24244e-06 0
0.000422044 -7.06671e-06 0
0.000422044 -7.06671e-06 0
0.000436057 -6.89078e-06 0
0.000436057 -6.89078e-06 0
0.000449718 -6.71535e-06 0
0.000449718 -6.71535e-06 0
0.000463027 -6.54101e-06 0
0.000463027 -6.54101e-06 0
0.000475989 -6.36826e-06 0
0.000475989 -6.36826e-06 0
0.000488607 -6.19755e-06 0
0.000488607 -6.19755e-06 0
0.000500884 -6.02924e-06 0
0.000500884 -6.02924e-06 0
0.000512827 -5.86366e-06 0
0.000512827 -5.86366e-06 0
0.000524441 -5.70106e-06 0
0.000524441 -5.70106e-06 0
0.000535732 -5.54165e-06 0
0.000535732 -5.54165e-06 0
0.000546706 -5.3856e-06 0
0.000546706 -5.3856e-06 0
0.000557371 -5.23303e-06 0
0.000557371 -5.23303e-06 0
0.000567734 -5.08406e-06 0
0.000567734 -5.08406e-06 0
0.000577802 -4.93874e-06 0
0.000577802 -4.93874e-06 0
0.000587582 -4.79712e-06 0
0.000587582 -4.79712e-06 0
0.000597082 -4.65922e-06 0
0.000597082 -4.65922e-06 0
0.000606309 -4.52504e-06 0
0.000606309 -4.52504e-06 0
0.00061527 -4.39457e-06 0
0.00061527 -4.39457e-06 0
0.000623974 -4.26777e-06 0
0.000623974 -4.26777e-06 0
0.000632426 -4.14462e-06 0
0.000632426 -4.14462e-06 0
0.000640636 -4.02506e-06 0
0.000640636 -4.02506e-06 0
0.000648609 -3.90903e-06 0
0.000648609 -3.90903e-06 0
0.000656353 -3.79646e-06 0
0.000656353 -3.79646e-06 0
0.000663874 -3.68729e-06 0
0.000663874 -3.68729e-06 0
0.00067118 -3.58144e-06 0
0.00067118 -3.58144e-06 0
0.000678277 -3.47883e-06 0
0.000678277 -3.47883e-06 0
0.00068517 -3.37938e-06 0
0.00068517 -3.37938e-06 0
0.000691868 -3.283e-06 0
0.000691868 -3.283e-06 0
0.000698374 -3.18963e-06 0
0.000698374 -3.18963e-06 0
0.000704698 -3.09914e-06 0
0.000704698 -3.09914e-06 0
0.00071084 -3.01152e-06 0
0.00071084 -3.01152e-06 0
0.000716813 -2.92655e-06 0
0.000716813 -2.92655e-06 0
0.000722611 -2.84436e-06 0
0.000722611 -2.84436e-06 0
0.000728259 -2.76453e-06 0
0.000728259 -2.76453e-06 0
0.000733729 -2.6875e-06 0
0.000733729 -2.6875e-06 0
0.000739078 -2.61239e-06 0
0.000739078 -2.61239e-06 0
0.00074423 -2.54031e-06 0
0.00074423 -2.54031e-06 0
0.000749314 -2.4694e-06 0
0.000749314 -2.4694e-06 0
0.000754143 -2.40226e-06 0
0.000754143 -2.40226e-06 0
0.000759016 -2.33474e-06 0
0.000759016 -2.33474e-06 0
0.000763482 -2.27296e-06 0
0.000763482 -2.27296e-06 0
0.000768243 -2.20742e-06 0
0.000768243 -2.20742e-06 0
0.000772227 -2.15237e-06 0
0.000772227 -2.15237e-06 0
0.976749 -0.00254427 0
0.976749 -0.00254427 0
1.95273 -0.00508641 0
1.95273 -0.00508641 0
