# vtk DataFile Version 2.0
sampleSurface
ASCII
DATASET POLYDATA
POINTS 652 double
0 0 0
0.02 0 0
0.02 0 0.1
0 0 0.1
0.04 0 0
0.04 0 0.1
0.06 0 0
0.06 0 0.1
0.08 0 0
0.08 0 0.1
0.1 0 0
0.1 0 0.1
0.12 0 0
0.12 0 0.1
0.14 0 0
0.14 0 0.1
0.16 0 0
0.16 0 0.1
0.18 0 0
0.18 0 0.1
0.2 0 0
0.2 0 0.1
0.22 0 0
0.22 0 0.1
0.24 0 0
0.24 0 0.1
0.26 0 0
0.26 0 0.1
0.28 0 0
0.28 0 0.1
0.3 0 0
0.3 0 0.1
0.32 0 0
0.32 0 0.1
0.34 0 0
0.34 0 0.1
0.36 0 0
0.36 0 0.1
0.38 0 0
0.38 0 0.1
0.4 0 0
0.4 0 0.1
0.42 0 0
0.42 0 0.1
0.44 0 0
0.44 0 0.1
0.46 0 0
0.46 0 0.1
0.48 0 0
0.48 0 0.1
0.5 0 0
0.5 0 0.1
0.52 0 0
0.52 0 0.1
0.54 0 0
0.54 0 0.1
0.56 0 0
0.56 0 0.1
0.58 0 0
0.58 0 0.1
0.6 0 0
0.6 0 0.1
0.62 0 0
0.62 0 0.1
0.64 0 0
0.64 0 0.1
0.66 0 0
0.66 0 0.1
0.68 0 0
0.68 0 0.1
0.7 0 0
0.7 0 0.1
0.72 0 0
0.72 0 0.1
0.74 0 0
0.74 0 0.1
0.76 0 0
0.76 0 0.1
0.78 0 0
0.78 0 0.1
0.8 0 0
0.8 0 0.1
0.82 0 0
0.82 0 0.1
0.84 0 0
0.84 0 0.1
0.86 0 0
0.86 0 0.1
0.88 0 0
0.88 0 0.1
0.9 0 0
0.9 0 0.1
0.92 0 0
0.92 0 0.1
0.94 0 0
0.94 0 0.1
0.96 0 0
0.96 0 0.1
0.98 0 0
0.98 0 0.1
1 0 0
1 0 0.1
1.02 0 0
1.02 0 0.1
1.04 0 0
1.04 0 0.1
1.06 0 0
1.06 0 0.1
1.08 0 0
1.08 0 0.1
1.1 0 0
1.1 0 0.1
1.12 0 0
1.12 0 0.1
1.14 0 0
1.14 0 0.1
1.16 0 0
1.16 0 0.1
1.18 0 0
1.18 0 0.1
1.2 0 0
1.2 0 0.1
1.22 0 0
1.22 0 0.1
1.24 0 0
1.24 0 0.1
1.26 0 0
1.26 0 0.1
1.28 0 0
1.28 0 0.1
1.3 0 0
1.3 0 0.1
1.32 0 0
1.32 0 0.1
1.34 0 0
1.34 0 0.1
1.36 0 0
1.36 0 0.1
1.38 0 0
1.38 0 0.1
1.4 0 0
1.4 0 0.1
1.42 0 0
1.42 0 0.1
1.44 0 0
1.44 0 0.1
1.46 0 0
1.46 0 0.1
1.48 0 0
1.48 0 0.1
1.5 0 0
1.5 0 0.1
1.52 0 0
1.52 0 0.1
1.54 0 0
1.54 0 0.1
1.56 0 0
1.56 0 0.1
1.58 0 0
1.58 0 0.1
1.6 0 0
1.6 0 0.1
1.62 0 0
1.62 0 0.1
1.64 0 0
1.64 0 0.1
1.66 0 0
1.66 0 0.1
1.68 0 0
1.68 0 0.1
1.7 0 0
1.7 0 0.1
1.72 0 0
1.72 0 0.1
1.74 0 0
1.74 0 0.1
1.76 0 0
1.76 0 0.1
1.78 0 0
1.78 0 0.1
1.8 0 0
1.8 0 0.1
1.82 0 0
1.82 0 0.1
1.84 0 0
1.84 0 0.1
1.86 0 0
1.86 0 0.1
1.88 0 0
1.88 0 0.1
1.9 0 0
1.9 0 0.1
1.92 0 0
1.92 0 0.1
1.94 0 0
1.94 0 0.1
1.96 0 0
1.96 0 0.1
1.98 0 0
1.98 0 0.1
2 0 0
2 0 0.1
2 0.02 0
2 0.02 0.1
2 0.04 0
2 0.04 0.1
2 0.06 0
2 0.06 0.1
2 0.08 0
2 0.08 0.1
2 0.1 0
2 0.1 0.1
2 0.12 0
2 0.12 0.1
2 0.14 0
2 0.14 0.1
2 0.16 0
2 0.16 0.1
2 0.18 0
2 0.18 0.1
2 0.2 0
2 0.2 0.1
2 0.22 0
2 0.22 0.1
2 0.24 0
2 0.24 0.1
2 0.26 0
2 0.26 0.1
2 0.28 0
2 0.28 0.1
2 0.3 0
2 0.3 0.1
2 0.32 0
2 0.32 0.1
2 0.34 0
2 0.34 0.1
2 0.36 0
2 0.36 0.1
2 0.38 0
2 0.38 0.1
2 0.4 0
2 0.4 0.1
2 0.42 0
2 0.42 0.1
2 0.44 0
2 0.44 0.1
2 0.46 0
2 0.46 0.1
2 0.48 0
2 0.48 0.1
2 0.5 0
2 0.5 0.1
2 0.52 0
2 0.52 0.1
2 0.54 0
2 0.54 0.1
2 0.56 0
2 0.56 0.1
2 0.58 0
2 0.58 0.1
2 0.6 0
2 0.6 0.1
2 0.62 0
2 0.62 0.1
2 0.64 0
2 0.64 0.1
2 0.66 0
2 0.66 0.1
2 0.68 0
2 0.68 0.1
2 0.7 0
2 0.7 0.1
2 0.72 0
2 0.72 0.1
2 0.74 0
2 0.74 0.1
2 0.76 0
2 0.76 0.1
2 0.78 0
2 0.78 0.1
2 0.8 0
2 0.8 0.1
2 0.82 0
2 0.82 0.1
2 0.84 0
2 0.84 0.1
2 0.86 0
2 0.86 0.1
2 0.88 0
2 0.88 0.1
2 0.9 0
2 0.9 0.1
2 0.92 0
2 0.92 0.1
2 0.94 0
2 0.94 0.1
2 0.96 0
2 0.96 0.1
2 0.98 0
2 0.98 0.1
2 1 0
2 1 0.1
2.02 1 0
2.02 1 0.1
2.04 1 0
2.04 1 0.1
2.06 1 0
2.06 1 0.1
2.08 1 0
2.08 1 0.1
2.1 1 0
2.1 1 0.1
2.12 1 0
2.12 1 0.1
2.14 1 0
2.14 1 0.1
2.16 1 0
2.16 1 0.1
2.18 1 0
2.18 1 0.1
2.2 1 0
2.2 1 0.1
2.22 1 0
2.22 1 0.1
2.24 1 0
2.24 1 0.1
2.26 1 0
2.26 1 0.1
2.28 1 0
2.28 1 0.1
2.3 1 0
2.3 1 0.1
2.32 1 0
2.32 1 0.1
2.34 1 0
2.34 1 0.1
2.36 1 0
2.36 1 0.1
2.38 1 0
2.38 1 0.1
2.4 1 0
2.4 1 0.1
2.42 1 0
2.42 1 0.1
2.44 1 0
2.44 1 0.1
2.46 1 0
2.46 1 0.1
2.48 1 0
2.48 1 0.1
2.5 1 0
2.5 1 0.1
2.5 0 0
2.5 0 0.1
2.5 0.02 0.1
2.5 0.02 0
2.5 0.04 0.1
2.5 0.04 0
2.5 0.06 0.1
2.5 0.06 0
2.5 0.08 0.1
2.5 0.08 0
2.5 0.1 0.1
2.5 0.1 0
2.5 0.12 0.1
2.5 0.12 0
2.5 0.14 0.1
2.5 0.14 0
2.5 0.16 0.1
2.5 0.16 0
2.5 0.18 0.1
2.5 0.18 0
2.5 0.2 0.1
2.5 0.2 0
2.5 0.22 0.1
2.5 0.22 0
2.5 0.24 0.1
2.5 0.24 0
2.5 0.26 0.1
2.5 0.26 0
2.5 0.28 0.1
2.5 0.28 0
2.5 0.3 0.1
2.5 0.3 0
2.5 0.32 0.1
2.5 0.32 0
2.5 0.34 0.1
2.5 0.34 0
2.5 0.36 0.1
2.5 0.36 0
2.5 0.38 0.1
2.5 0.38 0
2.5 0.4 0.1
2.5 0.4 0
2.5 0.42 0.1
2.5 0.42 0
2.5 0.44 0.1
2.5 0.44 0
2.5 0.46 0.1
2.5 0.46 0
2.5 0.48 0.1
2.5 0.48 0
2.5 0.5 0.1
2.5 0.5 0
2.5 0.52 0.1
2.5 0.52 0
2.5 0.54 0.1
2.5 0.54 0
2.5 0.56 0.1
2.5 0.56 0
2.5 0.58 0.1
2.5 0.58 0
2.5 0.6 0.1
2.5 0.6 0
2.5 0.62 0.1
2.5 0.62 0
2.5 0.64 0.1
2.5 0.64 0
2.5 0.66 0.1
2.5 0.66 0
2.5 0.68 0.1
2.5 0.68 0
2.5 0.7 0.1
2.5 0.7 0
2.5 0.72 0.1
2.5 0.72 0
2.5 0.74 0.1
2.5 0.74 0
2.5 0.76 0.1
2.5 0.76 0
2.5 0.78 0.1
2.5 0.78 0
2.5 0.8 0.1
2.5 0.8 0
2.5 0.82 0.1
2.5 0.82 0
2.5 0.84 0.1
2.5 0.84 0
2.5 0.86 0.1
2.5 0.86 0
2.5 0.88 0.1
2.5 0.88 0
2.5 0.9 0.1
2.5 0.9 0
2.5 0.92 0.1
2.5 0.92 0
2.5 0.94 0.1
2.5 0.94 0
2.5 0.96 0.1
2.5 0.96 0
2.5 0.98 0.1
2.5 0.98 0
2.52 0 0
2.52 0 0.1
2.54 0 0
2.54 0 0.1
2.56 0 0
2.56 0 0.1
2.58 0 0
2.58 0 0.1
2.6 0 0
2.6 0 0.1
2.62 0 0
2.62 0 0.1
2.64 0 0
2.64 0 0.1
2.66 0 0
2.66 0 0.1
2.68 0 0
2.68 0 0.1
2.7 0 0
2.7 0 0.1
2.72 0 0
2.72 0 0.1
2.74 0 0
2.74 0 0.1
2.76 0 0
2.76 0 0.1
2.78 0 0
2.78 0 0.1
2.8 0 0
2.8 0 0.1
2.82 0 0
2.82 0 0.1
2.84 0 0
2.84 0 0.1
2.86 0 0
2.86 0 0.1
2.88 0 0
2.88 0 0.1
2.9 0 0
2.9 0 0.1
2.92 0 0
2.92 0 0.1
2.94 0 0
2.94 0 0.1
2.96 0 0
2.96 0 0.1
2.98 0 0
2.98 0 0.1
3 0 0
3 0 0.1
3.02 0 0
3.02 0 0.1
3.04 0 0
3.04 0 0.1
3.06 0 0
3.06 0 0.1
3.08 0 0
3.08 0 0.1
3.1 0 0
3.1 0 0.1
3.12 0 0
3.12 0 0.1
3.14 0 0
3.14 0 0.1
3.16 0 0
3.16 0 0.1
3.18 0 0
3.18 0 0.1
3.2 0 0
3.2 0 0.1
3.22 0 0
3.22 0 0.1
3.24 0 0
3.24 0 0.1
3.26 0 0
3.26 0 0.1
3.28 0 0
3.28 0 0.1
3.3 0 0
3.3 0 0.1
3.32 0 0
3.32 0 0.1
3.34 0 0
3.34 0 0.1
3.36 0 0
3.36 0 0.1
3.38 0 0
3.38 0 0.1
3.4 0 0
3.4 0 0.1
3.42 0 0
3.42 0 0.1
3.44 0 0
3.44 0 0.1
3.46 0 0
3.46 0 0.1
3.48 0 0
3.48 0 0.1
3.5 0 0
3.5 0 0.1
3.52 0 0
3.52 0 0.1
3.54 0 0
3.54 0 0.1
3.56 0 0
3.56 0 0.1
3.58 0 0
3.58 0 0.1
3.6 0 0
3.6 0 0.1
3.62 0 0
3.62 0 0.1
3.64 0 0
3.64 0 0.1
3.66 0 0
3.66 0 0.1
3.68 0 0
3.68 0 0.1
3.7 0 0
3.7 0 0.1
3.72 0 0
3.72 0 0.1
3.74 0 0
3.74 0 0.1
3.76 0 0
3.76 0 0.1
3.78 0 0
3.78 0 0.1
3.8 0 0
3.8 0 0.1
3.82 0 0
3.82 0 0.1
3.84 0 0
3.84 0 0.1
3.86 0 0
3.86 0 0.1
3.88 0 0
3.88 0 0.1
3.9 0 0
3.9 0 0.1
3.92 0 0
3.92 0 0.1
3.94 0 0
3.94 0 0.1
3.96 0 0
3.96 0 0.1
3.98 0 0
3.98 0 0.1
4 0 0
4 0 0.1
4.02 0 0
4.02 0 0.1
4.04 0 0
4.04 0 0.1
4.06 0 0
4.06 0 0.1
4.08 0 0
4.08 0 0.1
4.1 0 0
4.1 0 0.1
4.12 0 0
4.12 0 0.1
4.14 0 0
4.14 0 0.1
4.16 0 0
4.16 0 0.1
4.18 0 0
4.18 0 0.1
4.2 0 0
4.2 0 0.1
4.22 0 0
4.22 0 0.1
4.24 0 0
4.24 0 0.1
4.26 0 0
4.26 0 0.1
4.28 0 0
4.28 0 0.1
4.3 0 0
4.3 0 0.1
4.32 0 0
4.32 0 0.1
4.34 0 0
4.34 0 0.1
4.36 0 0
4.36 0 0.1
4.38 0 0
4.38 0 0.1
4.4 0 0
4.4 0 0.1
4.42 0 0
4.42 0 0.1
4.44 0 0
4.44 0 0.1
4.46 0 0
4.46 0 0.1
4.48 0 0
4.48 0 0.1
4.5 0 0
4.5 0 0.1

POLYGONS 325 1625
4 0 1 2 3
4 1 4 5 2
4 4 6 7 5
4 6 8 9 7
4 8 10 11 9
4 10 12 13 11
4 12 14 15 13
4 14 16 17 15
4 16 18 19 17
4 18 20 21 19
4 20 22 23 21
4 22 24 25 23
4 24 26 27 25
4 26 28 29 27
4 28 30 31 29
4 30 32 33 31
4 32 34 35 33
4 34 36 37 35
4 36 38 39 37
4 38 40 41 39
4 40 42 43 41
4 42 44 45 43
4 44 46 47 45
4 46 48 49 47
4 48 50 51 49
4 50 52 53 51
4 52 54 55 53
4 54 56 57 55
4 56 58 59 57
4 58 60 61 59
4 60 62 63 61
4 62 64 65 63
4 64 66 67 65
4 66 68 69 67
4 68 70 71 69
4 70 72 73 71
4 72 74 75 73
4 74 76 77 75
4 76 78 79 77
4 78 80 81 79
4 80 82 83 81
4 82 84 85 83
4 84 86 87 85
4 86 88 89 87
4 88 90 91 89
4 90 92 93 91
4 92 94 95 93
4 94 96 97 95
4 96 98 99 97
4 98 100 101 99
4 100 102 103 101
4 102 104 105 103
4 104 106 107 105
4 106 108 109 107
4 108 110 111 109
4 110 112 113 111
4 112 114 115 113
4 114 116 117 115
4 116 118 119 117
4 118 120 121 119
4 120 122 123 121
4 122 124 125 123
4 124 126 127 125
4 126 128 129 127
4 128 130 131 129
4 130 132 133 131
4 132 134 135 133
4 134 136 137 135
4 136 138 139 137
4 138 140 141 139
4 140 142 143 141
4 142 144 145 143
4 144 146 147 145
4 146 148 149 147
4 148 150 151 149
4 150 152 153 151
4 152 154 155 153
4 154 156 157 155
4 156 158 159 157
4 158 160 161 159
4 160 162 163 161
4 162 164 165 163
4 164 166 167 165
4 166 168 169 167
4 168 170 171 169
4 170 172 173 171
4 172 174 175 173
4 174 176 177 175
4 176 178 179 177
4 178 180 181 179
4 180 182 183 181
4 182 184 185 183
4 184 186 187 185
4 186 188 189 187
4 188 190 191 189
4 190 192 193 191
4 192 194 195 193
4 194 196 197 195
4 196 198 199 197
4 198 200 201 199
4 200 202 203 201
4 202 204 205 203
4 204 206 207 205
4 206 208 209 207
4 208 210 211 209
4 210 212 213 211
4 212 214 215 213
4 214 216 217 215
4 216 218 219 217
4 218 220 221 219
4 220 222 223 221
4 222 224 225 223
4 224 226 227 225
4 226 228 229 227
4 228 230 231 229
4 230 232 233 231
4 232 234 235 233
4 234 236 237 235
4 236 238 239 237
4 238 240 241 239
4 240 242 243 241
4 242 244 245 243
4 244 246 247 245
4 246 248 249 247
4 248 250 251 249
4 250 252 253 251
4 252 254 255 253
4 254 256 257 255
4 256 258 259 257
4 258 260 261 259
4 260 262 263 261
4 262 264 265 263
4 264 266 267 265
4 266 268 269 267
4 268 270 271 269
4 270 272 273 271
4 272 274 275 273
4 274 276 277 275
4 276 278 279 277
4 278 280 281 279
4 280 282 283 281
4 282 284 285 283
4 284 286 287 285
4 286 288 289 287
4 288 290 291 289
4 290 292 293 291
4 292 294 295 293
4 294 296 297 295
4 296 298 299 297
4 298 300 301 299
4 300 302 303 301
4 302 304 305 303
4 304 306 307 305
4 306 308 309 307
4 308 310 311 309
4 310 312 313 311
4 312 314 315 313
4 314 316 317 315
4 316 318 319 317
4 318 320 321 319
4 320 322 323 321
4 322 324 325 323
4 324 326 327 325
4 326 328 329 327
4 328 330 331 329
4 330 332 333 331
4 332 334 335 333
4 334 336 337 335
4 336 338 339 337
4 338 340 341 339
4 340 342 343 341
4 342 344 345 343
4 344 346 347 345
4 346 348 349 347
4 348 350 351 349
4 352 353 354 355
4 355 354 356 357
4 357 356 358 359
4 359 358 360 361
4 361 360 362 363
4 363 362 364 365
4 365 364 366 367
4 367 366 368 369
4 369 368 370 371
4 371 370 372 373
4 373 372 374 375
4 375 374 376 377
4 377 376 378 379
4 379 378 380 381
4 381 380 382 383
4 383 382 384 385
4 385 384 386 387
4 387 386 388 389
4 389 388 390 391
4 391 390 392 393
4 393 392 394 395
4 395 394 396 397
4 397 396 398 399
4 399 398 400 401
4 401 400 402 403
4 403 402 404 405
4 405 404 406 407
4 407 406 408 409
4 409 408 410 411
4 411 410 412 413
4 413 412 414 415
4 415 414 416 417
4 417 416 418 419
4 419 418 420 421
4 421 420 422 423
4 423 422 424 425
4 425 424 426 427
4 427 426 428 429
4 429 428 430 431
4 431 430 432 433
4 433 432 434 435
4 435 434 436 437
4 437 436 438 439
4 439 438 440 441
4 441 440 442 443
4 443 442 444 445
4 445 444 446 447
4 447 446 448 449
4 449 448 450 451
4 451 450 351 350
4 352 452 453 353
4 452 454 455 453
4 454 456 457 455
4 456 458 459 457
4 458 460 461 459
4 460 462 463 461
4 462 464 465 463
4 464 466 467 465
4 466 468 469 467
4 468 470 471 469
4 470 472 473 471
4 472 474 475 473
4 474 476 477 475
4 476 478 479 477
4 478 480 481 479
4 480 482 483 481
4 482 484 485 483
4 484 486 487 485
4 486 488 489 487
4 488 490 491 489
4 490 492 493 491
4 492 494 495 493
4 494 496 497 495
4 496 498 499 497
4 498 500 501 499
4 500 502 503 501
4 502 504 505 503
4 504 506 507 505
4 506 508 509 507
4 508 510 511 509
4 510 512 513 511
4 512 514 515 513
4 514 516 517 515
4 516 518 519 517
4 518 520 521 519
4 520 522 523 521
4 522 524 525 523
4 524 526 527 525
4 526 528 529 527
4 528 530 531 529
4 530 532 533 531
4 532 534 535 533
4 534 536 537 535
4 536 538 539 537
4 538 540 541 539
4 540 542 543 541
4 542 544 545 543
4 544 546 547 545
4 546 548 549 547
4 548 550 551 549
4 550 552 553 551
4 552 554 555 553
4 554 556 557 555
4 556 558 559 557
4 558 560 561 559
4 560 562 563 561
4 562 564 565 563
4 564 566 567 565
4 566 568 569 567
4 568 570 571 569
4 570 572 573 571
4 572 574 575 573
4 574 576 577 575
4 576 578 579 577
4 578 580 581 579
4 580 582 583 581
4 582 584 585 583
4 584 586 587 585
4 586 588 589 587
4 588 590 591 589
4 590 592 593 591
4 592 594 595 593
4 594 596 597 595
4 596 598 599 597
4 598 600 601 599
4 600 602 603 601
4 602 604 605 603
4 604 606 607 605
4 606 608 609 607
4 608 610 611 609
4 610 612 613 611
4 612 614 615 613
4 614 616 617 615
4 616 618 619 617
4 618 620 621 619
4 620 622 623 621
4 622 624 625 623
4 624 626 627 625
4 626 628 629 627
4 628 630 631 629
4 630 632 633 631
4 632 634 635 633
4 634 636 637 635
4 636 638 639 637
4 638 640 641 639
4 640 642 643 641
4 642 644 645 643
4 644 646 647 645
4 646 648 649 647
4 648 650 651 649
POINT_DATA 652
FIELD attributes 1
U 3 652 float
2.49672 -0.0111224 0.0699715
1.24886 -0.00556629 0.0349858
1.24886 -0.00556629 0.0349858
2.49672 -0.0111224 0.0699715
0.0010049 -8.44476e-06 0
0.0010049 -8.44476e-06 0
0.00100458 -6.1134e-06 0
0.00100458 -6.1134e-06 0
0.00100363 -4.51335e-06 0
0.00100363 -4.51335e-06 0
0.00100142 -2.29432e-06 0
0.00100142 -2.29432e-06 0
0.000998589 -2.20282e-07 0
0.000998589 -2.20282e-07 0
0.000996282 1.1387e-06 0
0.000996282 1.1387e-06 0
0.00099512 1.6073e-06 0
0.00099512 1.6073e-06 0
0.000994763 1.36703e-06 0
0.000994763 1.36703e-06 0
0.000994043 9.33389e-07 0
0.000994043 9.33389e-07 0
0.000991848 7.76857e-07 0
0.000991848 7.76857e-07 0
0.000988149 8.39839e-07 0
0.000988149 8.39839e-07 0
0.000984029 6.35954e-07 0
0.000984029 6.35954e-07 0
0.00098064 6.56976e-09 0
0.00098064 6.56976e-09 0
0.000978176 -5.30035e-07 0
0.000978176 -5.30035e-07 0
0.000975866 -3.89143e-07 0
0.000975866 -3.89143e-07 0
0.000972904 3.58408e-07 0
0.000972904 3.58408e-07 0
0.00096928 1.08654e-06 0
0.00096928 1.08654e-06 0
0.000965673 1.40142e-06 0
0.000965673 1.40142e-06 0
0.000962601 1.63435e-06 0
0.000962601 1.63435e-06 0
0.000959834 2.39605e-06 0
0.000959834 2.39605e-06 0
0.000956653 3.70196e-06 0
0.000956653 3.70196e-06 0
0.000952617 4.76083e-06 0
0.000952617 4.76083e-06 0
0.000947992 4.73919e-06 0
0.000947992 4.73919e-06 0
0.000943416 3.70235e-06 0
0.000943416 3.70235e-06 0
0.000939199 2.7146e-06 0
0.000939199 2.7146e-06 0
0.000934991 2.91078e-06 0
0.000934991 2.91078e-06 0
0.000930112 4.42707e-06 0
0.000930112 4.42707e-06 0
0.000924214 6.23198e-06 0
0.000924214 6.23198e-06 0
0.000917631 6.99264e-06 0
0.000917631 6.99264e-06 0
0.000911107 6.17767e-06 0
0.000911107 6.17767e-06 0
0.000905175 4.46455e-06 0
0.000905175 4.46455e-06 0
0.000899716 3.16933e-06 0
0.000899716 3.16933e-06 0
0.000893996 3.26134e-06 0
0.000893996 3.26134e-06 0
0.000887079 4.76705e-06 0
0.000887079 4.76705e-06 0
0.00087836 6.89313e-06 0
0.00087836 6.89313e-06 0
0.000867867 8.6345e-06 0
0.000867867 8.6345e-06 0
0.000856179 9.37047e-06 0
0.000856179 9.37047e-06 0
0.000844078 9.08035e-06 0
0.000844078 9.08035e-06 0
0.00083219 8.16276e-06 0
0.00083219 8.16276e-06 0
0.000820815 7.10335e-06 0
0.000820815 7.10335e-06 0
0.000809958 6.23587e-06 0
0.000809958 6.23587e-06 0
0.000799456 5.68151e-06 0
0.000799456 5.68151e-06 0
0.000789112 5.41048e-06 0
0.000789112 5.41048e-06 0
0.000778769 5.33276e-06 0
0.000778769 5.33276e-06 0
0.00076833 5.36176e-06 0
0.00076833 5.36176e-06 0
0.000757744 5.4393e-06 0
0.000757744 5.4393e-06 0
0.00074699 5.53504e-06 0
0.00074699 5.53504e-06 0
0.000736062 5.63651e-06 0
0.000736062 5.63651e-06 0
0.000724956 5.73988e-06 0
0.000724956 5.73988e-06 0
0.000713668 5.84445e-06 0
0.000713668 5.84445e-06 0
0.000702197 5.95027e-06 0
0.000702197 5.95027e-06 0
0.000690538 6.05737e-06 0
0.000690538 6.05737e-06 0
0.000678689 6.16566e-06 0
0.000678689 6.16566e-06 0
0.000666644 6.27495e-06 0
0.000666644 6.27495e-06 0
0.000654402 6.38503e-06 0
0.000654402 6.38503e-06 0
0.000641959 6.49565e-06 0
0.000641959 6.49565e-06 0
0.000629312 6.60653e-06 0
0.000629312 6.60653e-06 0
0.000616458 6.71739e-06 0
0.000616458 6.71739e-06 0
0.000603395 6.82792e-06 0
0.000603395 6.82792e-06 0
0.000590121 6.93778e-06 0
0.000590121 6.93778e-06 0
0.000576635 7.04665e-06 0
0.000576635 7.04665e-06 0
0.000562936 7.1542e-06 0
0.000562936 7.1542e-06 0
0.000549025 7.26003e-06 0
0.000549025 7.26003e-06 0
0.000534902 7.36322e-06 0
0.000534902 7.36322e-06 0
0.00052057 7.46238e-06 0
0.00052057 7.46238e-06 0
0.00050603 7.55615e-06 0
0.00050603 7.55615e-06 0
0.000491286 7.64339e-06 0
0.000491286 7.64339e-06 0
0.000476342 7.72306e-06 0
0.000476342 7.72306e-06 0
0.000461204 7.79411e-06 0
0.000461204 7.79411e-06 0
0.00044588 7.85545e-06 0
0.00044588 7.85545e-06 0
0.000430379 7.90592e-06 0
0.000430379 7.90592e-06 0
0.000414711 7.94428e-06 0
0.000414711 7.94428e-06 0
0.000398889 7.96924e-06 0
0.000398889 7.96924e-06 0
0.000382927 7.97947e-06 0
0.000382927 7.97947e-06 0
0.000366841 7.97359e-06 0
0.000366841 7.97359e-06 0
0.00035065 7.95026e-06 0
0.00035065 7.95026e-06 0
0.000334374 7.90824e-06 0
0.000334374 7.90824e-06 0
0.000318034 7.84642e-06 0
0.000318034 7.84642e-06 0
0.000301655 7.76383e-06 0
0.000301655 7.76383e-06 0
0.000285263 7.6597e-06 0
0.000285263 7.6597e-06 0
0.000268884 7.53362e-06 0
0.000268884 7.53362e-06 0
0.000252547 7.38559e-06 0
0.000252547 7.38559e-06 0
0.00023628 7.21611e-06 0
0.00023628 7.21611e-06 0
0.000220113 7.02626e-06 0
0.000220113 7.02626e-06 0
0.000204073 6.81775e-06 0
0.000204073 6.81775e-06 0
0.000188186 6.59296e-06 0
0.000188186 6.59296e-06 0
0.000172478 6.35495e-06 0
0.000172478 6.35495e-06 0
0.000156968 6.10751e-06 0
0.000156968 6.10751e-06 0
0.000141674 5.85506e-06 0
0.000141674 5.85506e-06 0
0.000126607 5.60259e-06 0
0.000126607 5.60259e-06 0
0.000111773 5.35558e-06 0
0.000111773 5.35558e-06 0
9.71723e-05 5.11973e-06 0
9.71723e-05 5.11973e-06 0
8.27961e-05 4.90089e-06 0
8.27961e-05 4.90089e-06 0
6.863e-05 4.70468e-06 0
6.863e-05 4.70468e-06 0
5.46526e-05 4.53638e-06 0
5.46526e-05 4.53638e-06 0
4.08349e-05 4.39973e-06 0
4.08349e-05 4.39973e-06 0
2.71459e-05 4.29515e-06 0
2.71459e-05 4.29515e-06 0
1.35437e-05 4.23467e-06 0
1.35437e-05 4.23467e-06 0
6.75742e-06 4.21864e-06 0
6.75742e-06 4.21864e-06 0
8.68887e-06 1.36492e-05 0
8.68887e-06 1.36492e-05 0
1.06728e-05 3.47063e-05 0
1.06728e-05 3.47063e-05 0
1.04675e-05 5.6441e-05 0
1.04675e-05 5.6441e-05 0
1.0033e-05 7.66843e-05 0
1.0033e-05 7.66843e-05 0
9.78389e-06 9.65943e-05 0
9.78389e-06 9.65943e-05 0
9.7012e-06 0.000116066 0
9.7012e-06 0.000116066 0
9.70986e-06 0.000135491 0
9.70986e-06 0.000135491 0
9.76003e-06 0.000155005 0
9.76003e-06 0.000155005 0
9.82836e-06 0.000174644 0
9.82836e-06 0.000174644 0
9.90642e-06 0.000194429 0
9.90642e-06 0.000194429 0
9.99221e-06 0.000214377 0
9.99221e-06 0.000214377 0
1.0086e-05 0.000234504 0
1.0086e-05 0.000234504 0
1.01885e-05 0.000254827 0
1.01885e-05 0.000254827 0
1.03007e-05 0.000275364 0
1.03007e-05 0.000275364 0
1.04235e-05 0.000296135 0
1.04235e-05 0.000296135 0
1.05577e-05 0.000317163 0
1.05577e-05 0.000317163 0
1.07042e-05 0.000338471 0
1.07042e-05 0.000338471 0
1.08642e-05 0.000360084 0
1.08642e-05 0.000360084 0
1.10384e-05 0.000382031 0
1.10384e-05 0.000382031 0
1.12286e-05 0.000404341 0
1.12286e-05 0.000404341 0
1.14361e-05 0.000427048 0
1.14361e-05 0.000427048 0
1.16623e-05 0.000450187 0
1.16623e-05 0.000450187 0
1.19088e-05 0.000473797 0
1.19088e-05 0.000473797 0
1.21796e-05 0.000497924 0
1.21796e-05 0.000497924 0
1.2474e-05 0.000522612 0
1.2474e-05 0.000522612 0
1.27981e-05 0.00054792 0
1.27981e-05 0.00054792 0
1.31522e-05 0.0005739 0
1.31522e-05 0.0005739 0
1.35457e-05 0.000600629 0
1.35457e-05 0.000600629 0
1.39728e-05 0.000628169 0
1.39728e-05 0.000628169 0
1.44558e-05 0.000656625 0
1.44558e-05 0.000656625 0
1.49762e-05 0.000686069 0
1.49762e-05 0.000686069 0
1.55829e-05 0.00071665 0
1.55829e-05 0.00071665 0
1.62243e-05 0.000748446 0
1.62243e-05 0.000748446 0
1.69964e-05 0.000781684 0
1.69964e-05 0.000781684 0
1.77963e-05 0.000816437 0
1.77963e-05 0.000816437 0
1.88352e-05 0.000853079 0
1.88352e-05 0.000853079 0
1.98262e-05 0.000891637 0
1.98262e-05 0.000891637 0
2.12915e-05 0.000932747 0
2.12915e-05 0.000932747 0
2.25204e-05 0.000976351 0
2.25204e-05 0.000976351 0
2.47425e-05 0.00102357 0
2.47425e-05 0.00102357 0
2.62514e-05 0.00107415 0
2.62514e-05 0.00107415 0
2.99754e-05 0.0011302 0
2.99754e-05 0.0011302 0
3.17326e-05 0.00119105 0
3.17326e-05 0.00119105 0
3.87573e-05 0.00126085 0
3.87573e-05 0.00126085 0
4.08183e-05 0.00133854 0
4.08183e-05 0.00133854 0
5.64954e-05 0.0014327 0
5.64954e-05 0.0014327 0
6.10836e-05 0.00154453 0
6.10836e-05 0.00154453 0
0.000105119 0.0016907 0
0.000105119 0.0016907 0
0.000129403 0.00188563 0
0.000129403 0.00188563 0
9.13308e-05 0.00115971 0
9.13308e-05 0.00115971 0
-0.0003977 8.73419e-05 0
-0.0003977 8.73419e-05 0
-0.000425631 -0.000291786 0
-0.000425631 -0.000291786 0
0.000139289 -0.000402105 0
0.000139289 -0.000402105 0
0.000629359 -0.000248283 0
0.000629359 -0.000248283 0
0.000913342 -6.22984e-06 0
0.000913342 -6.22984e-06 0
0.000687449 8.22153e-05 0
0.000687449 8.22153e-05 0
0.000325775 0.000158353 0
0.000325775 0.000158353 0
-0.000376283 0.000380008 0
-0.000376283 0.000380008 0
-0.00125514 0.000472297 0
-0.00125514 0.000472297 0
-0.00201203 0.000404429 0
-0.00201203 0.000404429 0
-0.00262339 0.000315169 0
-0.00262339 0.000315169 0
-0.00307851 0.000220179 0
-0.00307851 0.000220179 0
-0.00336761 0.000127568 0
-0.00336761 0.000127568 0
-0.00349554 4.11951e-05 0
-0.00349554 4.11951e-05 0
-0.00347395 -3.4516e-05 0
-0.00347395 -3.4516e-05 0
-0.00332801 -9.68595e-05 0
-0.00332801 -9.68595e-05 0
-0.00308051 -0.000145499 0
-0.00308051 -0.000145499 0
-0.00275458 -0.000180792 0
-0.00275458 -0.000180792 0
-0.00237685 -0.000204135 0
-0.00237685 -0.000204135 0
-0.00196829 -0.000218279 0
-0.00196829 -0.000218279 0
-0.00154637 -0.000225534 0
-0.00154637 -0.000225534 0
-0.00112216 -0.000227271 0
-0.00112216 -0.000227271 0
-0.00070429 -0.000221184 0
-0.00070429 -0.000221184 0
-0.000297314 -0.000200786 0
-0.000297314 -0.000200786 0
9.32012e-06 -9.71023e-05 0
9.32012e-06 -9.71023e-05 0
-5.20604e-06 4.47884e-06 0
-5.20604e-06 4.47884e-06 0
-5.25138e-06 8.99481e-06 0
-5.25138e-06 8.99481e-06 0
-5.32033e-06 1.81007e-05 0
-5.32033e-06 1.81007e-05 0
-5.40013e-06 2.73696e-05 0
-5.40013e-06 2.73696e-05 0
-5.5328e-06 3.68739e-05 0
-5.5328e-06 3.68739e-05 0
-5.70515e-06 4.67138e-05 0
-5.70515e-06 4.67138e-05 0
-5.91757e-06 5.69759e-05 0
-5.91757e-06 5.69759e-05 0
-6.17062e-06 6.77489e-05 0
-6.17062e-06 6.77489e-05 0
-6.46538e-06 7.91242e-05 0
-6.46538e-06 7.91242e-05 0
-6.80286e-06 9.11954e-05 0
-6.80286e-06 9.11954e-05 0
-7.18372e-06 0.000104059 0
-7.18372e-06 0.000104059 0
-7.60946e-06 0.000117815 0
-7.60946e-06 0.000117815 0
-8.08056e-06 0.000132563 0
-8.08056e-06 0.000132563 0
-8.59747e-06 0.000148407 0
-8.59747e-06 0.000148407 0
-9.16037e-06 0.00016545 0
-9.16037e-06 0.00016545 0
-9.76822e-06 0.000183793 0
-9.76822e-06 0.000183793 0
-1.04191e-05 0.000203537 0
-1.04191e-05 0.000203537 0
-1.11096e-05 0.000224771 0
-1.11096e-05 0.000224771 0
-1.18332e-05 0.000247581 0
-1.18332e-05 0.000247581 0
-1.2582e-05 0.000272022 0
-1.2582e-05 0.000272022 0
-1.33415e-05 0.000298149 0
-1.33415e-05 0.000298149 0
-1.40994e-05 0.000325951 0
-1.40994e-05 0.000325951 0
-1.48226e-05 0.000355416 0
-1.48226e-05 0.000355416 0
-1.54988e-05 0.000386425 0
-1.54988e-05 0.000386425 0
-1.60761e-05 0.000418851 0
-1.60761e-05 0.000418851 0
-1.65015e-05 0.000452449 0
-1.65015e-05 0.000452449 0
-1.67653e-05 0.00048687 0
-1.67653e-05 0.00048687 0
-1.67811e-05 0.000521747 0
-1.67811e-05 0.000521747 0
-1.64519e-05 0.000556498 0
-1.64519e-05 0.000556498 0
-1.57512e-05 0.000590328 0
-1.57512e-05 0.000590328 0
-1.46582e-05 0.000622487 0
-1.46582e-05 0.000622487 0
-1.30454e-05 0.000651972 0
-1.30454e-05 0.000651972 0
-1.07572e-05 0.000677644 0
-1.07572e-05 0.000677644 0
-7.77506e-06 0.000698031 0
-7.77506e-06 0.000698031 0
-4.12847e-06 0.000711942 0
-4.12847e-06 0.000711942 0
3.52196e-07 0.000717909 0
3.52196e-07 0.000717909 0
5.86289e-06 0.000714707 0
5.86289e-06 0.000714707 0
1.236e-05 0.000700099 0
1.236e-05 0.000700099 0
1.98572e-05 0.000673758 0
1.98572e-05 0.000673758 0
2.7995e-05 0.000633123 0
2.7995e-05 0.000633123 0
3.65569e-05 0.000579448 0
3.65569e-05 0.000579448 0
4.54021e-05 0.00050968 0
4.54021e-05 0.00050968 0
5.5642e-05 0.000427671 0
5.5642e-05 0.000427671 0
6.51378e-05 0.000324682 0
6.51378e-05 0.000324682 0
7.657e-05 0.000214248 0
7.657e-05 0.000214248 0
8.07905e-05 7.7014e-05 0
8.07905e-05 7.7014e-05 0
4.66172e-05 -4.40438e-05 0
4.66172e-05 -4.40438e-05 0
-9.08147e-05 -0.000130248 0
-9.08147e-05 -0.000130248 0
-0.000193215 -2.4346e-05 0
-0.000193215 -2.4346e-05 0
-3.68099e-05 6.36724e-05 0
-3.68099e-05 6.36724e-05 0
-8.99856e-06 4.12587e-06 0
-8.99856e-06 4.12587e-06 0
-1.65384e-05 3.83668e-06 0
-1.65384e-05 3.83668e-06 0
-2.43346e-05 3.8752e-06 0
-2.43346e-05 3.8752e-06 0
-3.20659e-05 3.76783e-06 0
-3.20659e-05 3.76783e-06 0
-3.94165e-05 3.57846e-06 0
-3.94165e-05 3.57846e-06 0
-4.63735e-05 3.34149e-06 0
-4.63735e-05 3.34149e-06 0
-5.27648e-05 3.06318e-06 0
-5.27648e-05 3.06318e-06 0
-5.85901e-05 2.74533e-06 0
-5.85901e-05 2.74533e-06 0
-6.37105e-05 2.38909e-06 0
-6.37105e-05 2.38909e-06 0
-6.80938e-05 1.99691e-06 0
-6.80938e-05 1.99691e-06 0
-7.16462e-05 1.57044e-06 0
-7.16462e-05 1.57044e-06 0
-7.43169e-05 1.11308e-06 0
-7.43169e-05 1.11308e-06 0
-7.60414e-05 6.28298e-07 0
-7.60414e-05 6.28298e-07 0
-7.67728e-05 1.21536e-07 0
-7.67728e-05 1.21536e-07 0
-7.64717e-05 -4.00944e-07 0
-7.64717e-05 -4.00944e-07 0
-7.51113e-05 -9.34316e-07 0
-7.51113e-05 -9.34316e-07 0
-7.26719e-05 -1.47502e-06 0
-7.26719e-05 -1.47502e-06 0
-6.9143e-05 -2.01931e-06 0
-6.9143e-05 -2.01931e-06 0
-6.45223e-05 -2.56178e-06 0
-6.45223e-05 -2.56178e-06 0
-5.8818e-05 -3.0983e-06 0
-5.8818e-05 -3.0983e-06 0
-5.20471e-05 -3.62404e-06 0
-5.20471e-05 -3.62404e-06 0
-4.42352e-05 -4.13473e-06 0
-4.42352e-05 -4.13473e-06 0
-3.5419e-05 -4.62751e-06 0
-3.5419e-05 -4.62751e-06 0
-2.56418e-05 -5.0968e-06 0
-2.56418e-05 -5.0968e-06 0
-1.49493e-05 -5.53988e-06 0
-1.49493e-05 -5.53988e-06 0
-3.38076e-06 -5.95439e-06 0
-3.38076e-06 -5.95439e-06 0
9.00797e-06 -6.33852e-06 0
9.00797e-06 -6.33852e-06 0
2.21306e-05 -6.69097e-06 0
2.21306e-05 -6.69097e-06 0
3.5915e-05 -7.00939e-06 0
3.5915e-05 -7.00939e-06 0
5.02999e-05 -7.29327e-06 0
5.02999e-05 -7.29327e-06 0
6.52156e-05 -7.54246e-06 0
6.52156e-05 -7.54246e-06 0
8.05927e-05 -7.75722e-06 0
8.05927e-05 -7.75722e-06 0
9.63629e-05 -7.93818e-06 0
9.63629e-05 -7.93818e-06 0
0.000112459 -8.0863e-06 0
0.000112459 -8.0863e-06 0
0.000128818 -8.20281e-06 0
0.000128818 -8.20281e-06 0
0.000145377 -8.28917e-06 0
0.000145377 -8.28917e-06 0
0.000162079 -8.34703e-06 0
0.000162079 -8.34703e-06 0
0.000178869 -8.37818e-06 0
0.000178869 -8.37818e-06 0
0.000195696 -8.3845e-06 0
0.000195696 -8.3845e-06 0
0.000212513 -8.36797e-06 0
0.000212513 -8.36797e-06 0
0.000229276 -8.33056e-06 0
0.000229276 -8.33056e-06 0
0.000245944 -8.27422e-06 0
0.000245944 -8.27422e-06 0
0.000262481 -8.20088e-06 0
0.000262481 -8.20088e-06 0
0.000278856 -8.1124e-06 0
0.000278856 -8.1124e-06 0
0.000295039 -8.01057e-06 0
0.000295039 -8.01057e-06 0
0.000311006 -7.89707e-06 0
0.000311006 -7.89707e-06 0
0.000326734 -7.7735e-06 0
0.000326734 -7.7735e-06 0
0.000342206 -7.64135e-06 0
0.000342206 -7.64135e-06 0
0.000357405 -7.50201e-06 0
0.000357405 -7.50201e-06 0
0.000372318 -7.35675e-06 0
0.000372318 -7.35675e-06 0
0.000386935 -7.20674e-06 0
0.000386935 -7.20674e-06 0
0.000401247 -7.05303e-06 0
0.000401247 -7.05303e-06 0
0.000415248 -6.89659e-06 0
0.000415248 -6.89659e-06 0
0.000428933 -6.73829e-06 0
0.000428933 -6.73829e-06 0
0.000442299 -6.57888e-06 0
0.000442299 -6.57888e-06 0
0.000455346 -6.41906e-06 0
0.000455346 -6.41906e-06 0
0.000468071 -6.25942e-06 0
0.000468071 -6.25942e-06 0
0.000480478 -6.1005e-06 0
0.000480478 -6.1005e-06 0
0.000492566 -5.94276e-06 0
0.000492566 -5.94276e-06 0
0.00050434 -5.7866e-06 0
0.00050434 -5.7866e-06 0
0.000515803 -5.63235e-06 0
0.000515803 -5.63235e-06 0
0.000526958 -5.48031e-06 0
0.000526958 -5.48031e-06 0
0.000537811 -5.33071e-06 0
0.000537811 -5.33071e-06 0
0.000548367 -5.18377e-06 0
0.000548367 -5.18377e-06 0
0.000558631 -5.03964e-06 0
0.000558631 -5.03964e-06 0
0.000568609 -4.89845e-06 0
0.000568609 -4.89845e-06 0
0.000578306 -4.7603e-06 0
0.000578306 -4.7603e-06 0
0.00058773 -4.62528e-06 0
0.00058773 -4.62528e-06 0
0.000596886 -4.49342e-06 0
0.000596886 -4.49342e-06 0
0.000605781 -4.36476e-06 0
0.000605781 -4.36476e-06 0
0.000614421 -4.23932e-06 0
0.000614421 -4.23932e-06 0
0.000622813 -4.11708e-06 0
0.000622813 -4.11708e-06 0
0.000630963 -3.99804e-06 0
0.000630963 -3.99804e-06 0
0.000638877 -3.88218e-06 0
0.000638877 -3.88218e-06 0
0.000646562 -3.76944e-06 0
0.000646562 -3.76944e-06 0
0.000654024 -3.6598e-06 0
0.000654024 -3.6598e-06 0
0.000661269 -3.55319e-06 0
0.000661269 -3.55319e-06 0
0.000668303 -3.44957e-06 0
0.000668303 -3.44957e-06 0
0.000675133 -3.34887e-06 0
0.000675133 -3.34887e-06 0
0.000681763 -3.25102e-06 0
0.000681763 -3.25102e-06 0
0.000688199 -3.15595e-06 0
0.000688199 -3.15595e-06 0
0.000694448 -3.06361e-06 0
0.000694448 -3.06361e-06 0
0.000700514 -2.97389e-06 0
0.000700514 -2.97389e-06 0
0.000706402 -2.88677e-06 0
0.000706402 -2.88677e-06 0
0.000712119 -2.8021e-06 0
0.000712119 -2.8021e-06 0
0.000717666 -2.7199e-06 0
0.000717666 -2.7199e-06 0
0.000723055 -2.63996e-06 0
0.000723055 -2.63996e-06 0
0.000728278 -2.56241e-06 0
0.000728278 -2.56241e-06 0
0.000733359 -2.48686e-06 0
0.000733359 -2.48686e-06 0
0.000738274 -2.41371e-06 0
0.000738274 -2.41371e-06 0
0.00074307 -2.34216e-06 0
0.00074307 -2.34216e-06 0
0.000747684 -2.27326e-06 0
0.000747684 -2.27326e-06 0
0.000752224 -2.20521e-06 0
0.000752224 -2.20521e-06 0
0.000756532 -2.14057e-06 0
0.000756532 -2.14057e-06 0
0.000760863 -2.07525e-06 0
0.000760863 -2.07525e-06 0
0.000764829 -2.01531e-06 0
0.000764829 -2.01531e-06 0
0.000769038 -1.95134e-06 0
0.000769038 -1.95134e-06 0
0.000772555 -1.89748e-06 0
0.000772555 -1.89748e-06 0
0.975839 -0.00222744 0
0.975839 -0.00222744 0
1.95091 -0.00445299 0
1.95091 -0.00445299 0
