# vtk DataFile Version 2.0
sampleSurface
ASCII
DATASET POLYDATA
POINTS 652 double
0 0 0
0.02 0 0
0.02 0 0.1
0 0 0.1
0.04 0 0
0.04 0 0.1
0.06 0 0
0.06 0 0.1
0.08 0 0
0.08 0 0.1
0.1 0 0
0.1 0 0.1
0.12 0 0
0.12 0 0.1
0.14 0 0
0.14 0 0.1
0.16 0 0
0.16 0 0.1
0.18 0 0
0.18 0 0.1
0.2 0 0
0.2 0 0.1
0.22 0 0
0.22 0 0.1
0.24 0 0
0.24 0 0.1
0.26 0 0
0.26 0 0.1
0.28 0 0
0.28 0 0.1
0.3 0 0
0.3 0 0.1
0.32 0 0
0.32 0 0.1
0.34 0 0
0.34 0 0.1
0.36 0 0
0.36 0 0.1
0.38 0 0
0.38 0 0.1
0.4 0 0
0.4 0 0.1
0.42 0 0
0.42 0 0.1
0.44 0 0
0.44 0 0.1
0.46 0 0
0.46 0 0.1
0.48 0 0
0.48 0 0.1
0.5 0 0
0.5 0 0.1
0.52 0 0
0.52 0 0.1
0.54 0 0
0.54 0 0.1
0.56 0 0
0.56 0 0.1
0.58 0 0
0.58 0 0.1
0.6 0 0
0.6 0 0.1
0.62 0 0
0.62 0 0.1
0.64 0 0
0.64 0 0.1
0.66 0 0
0.66 0 0.1
0.68 0 0
0.68 0 0.1
0.7 0 0
0.7 0 0.1
0.72 0 0
0.72 0 0.1
0.74 0 0
0.74 0 0.1
0.76 0 0
0.76 0 0.1
0.78 0 0
0.78 0 0.1
0.8 0 0
0.8 0 0.1
0.82 0 0
0.82 0 0.1
0.84 0 0
0.84 0 0.1
0.86 0 0
0.86 0 0.1
0.88 0 0
0.88 0 0.1
0.9 0 0
0.9 0 0.1
0.92 0 0
0.92 0 0.1
0.94 0 0
0.94 0 0.1
0.96 0 0
0.96 0 0.1
0.98 0 0
0.98 0 0.1
1 0 0
1 0 0.1
1.02 0 0
1.02 0 0.1
1.04 0 0
1.04 0 0.1
1.06 0 0
1.06 0 0.1
1.08 0 0
1.08 0 0.1
1.1 0 0
1.1 0 0.1
1.12 0 0
1.12 0 0.1
1.14 0 0
1.14 0 0.1
1.16 0 0
1.16 0 0.1
1.18 0 0
1.18 0 0.1
1.2 0 0
1.2 0 0.1
1.22 0 0
1.22 0 0.1
1.24 0 0
1.24 0 0.1
1.26 0 0
1.26 0 0.1
1.28 0 0
1.28 0 0.1
1.3 0 0
1.3 0 0.1
1.32 0 0
1.32 0 0.1
1.34 0 0
1.34 0 0.1
1.36 0 0
1.36 0 0.1
1.38 0 0
1.38 0 0.1
1.4 0 0
1.4 0 0.1
1.42 0 0
1.42 0 0.1
1.44 0 0
1.44 0 0.1
1.46 0 0
1.46 0 0.1
1.48 0 0
1.48 0 0.1
1.5 0 0
1.5 0 0.1
1.52 0 0
1.52 0 0.1
1.54 0 0
1.54 0 0.1
1.56 0 0
1.56 0 0.1
1.58 0 0
1.58 0 0.1
1.6 0 0
1.6 0 0.1
1.62 0 0
1.62 0 0.1
1.64 0 0
1.64 0 0.1
1.66 0 0
1.66 0 0.1
1.68 0 0
1.68 0 0.1
1.7 0 0
1.7 0 0.1
1.72 0 0
1.72 0 0.1
1.74 0 0
1.74 0 0.1
1.76 0 0
1.76 0 0.1
1.78 0 0
1.78 0 0.1
1.8 0 0
1.8 0 0.1
1.82 0 0
1.82 0 0.1
1.84 0 0
1.84 0 0.1
1.86 0 0
1.86 0 0.1
1.88 0 0
1.88 0 0.1
1.9 0 0
1.9 0 0.1
1.92 0 0
1.92 0 0.1
1.94 0 0
1.94 0 0.1
1.96 0 0
1.96 0 0.1
1.98 0 0
1.98 0 0.1
2 0 0
2 0 0.1
2 0.02 0
2 0.02 0.1
2 0.04 0
2 0.04 0.1
2 0.06 0
2 0.06 0.1
2 0.08 0
2 0.08 0.1
2 0.1 0
2 0.1 0.1
2 0.12 0
2 0.12 0.1
2 0.14 0
2 0.14 0.1
2 0.16 0
2 0.16 0.1
2 0.18 0
2 0.18 0.1
2 0.2 0
2 0.2 0.1
2 0.22 0
2 0.22 0.1
2 0.24 0
2 0.24 0.1
2 0.26 0
2 0.26 0.1
2 0.28 0
2 0.28 0.1
2 0.3 0
2 0.3 0.1
2 0.32 0
2 0.32 0.1
2 0.34 0
2 0.34 0.1
2 0.36 0
2 0.36 0.1
2 0.38 0
2 0.38 0.1
2 0.4 0
2 0.4 0.1
2 0.42 0
2 0.42 0.1
2 0.44 0
2 0.44 0.1
2 0.46 0
2 0.46 0.1
2 0.48 0
2 0.48 0.1
2 0.5 0
2 0.5 0.1
2 0.52 0
2 0.52 0.1
2 0.54 0
2 0.54 0.1
2 0.56 0
2 0.56 0.1
2 0.58 0
2 0.58 0.1
2 0.6 0
2 0.6 0.1
2 0.62 0
2 0.62 0.1
2 0.64 0
2 0.64 0.1
2 0.66 0
2 0.66 0.1
2 0.68 0
2 0.68 0.1
2 0.7 0
2 0.7 0.1
2 0.72 0
2 0.72 0.1
2 0.74 0
2 0.74 0.1
2 0.76 0
2 0.76 0.1
2 0.78 0
2 0.78 0.1
2 0.8 0
2 0.8 0.1
2 0.82 0
2 0.82 0.1
2 0.84 0
2 0.84 0.1
2 0.86 0
2 0.86 0.1
2 0.88 0
2 0.88 0.1
2 0.9 0
2 0.9 0.1
2 0.92 0
2 0.92 0.1
2 0.94 0
2 0.94 0.1
2 0.96 0
2 0.96 0.1
2 0.98 0
2 0.98 0.1
2 1 0
2 1 0.1
2.02 1 0
2.02 1 0.1
2.04 1 0
2.04 1 0.1
2.06 1 0
2.06 1 0.1
2.08 1 0
2.08 1 0.1
2.1 1 0
2.1 1 0.1
2.12 1 0
2.12 1 0.1
2.14 1 0
2.14 1 0.1
2.16 1 0
2.16 1 0.1
2.18 1 0
2.18 1 0.1
2.2 1 0
2.2 1 0.1
2.22 1 0
2.22 1 0.1
2.24 1 0
2.24 1 0.1
2.26 1 0
2.26 1 0.1
2.28 1 0
2.28 1 0.1
2.3 1 0
2.3 1 0.1
2.32 1 0
2.32 1 0.1
2.34 1 0
2.34 1 0.1
2.36 1 0
2.36 1 0.1
2.38 1 0
2.38 1 0.1
2.4 1 0
2.4 1 0.1
2.42 1 0
2.42 1 0.1
2.44 1 0
2.44 1 0.1
2.46 1 0
2.46 1 0.1
2.48 1 0
2.48 1 0.1
2.5 1 0
2.5 1 0.1
2.5 0 0
2.5 0 0.1
2.5 0.02 0.1
2.5 0.02 0
2.5 0.04 0.1
2.5 0.04 0
2.5 0.06 0.1
2.5 0.06 0
2.5 0.08 0.1
2.5 0.08 0
2.5 0.1 0.1
2.5 0.1 0
2.5 0.12 0.1
2.5 0.12 0
2.5 0.14 0.1
2.5 0.14 0
2.5 0.16 0.1
2.5 0.16 0
2.5 0.18 0.1
2.5 0.18 0
2.5 0.2 0.1
2.5 0.2 0
2.5 0.22 0.1
2.5 0.22 0
2.5 0.24 0.1
2.5 0.24 0
2.5 0.26 0.1
2.5 0.26 0
2.5 0.28 0.1
2.5 0.28 0
2.5 0.3 0.1
2.5 0.3 0
2.5 0.32 0.1
2.5 0.32 0
2.5 0.34 0.1
2.5 0.34 0
2.5 0.36 0.1
2.5 0.36 0
2.5 0.38 0.1
2.5 0.38 0
2.5 0.4 0.1
2.5 0.4 0
2.5 0.42 0.1
2.5 0.42 0
2.5 0.44 0.1
2.5 0.44 0
2.5 0.46 0.1
2.5 0.46 0
2.5 0.48 0.1
2.5 0.48 0
2.5 0.5 0.1
2.5 0.5 0
2.5 0.52 0.1
2.5 0.52 0
2.5 0.54 0.1
2.5 0.54 0
2.5 0.56 0.1
2.5 0.56 0
2.5 0.58 0.1
2.5 0.58 0
2.5 0.6 0.1
2.5 0.6 0
2.5 0.62 0.1
2.5 0.62 0
2.5 0.64 0.1
2.5 0.64 0
2.5 0.66 0.1
2.5 0.66 0
2.5 0.68 0.1
2.5 0.68 0
2.5 0.7 0.1
2.5 0.7 0
2.5 0.72 0.1
2.5 0.72 0
2.5 0.74 0.1
2.5 0.74 0
2.5 0.76 0.1
2.5 0.76 0
2.5 0.78 0.1
2.5 0.78 0
2.5 0.8 0.1
2.5 0.8 0
2.5 0.82 0.1
2.5 0.82 0
2.5 0.84 0.1
2.5 0.84 0
2.5 0.86 0.1
2.5 0.86 0
2.5 0.88 0.1
2.5 0.88 0
2.5 0.9 0.1
2.5 0.9 0
2.5 0.92 0.1
2.5 0.92 0
2.5 0.94 0.1
2.5 0.94 0
2.5 0.96 0.1
2.5 0.96 0
2.5 0.98 0.1
2.5 0.98 0
2.52 0 0
2.52 0 0.1
2.54 0 0
2.54 0 0.1
2.56 0 0
2.56 0 0.1
2.58 0 0
2.58 0 0.1
2.6 0 0
2.6 0 0.1
2.62 0 0
2.62 0 0.1
2.64 0 0
2.64 0 0.1
2.66 0 0
2.66 0 0.1
2.68 0 0
2.68 0 0.1
2.7 0 0
2.7 0 0.1
2.72 0 0
2.72 0 0.1
2.74 0 0
2.74 0 0.1
2.76 0 0
2.76 0 0.1
2.78 0 0
2.78 0 0.1
2.8 0 0
2.8 0 0.1
2.82 0 0
2.82 0 0.1
2.84 0 0
2.84 0 0.1
2.86 0 0
2.86 0 0.1
2.88 0 0
2.88 0 0.1
2.9 0 0
2.9 0 0.1
2.92 0 0
2.92 0 0.1
2.94 0 0
2.94 0 0.1
2.96 0 0
2.96 0 0.1
2.98 0 0
2.98 0 0.1
3 0 0
3 0 0.1
3.02 0 0
3.02 0 0.1
3.04 0 0
3.04 0 0.1
3.06 0 0
3.06 0 0.1
3.08 0 0
3.08 0 0.1
3.1 0 0
3.1 0 0.1
3.12 0 0
3.12 0 0.1
3.14 0 0
3.14 0 0.1
3.16 0 0
3.16 0 0.1
3.18 0 0
3.18 0 0.1
3.2 0 0
3.2 0 0.1
3.22 0 0
3.22 0 0.1
3.24 0 0
3.24 0 0.1
3.26 0 0
3.26 0 0.1
3.28 0 0
3.28 0 0.1
3.3 0 0
3.3 0 0.1
3.32 0 0
3.32 0 0.1
3.34 0 0
3.34 0 0.1
3.36 0 0
3.36 0 0.1
3.38 0 0
3.38 0 0.1
3.4 0 0
3.4 0 0.1
3.42 0 0
3.42 0 0.1
3.44 0 0
3.44 0 0.1
3.46 0 0
3.46 0 0.1
3.48 0 0
3.48 0 0.1
3.5 0 0
3.5 0 0.1
3.52 0 0
3.52 0 0.1
3.54 0 0
3.54 0 0.1
3.56 0 0
3.56 0 0.1
3.58 0 0
3.58 0 0.1
3.6 0 0
3.6 0 0.1
3.62 0 0
3.62 0 0.1
3.64 0 0
3.64 0 0.1
3.66 0 0
3.66 0 0.1
3.68 0 0
3.68 0 0.1
3.7 0 0
3.7 0 0.1
3.72 0 0
3.72 0 0.1
3.74 0 0
3.74 0 0.1
3.76 0 0
3.76 0 0.1
3.78 0 0
3.78 0 0.1
3.8 0 0
3.8 0 0.1
3.82 0 0
3.82 0 0.1
3.84 0 0
3.84 0 0.1
3.86 0 0
3.86 0 0.1
3.88 0 0
3.88 0 0.1
3.9 0 0
3.9 0 0.1
3.92 0 0
3.92 0 0.1
3.94 0 0
3.94 0 0.1
3.96 0 0
3.96 0 0.1
3.98 0 0
3.98 0 0.1
4 0 0
4 0 0.1
4.02 0 0
4.02 0 0.1
4.04 0 0
4.04 0 0.1
4.06 0 0
4.06 0 0.1
4.08 0 0
4.08 0 0.1
4.1 0 0
4.1 0 0.1
4.12 0 0
4.12 0 0.1
4.14 0 0
4.14 0 0.1
4.16 0 0
4.16 0 0.1
4.18 0 0
4.18 0 0.1
4.2 0 0
4.2 0 0.1
4.22 0 0
4.22 0 0.1
4.24 0 0
4.24 0 0.1
4.26 0 0
4.26 0 0.1
4.28 0 0
4.28 0 0.1
4.3 0 0
4.3 0 0.1
4.32 0 0
4.32 0 0.1
4.34 0 0
4.34 0 0.1
4.36 0 0
4.36 0 0.1
4.38 0 0
4.38 0 0.1
4.4 0 0
4.4 0 0.1
4.42 0 0
4.42 0 0.1
4.44 0 0
4.44 0 0.1
4.46 0 0
4.46 0 0.1
4.48 0 0
4.48 0 0.1
4.5 0 0
4.5 0 0.1

POLYGONS 325 1625
4 0 1 2 3
4 1 4 5 2
4 4 6 7 5
4 6 8 9 7
4 8 10 11 9
4 10 12 13 11
4 12 14 15 13
4 14 16 17 15
4 16 18 19 17
4 18 20 21 19
4 20 22 23 21
4 22 24 25 23
4 24 26 27 25
4 26 28 29 27
4 28 30 31 29
4 30 32 33 31
4 32 34 35 33
4 34 36 37 35
4 36 38 39 37
4 38 40 41 39
4 40 42 43 41
4 42 44 45 43
4 44 46 47 45
4 46 48 49 47
4 48 50 51 49
4 50 52 53 51
4 52 54 55 53
4 54 56 57 55
4 56 58 59 57
4 58 60 61 59
4 60 62 63 61
4 62 64 65 63
4 64 66 67 65
4 66 68 69 67
4 68 70 71 69
4 70 72 73 71
4 72 74 75 73
4 74 76 77 75
4 76 78 79 77
4 78 80 81 79
4 80 82 83 81
4 82 84 85 83
4 84 86 87 85
4 86 88 89 87
4 88 90 91 89
4 90 92 93 91
4 92 94 95 93
4 94 96 97 95
4 96 98 99 97
4 98 100 101 99
4 100 102 103 101
4 102 104 105 103
4 104 106 107 105
4 106 108 109 107
4 108 110 111 109
4 110 112 113 111
4 112 114 115 113
4 114 116 117 115
4 116 118 119 117
4 118 120 121 119
4 120 122 123 121
4 122 124 125 123
4 124 126 127 125
4 126 128 129 127
4 128 130 131 129
4 130 132 133 131
4 132 134 135 133
4 134 136 137 135
4 136 138 139 137
4 138 140 141 139
4 140 142 143 141
4 142 144 145 143
4 144 146 147 145
4 146 148 149 147
4 148 150 151 149
4 150 152 153 151
4 152 154 155 153
4 154 156 157 155
4 156 158 159 157
4 158 160 161 159
4 160 162 163 161
4 162 164 165 163
4 164 166 167 165
4 166 168 169 167
4 168 170 171 169
4 170 172 173 171
4 172 174 175 173
4 174 176 177 175
4 176 178 179 177
4 178 180 181 179
4 180 182 183 181
4 182 184 185 183
4 184 186 187 185
4 186 188 189 187
4 188 190 191 189
4 190 192 193 191
4 192 194 195 193
4 194 196 197 195
4 196 198 199 197
4 198 200 201 199
4 200 202 203 201
4 202 204 205 203
4 204 206 207 205
4 206 208 209 207
4 208 210 211 209
4 210 212 213 211
4 212 214 215 213
4 214 216 217 215
4 216 218 219 217
4 218 220 221 219
4 220 222 223 221
4 222 224 225 223
4 224 226 227 225
4 226 228 229 227
4 228 230 231 229
4 230 232 233 231
4 232 234 235 233
4 234 236 237 235
4 236 238 239 237
4 238 240 241 239
4 240 242 243 241
4 242 244 245 243
4 244 246 247 245
4 246 248 249 247
4 248 250 251 249
4 250 252 253 251
4 252 254 255 253
4 254 256 257 255
4 256 258 259 257
4 258 260 261 259
4 260 262 263 261
4 262 264 265 263
4 264 266 267 265
4 266 268 269 267
4 268 270 271 269
4 270 272 273 271
4 272 274 275 273
4 274 276 277 275
4 276 278 279 277
4 278 280 281 279
4 280 282 283 281
4 282 284 285 283
4 284 286 287 285
4 286 288 289 287
4 288 290 291 289
4 290 292 293 291
4 292 294 295 293
4 294 296 297 295
4 296 298 299 297
4 298 300 301 299
4 300 302 303 301
4 302 304 305 303
4 304 306 307 305
4 306 308 309 307
4 308 310 311 309
4 310 312 313 311
4 312 314 315 313
4 314 316 317 315
4 316 318 319 317
4 318 320 321 319
4 320 322 323 321
4 322 324 325 323
4 324 326 327 325
4 326 328 329 327
4 328 330 331 329
4 330 332 333 331
4 332 334 335 333
4 334 336 337 335
4 336 338 339 337
4 338 340 341 339
4 340 342 343 341
4 342 344 345 343
4 344 346 347 345
4 346 348 349 347
4 348 350 351 349
4 352 353 354 355
4 355 354 356 357
4 357 356 358 359
4 359 358 360 361
4 361 360 362 363
4 363 362 364 365
4 365 364 366 367
4 367 366 368 369
4 369 368 370 371
4 371 370 372 373
4 373 372 374 375
4 375 374 376 377
4 377 376 378 379
4 379 378 380 381
4 381 380 382 383
4 383 382 384 385
4 385 384 386 387
4 387 386 388 389
4 389 388 390 391
4 391 390 392 393
4 393 392 394 395
4 395 394 396 397
4 397 396 398 399
4 399 398 400 401
4 401 400 402 403
4 403 402 404 405
4 405 404 406 407
4 407 406 408 409
4 409 408 410 411
4 411 410 412 413
4 413 412 414 415
4 415 414 416 417
4 417 416 418 419
4 419 418 420 421
4 421 420 422 423
4 423 422 424 425
4 425 424 426 427
4 427 426 428 429
4 429 428 430 431
4 431 430 432 433
4 433 432 434 435
4 435 434 436 437
4 437 436 438 439
4 439 438 440 441
4 441 440 442 443
4 443 442 444 445
4 445 444 446 447
4 447 446 448 449
4 449 448 450 451
4 451 450 351 350
4 352 452 453 353
4 452 454 455 453
4 454 456 457 455
4 456 458 459 457
4 458 460 461 459
4 460 462 463 461
4 462 464 465 463
4 464 466 467 465
4 466 468 469 467
4 468 470 471 469
4 470 472 473 471
4 472 474 475 473
4 474 476 477 475
4 476 478 479 477
4 478 480 481 479
4 480 482 483 481
4 482 484 485 483
4 484 486 487 485
4 486 488 489 487
4 488 490 491 489
4 490 492 493 491
4 492 494 495 493
4 494 496 497 495
4 496 498 499 497
4 498 500 501 499
4 500 502 503 501
4 502 504 505 503
4 504 506 507 505
4 506 508 509 507
4 508 510 511 509
4 510 512 513 511
4 512 514 515 513
4 514 516 517 515
4 516 518 519 517
4 518 520 521 519
4 520 522 523 521
4 522 524 525 523
4 524 526 527 525
4 526 528 529 527
4 528 530 531 529
4 530 532 533 531
4 532 534 535 533
4 534 536 537 535
4 536 538 539 537
4 538 540 541 539
4 540 542 543 541
4 542 544 545 543
4 544 546 547 545
4 546 548 549 547
4 548 550 551 549
4 550 552 553 551
4 552 554 555 553
4 554 556 557 555
4 556 558 559 557
4 558 560 561 559
4 560 562 563 561
4 562 564 565 563
4 564 566 567 565
4 566 568 569 567
4 568 570 571 569
4 570 572 573 571
4 572 574 575 573
4 574 576 577 575
4 576 578 579 577
4 578 580 581 579
4 580 582 583 581
4 582 584 585 583
4 584 586 587 585
4 586 588 589 587
4 588 590 591 589
4 590 592 593 591
4 592 594 595 593
4 594 596 597 595
4 596 598 599 597
4 598 600 601 599
4 600 602 603 601
4 602 604 605 603
4 604 606 607 605
4 606 608 609 607
4 608 610 611 609
4 610 612 613 611
4 612 614 615 613
4 614 616 617 615
4 616 618 619 617
4 618 620 621 619
4 620 622 623 621
4 622 624 625 623
4 624 626 627 625
4 626 628 629 627
4 628 630 631 629
4 630 632 633 631
4 632 634 635 633
4 634 636 637 635
4 636 638 639 637
4 638 640 641 639
4 640 642 643 641
4 642 644 645 643
4 644 646 647 645
4 646 648 649 647
4 648 650 651 649
POINT_DATA 652
FIELD attributes 1
U 3 652 float
2.51166 0.00433126 0.0436471
1.25633 0.00216715 0.0218235
1.25633 0.00216715 0.0218235
2.51166 0.00433126 0.0436471
0.0010068 1.99475e-06 0
0.0010068 1.99475e-06 0
0.00100571 -1.885e-07 0
0.00100571 -1.885e-07 0
0.00100366 -1.38762e-06 0
0.00100366 -1.38762e-06 0
0.00100041 -7.34781e-07 0
0.00100041 -7.34781e-07 0
0.000996851 1.81528e-07 0
0.000996851 1.81528e-07 0
0.00099442 -2.06771e-07 0
0.00099442 -2.06771e-07 0
0.000993379 -1.2844e-06 0
0.000993379 -1.2844e-06 0
0.000992699 -1.44214e-06 0
0.000992699 -1.44214e-06 0
0.000991164 -1.96293e-07 0
0.000991164 -1.96293e-07 0
0.000988553 1.3917e-06 0
0.000988553 1.3917e-06 0
0.000985771 2.10767e-06 0
0.000985771 2.10767e-06 0
0.00098375 1.96866e-06 0
0.00098375 1.96866e-06 0
0.000982394 1.9963e-06 0
0.000982394 1.9963e-06 0
0.000980758 2.80455e-06 0
0.000980758 2.80455e-06 0
0.000978095 3.80415e-06 0
0.000978095 3.80415e-06 0
0.000974592 3.92043e-06 0
0.000974592 3.92043e-06 0
0.000971064 2.90793e-06 0
0.000971064 2.90793e-06 0
0.000968066 1.78686e-06 0
0.000968066 1.78686e-06 0
0.000965359 1.88721e-06 0
0.000965359 1.88721e-06 0
0.000962172 3.48673e-06 0
0.000962172 3.48673e-06 0
0.000957945 5.46805e-06 0
0.000957945 5.46805e-06 0
0.000952856 6.2847e-06 0
0.000952856 6.2847e-06 0
0.000947647 5.26962e-06 0
0.000947647 5.26962e-06 0
0.000942989 3.15781e-06 0
0.000942989 3.15781e-06 0
0.000938967 1.45799e-06 0
0.000938967 1.45799e-06 0
0.000935 1.30159e-06 0
0.000935 1.30159e-06 0
0.000930189 2.75684e-06 0
0.000930189 2.75684e-06 0
0.000923827 4.98447e-06 0
0.000923827 4.98447e-06 0
0.00091577 6.90969e-06 0
0.00091577 6.90969e-06 0
0.000906425 7.85725e-06 0
0.000906425 7.85725e-06 0
0.000896453 7.77494e-06 0
0.000896453 7.77494e-06 0
0.000886438 7.04465e-06 0
0.000886438 7.04465e-06 0
0.000876702 6.14101e-06 0
0.000876702 6.14101e-06 0
0.00086731 5.3895e-06 0
0.00086731 5.3895e-06 0
0.000858168 4.90828e-06 0
0.000858168 4.90828e-06 0
0.00084914 4.6721e-06 0
0.00084914 4.6721e-06 0
0.000840113 4.601e-06 0
0.000840113 4.601e-06 0
0.000831017 4.61929e-06 0
0.000831017 4.61929e-06 0
0.000821813 4.67735e-06 0
0.000821813 4.67735e-06 0
0.000812486 4.75001e-06 0
0.000812486 4.75001e-06 0
0.000803029 4.82736e-06 0
0.000803029 4.82736e-06 0
0.000793438 4.90657e-06 0
0.000793438 4.90657e-06 0
0.000783709 4.98733e-06 0
0.000783709 4.98733e-06 0
0.000773839 5.06983e-06 0
0.000773839 5.06983e-06 0
0.000763822 5.15422e-06 0
0.000763822 5.15422e-06 0
0.000753656 5.24054e-06 0
0.000753656 5.24054e-06 0
0.000743335 5.32877e-06 0
0.000743335 5.32877e-06 0
0.000732855 5.41884e-06 0
0.000732855 5.41884e-06 0
0.000722212 5.51068e-06 0
0.000722212 5.51068e-06 0
0.000711402 5.60421e-06 0
0.000711402 5.60421e-06 0
0.000700419 5.69933e-06 0
0.000700419 5.69933e-06 0
0.00068926 5.79592e-06 0
0.00068926 5.79592e-06 0
0.000677922 5.89385e-06 0
0.000677922 5.89385e-06 0
0.0006664 5.99296e-06 0
0.0006664 5.99296e-06 0
0.00065469 6.09307e-06 0
0.00065469 6.09307e-06 0
0.000642789 6.19397e-06 0
0.000642789 6.19397e-06 0
0.000630695 6.29544e-06 0
0.000630695 6.29544e-06 0
0.000618403 6.3972e-06 0
0.000618403 6.3972e-06 0
0.000605912 6.49898e-06 0
0.000605912 6.49898e-06 0
0.00059322 6.60047e-06 0
0.00059322 6.60047e-06 0
0.000580324 6.70136e-06 0
0.000580324 6.70136e-06 0
0.000567224 6.80133e-06 0
0.000567224 6.80133e-06 0
0.000553918 6.90015e-06 0
0.000553918 6.90015e-06 0
0.000540408 6.9975e-06 0
0.000540408 6.9975e-06 0
0.000526694 7.09302e-06 0
0.000526694 7.09302e-06 0
0.000512778 7.18555e-06 0
0.000512778 7.18555e-06 0
0.000498662 7.27356e-06 0
0.000498662 7.27356e-06 0
0.000484348 7.3559e-06 0
0.000484348 7.3559e-06 0
0.000469842 7.43167e-06 0
0.000469842 7.43167e-06 0
0.000455146 7.5001e-06 0
0.000455146 7.5001e-06 0
0.000440269 7.56046e-06 0
0.000440269 7.56046e-06 0
0.000425216 7.61202e-06 0
0.000425216 7.61202e-06 0
0.000409997 7.654e-06 0
0.000409997 7.654e-06 0
0.00039462 7.68562e-06 0
0.00039462 7.68562e-06 0
0.000379098 7.7061e-06 0
0.000379098 7.7061e-06 0
0.000363442 7.71467e-06 0
0.000363442 7.71467e-06 0
0.000347666 7.71066e-06 0
0.000347666 7.71066e-06 0
0.000331784 7.69343e-06 0
0.000331784 7.69343e-06 0
0.000315812 7.66251e-06 0
0.000315812 7.66251e-06 0
0.000299766 7.61761e-06 0
0.000299766 7.61761e-06 0
0.000283664 7.55865e-06 0
0.000283664 7.55865e-06 0
0.000267524 7.48582e-06 0
0.000267524 7.48582e-06 0
0.000251364 7.39958e-06 0
0.000251364 7.39958e-06 0
0.000235202 7.30073e-06 0
0.000235202 7.30073e-06 0
0.000219055 7.1904e-06 0
0.000219055 7.1904e-06 0
0.000202941 7.0701e-06 0
0.000202941 7.0701e-06 0
0.000186875 6.94172e-06 0
0.000186875 6.94172e-06 0
0.00017087 6.80751e-06 0
0.00017087 6.80751e-06 0
0.000154938 6.67003e-06 0
0.000154938 6.67003e-06 0
0.000139088 6.53217e-06 0
0.000139088 6.53217e-06 0
0.000123325 6.39701e-06 0
0.000123325 6.39701e-06 0
0.000107653 6.26775e-06 0
0.000107653 6.26775e-06 0
9.20696e-05 6.14765e-06 0
9.20696e-05 6.14765e-06 0
7.65714e-05 6.03984e-06 0
7.65714e-05 6.03984e-06 0
6.11505e-05 5.9473e-06 0
6.11505e-05 5.9473e-06 0
4.57957e-05 5.87197e-06 0
4.57957e-05 5.87197e-06 0
3.04952e-05 5.81405e-06 0
3.04952e-05 5.81405e-06 0
1.52308e-05 5.78102e-06 0
1.52308e-05 5.78102e-06 0
7.60449e-06 5.77267e-06 0
7.60449e-06 5.77267e-06 0
8.98503e-06 1.53326e-05 0
8.98503e-06 1.53326e-05 0
1.02608e-05 3.587e-05 0
1.02608e-05 3.587e-05 0
9.95842e-06 5.64603e-05 0
9.95842e-06 5.64603e-05 0
9.67291e-06 7.5821e-05 0
9.67291e-06 7.5821e-05 0
9.57e-06 9.51523e-05 0
9.57e-06 9.51523e-05 0
9.57061e-06 0.000114312 0
9.57061e-06 0.000114312 0
9.61315e-06 0.000133518 0
9.61315e-06 0.000133518 0
9.67202e-06 0.000152841 0
9.67202e-06 0.000152841 0
9.73985e-06 0.000172295 0
9.73985e-06 0.000172295 0
9.81558e-06 0.00019189 0
9.81558e-06 0.00019189 0
9.8997e-06 0.000211645 0
9.8997e-06 0.000211645 0
9.99295e-06 0.000231577 0
9.99295e-06 0.000231577 0
1.0096e-05 0.000251705 0
1.0096e-05 0.000251705 0
1.02096e-05 0.000272049 0
1.02096e-05 0.000272049 0
1.03343e-05 0.00029263 0
1.03343e-05 0.00029263 0
1.04711e-05 0.000313473 0
1.04711e-05 0.000313473 0
1.06208e-05 0.000334602 0
1.06208e-05 0.000334602 0
1.07843e-05 0.000356043 0
1.07843e-05 0.000356043 0
1.0963e-05 0.000377825 0
1.0963e-05 0.000377825 0
1.11581e-05 0.000399981 0
1.11581e-05 0.000399981 0
1.13704e-05 0.000422542 0
1.13704e-05 0.000422542 0
1.16033e-05 0.000445549 0
1.16033e-05 0.000445549 0
1.18564e-05 0.000469038 0
1.18564e-05 0.000469038 0
1.21337e-05 0.000493059 0
1.21337e-05 0.000493059 0
1.24378e-05 0.000517657 0
1.24378e-05 0.000517657 0
1.2771e-05 0.000542892 0
1.2771e-05 0.000542892 0
1.31335e-05 0.000568819 0
1.31335e-05 0.000568819 0
1.35409e-05 0.000595518 0
1.35409e-05 0.000595518 0
1.39801e-05 0.000623049 0
1.39801e-05 0.000623049 0
1.44763e-05 0.000651527 0
1.44763e-05 0.000651527 0
1.50134e-05 0.000681019 0
1.50134e-05 0.000681019 0
1.5641e-05 0.000711692 0
1.5641e-05 0.000711692 0
1.62983e-05 0.000743601 0
1.62983e-05 0.000743601 0
1.70984e-05 0.000777022 0
1.70984e-05 0.000777022 0
1.792e-05 0.000811974 0
1.792e-05 0.000811974 0
1.90168e-05 0.000848931 0
1.90168e-05 0.000848931 0
1.99982e-05 0.000887792 0
1.99982e-05 0.000887792 0
2.15576e-05 0.00092938 0
2.15576e-05 0.00092938 0
2.27782e-05 0.000973433 0
2.27782e-05 0.000973433 0
2.51748e-05 0.00102139 0
2.51748e-05 0.00102139 0
2.6668e-05 0.00107264 0
2.6668e-05 0.00107264 0
3.06036e-05 0.00112981 0
3.06036e-05 0.00112981 0
3.22842e-05 0.00119156 0
3.22842e-05 0.00119156 0
3.981e-05 0.00126314 0
3.981e-05 0.00126314 0
4.17319e-05 0.00134241 0
4.17319e-05 0.00134241 0
5.84786e-05 0.00143948 0
5.84786e-05 0.00143948 0
6.3217e-05 0.00155469 0
6.3217e-05 0.00155469 0
0.000109758 0.00170649 0
0.000109758 0.00170649 0
0.000136567 0.00191028 0
0.000136567 0.00191028 0
7.80638e-05 0.0011363 0
7.80638e-05 0.0011363 0
-0.000385836 -6.92309e-05 0
-0.000385836 -6.92309e-05 0
-0.000243306 -0.000497881 0
-0.000243306 -0.000497881 0
0.000458472 -0.000446981 0
0.000458472 -0.000446981 0
0.000602338 -0.000226711 0
0.000602338 -0.000226711 0
0.000473746 5.03962e-06 0
0.000473746 5.03962e-06 0
-0.000151142 0.000352051 0
-0.000151142 0.000352051 0
-0.00108228 0.000512739 0
-0.00108228 0.000512739 0
-0.00192068 0.000446079 0
-0.00192068 0.000446079 0
-0.00259504 0.000346148 0
-0.00259504 0.000346148 0
-0.00309639 0.000238824 0
-0.00309639 0.000238824 0
-0.00340111 0.000130537 0
-0.00340111 0.000130537 0
-0.00351481 2.90586e-05 0
-0.00351481 2.90586e-05 0
-0.00345397 -5.91287e-05 0
-0.00345397 -5.91287e-05 0
-0.00324948 -0.000129777 0
-0.00324948 -0.000129777 0
-0.00293094 -0.000181726 0
-0.00293094 -0.000181726 0
-0.00253181 -0.00021524 0
-0.00253181 -0.00021524 0
-0.00208591 -0.000232473 0
-0.00208591 -0.000232473 0
-0.00162185 -0.000236663 0
-0.00162185 -0.000236663 0
-0.0011611 -0.000230812 0
-0.0011611 -0.000230812 0
-0.000719519 -0.000218894 0
-0.000719519 -0.000218894 0
-0.000307575 -0.000200885 0
-0.000307575 -0.000200885 0
5.72246e-05 -0.00017127 0
5.72246e-05 -0.00017127 0
0.000381021 -0.000165954 0
0.000381021 -0.000165954 0
0.000671745 -0.00014631 0
0.000671745 -0.00014631 0
0.000496865 -8.31371e-05 0
0.000496865 -8.31371e-05 0
-2.45803e-06 1.72372e-06 0
-2.45803e-06 1.72372e-06 0
-2.47799e-06 3.45321e-06 0
-2.47799e-06 3.45321e-06 0
-2.53319e-06 6.97106e-06 0
-2.53319e-06 6.97106e-06 0
-2.62461e-06 1.06471e-05 0
-2.62461e-06 1.06471e-05 0
-2.75713e-06 1.45618e-05 0
-2.75713e-06 1.45618e-05 0
-2.93008e-06 1.87989e-05 0
-2.93008e-06 1.87989e-05 0
-3.1457e-06 2.34456e-05 0
-3.1457e-06 2.34456e-05 0
-3.40541e-06 2.85925e-05 0
-3.40541e-06 2.85925e-05 0
-3.71179e-06 3.43357e-05 0
-3.71179e-06 3.43357e-05 0
-4.06697e-06 4.07771e-05 0
-4.06697e-06 4.07771e-05 0
-4.47368e-06 4.80276e-05 0
-4.47368e-06 4.80276e-05 0
-4.93662e-06 5.62045e-05 0
-4.93662e-06 5.62045e-05 0
-5.45935e-06 6.54353e-05 0
-5.45935e-06 6.54353e-05 0
-6.04722e-06 7.58595e-05 0
-6.04722e-06 7.58595e-05 0
-6.70612e-06 8.76265e-05 0
-6.70612e-06 8.76265e-05 0
-7.44188e-06 0.0001009 0
-7.44188e-06 0.0001009 0
-8.26153e-06 0.000115856 0
-8.26153e-06 0.000115856 0
-9.17136e-06 0.000132686 0
-9.17136e-06 0.000132686 0
-1.01778e-05 0.000151596 0
-1.01778e-05 0.000151596 0
-1.12869e-05 0.000172799 0
-1.12869e-05 0.000172799 0
-1.25022e-05 0.000196528 0
-1.25022e-05 0.000196528 0
-1.38249e-05 0.000222997 0
-1.38249e-05 0.000222997 0
-1.52496e-05 0.000252457 0
-1.52496e-05 0.000252457 0
-1.677e-05 0.000285074 0
-1.677e-05 0.000285074 0
-1.83574e-05 0.000321085 0
-1.83574e-05 0.000321085 0
-2.00038e-05 0.000360523 0
-2.00038e-05 0.000360523 0
-2.16068e-05 0.000403527 0
-2.16068e-05 0.000403527 0
-2.31813e-05 0.000449863 0
-2.31813e-05 0.000449863 0
-2.45708e-05 0.000499397 0
-2.45708e-05 0.000499397 0
-2.55659e-05 0.000551598 0
-2.55659e-05 0.000551598 0
-2.62478e-05 0.000605604 0
-2.62478e-05 0.000605604 0
-2.63892e-05 0.000660693 0
-2.63892e-05 0.000660693 0
-2.55578e-05 0.000715478 0
-2.55578e-05 0.000715478 0
-2.36417e-05 0.000767694 0
-2.36417e-05 0.000767694 0
-2.07084e-05 0.000815415 0
-2.07084e-05 0.000815415 0
-1.65793e-05 0.000856 0
-1.65793e-05 0.000856 0
-1.09196e-05 0.000886873 0
-1.09196e-05 0.000886873 0
-3.38396e-06 0.00090452 0
-3.38396e-06 0.00090452 0
6.19343e-06 0.000906638 0
6.19343e-06 0.000906638 0
1.72351e-05 0.000888677 0
1.72351e-05 0.000888677 0
2.93059e-05 0.000851532 0
2.93059e-05 0.000851532 0
4.13854e-05 0.000789898 0
4.13854e-05 0.000789898 0
5.4584e-05 0.000709988 0
5.4584e-05 0.000709988 0
6.74563e-05 0.000599996 0
6.74563e-05 0.000599996 0
8.2048e-05 0.000482137 0
8.2048e-05 0.000482137 0
8.69861e-05 0.000321522 0
8.69861e-05 0.000321522 0
9.36299e-05 0.000190381 0
9.36299e-05 0.000190381 0
-2.68889e-06 2.61832e-07 0
-2.68889e-06 2.61832e-07 0
-0.00012817 1.56205e-05 0
-0.00012817 1.56205e-05 0
2.07055e-05 7.49496e-05 0
2.07055e-05 7.49496e-05 0
-3.44663e-06 1.32492e-06 0
-3.44663e-06 1.32492e-06 0
-5.30118e-06 9.9129e-07 0
-5.30118e-06 9.9129e-07 0
-7.38488e-06 1.0429e-06 0
-7.38488e-06 1.0429e-06 0
-9.45865e-06 9.54687e-07 0
-9.45865e-06 9.54687e-07 0
-1.11849e-05 7.80807e-07 0
-1.11849e-05 7.80807e-07 0
-1.25606e-05 5.61834e-07 0
-1.25606e-05 5.61834e-07 0
-1.34126e-05 3.0816e-07 0
-1.34126e-05 3.0816e-07 0
-1.37632e-05 2.40843e-08 0
-1.37632e-05 2.40843e-08 0
-1.3486e-05 -2.88329e-07 0
-1.3486e-05 -2.88329e-07 0
-1.25709e-05 -6.25155e-07 0
-1.25709e-05 -6.25155e-07 0
-1.09498e-05 -9.83479e-07 0
-1.09498e-05 -9.83479e-07 0
-8.59618e-06 -1.35851e-06 0
-8.59618e-06 -1.35851e-06 0
-5.47281e-06 -1.74711e-06 0
-5.47281e-06 -1.74711e-06 0
-1.55311e-06 -2.14489e-06 0
-1.55311e-06 -2.14489e-06 0
3.17952e-06 -2.54818e-06 0
3.17952e-06 -2.54818e-06 0
8.72386e-06 -2.95299e-06 0
8.72386e-06 -2.95299e-06 0
1.50762e-05 -3.35453e-06 0
1.50762e-05 -3.35453e-06 0
2.22281e-05 -3.74936e-06 0
2.22281e-05 -3.74936e-06 0
3.01624e-05 -4.13402e-06 0
3.01624e-05 -4.13402e-06 0
3.88551e-05 -4.50532e-06 0
3.88551e-05 -4.50532e-06 0
4.82763e-05 -4.86038e-06 0
4.82763e-05 -4.86038e-06 0
5.83906e-05 -5.19671e-06 0
5.83906e-05 -5.19671e-06 0
6.91579e-05 -5.51218e-06 0
6.91579e-05 -5.51218e-06 0
8.05343e-05 -5.80506e-06 0
8.05343e-05 -5.80506e-06 0
9.24727e-05 -6.07399e-06 0
9.24727e-05 -6.07399e-06 0
0.000104924 -6.31804e-06 0
0.000104924 -6.31804e-06 0
0.000117837 -6.53659e-06 0
0.000117837 -6.53659e-06 0
0.000131161 -6.72941e-06 0
0.000131161 -6.72941e-06 0
0.000144844 -6.89655e-06 0
0.000144844 -6.89655e-06 0
0.000158835 -7.03833e-06 0
0.000158835 -7.03833e-06 0
0.000173084 -7.15536e-06 0
0.000173084 -7.15536e-06 0
0.000187541 -7.2484e-06 0
0.000187541 -7.2484e-06 0
0.000202161 -7.31842e-06 0
0.000202161 -7.31842e-06 0
0.000216898 -7.36654e-06 0
0.000216898 -7.36654e-06 0
0.00023171 -7.39395e-06 0
0.00023171 -7.39395e-06 0
0.000246558 -7.40197e-06 0
0.000246558 -7.40197e-06 0
0.000261403 -7.39193e-06 0
0.000261403 -7.39193e-06 0
0.00027621 -7.36523e-06 0
0.00027621 -7.36523e-06 0
0.000290949 -7.32325e-06 0
0.000290949 -7.32325e-06 0
0.000305588 -7.26737e-06 0
0.000305588 -7.26737e-06 0
0.000320103 -7.19893e-06 0
0.000320103 -7.19893e-06 0
0.000334468 -7.11923e-06 0
0.000334468 -7.11923e-06 0
0.000348664 -7.02953e-06 0
0.000348664 -7.02953e-06 0
0.00036267 -6.93102e-06 0
0.00036267 -6.93102e-06 0
0.00037647 -6.82484e-06 0
0.00037647 -6.82484e-06 0
0.000390051 -6.71205e-06 0
0.000390051 -6.71205e-06 0
0.000403399 -6.59363e-06 0
0.000403399 -6.59363e-06 0
0.000416505 -6.47052e-06 0
0.000416505 -6.47052e-06 0
0.00042936 -6.34356e-06 0
0.00042936 -6.34356e-06 0
0.000441957 -6.21353e-06 0
0.000441957 -6.21353e-06 0
0.00045429 -6.08115e-06 0
0.00045429 -6.08115e-06 0
0.000466356 -5.94706e-06 0
0.000466356 -5.94706e-06 0
0.000478152 -5.81184e-06 0
0.000478152 -5.81184e-06 0
0.000489676 -5.67603e-06 0
0.000489676 -5.67603e-06 0
0.000500928 -5.5401e-06 0
0.000500928 -5.5401e-06 0
0.000511907 -5.40445e-06 0
0.000511907 -5.40445e-06 0
0.000522615 -5.26946e-06 0
0.000522615 -5.26946e-06 0
0.000533053 -5.13545e-06 0
0.000533053 -5.13545e-06 0
0.000543223 -5.0027e-06 0
0.000543223 -5.0027e-06 0
0.000553129 -4.87146e-06 0
0.000553129 -4.87146e-06 0
0.000562773 -4.74194e-06 0
0.000562773 -4.74194e-06 0
0.000572159 -4.61431e-06 0
0.000572159 -4.61431e-06 0
0.000581292 -4.48872e-06 0
0.000581292 -4.48872e-06 0
0.000590175 -4.36529e-06 0
0.000590175 -4.36529e-06 0
0.000598812 -4.24412e-06 0
0.000598812 -4.24412e-06 0
0.000607209 -4.1253e-06 0
0.000607209 -4.1253e-06 0
0.00061537 -4.00887e-06 0
0.00061537 -4.00887e-06 0
0.0006233 -3.89488e-06 0
0.0006233 -3.89488e-06 0
0.000631004 -3.78337e-06 0
0.000631004 -3.78337e-06 0
0.000638487 -3.67433e-06 0
0.000638487 -3.67433e-06 0
0.000645754 -3.56778e-06 0
0.000645754 -3.56778e-06 0
0.000652809 -3.4637e-06 0
0.000652809 -3.4637e-06 0
0.000659659 -3.36209e-06 0
0.000659659 -3.36209e-06 0
0.000666307 -3.26291e-06 0
0.000666307 -3.26291e-06 0
0.000672758 -3.16614e-06 0
0.000672758 -3.16614e-06 0
0.000679018 -3.07173e-06 0
0.000679018 -3.07173e-06 0
0.000685091 -2.97966e-06 0
0.000685091 -2.97966e-06 0
0.000690981 -2.88987e-06 0
0.000690981 -2.88987e-06 0
0.000696694 -2.80231e-06 0
0.000696694 -2.80231e-06 0
0.000702233 -2.71693e-06 0
0.000702233 -2.71693e-06 0
0.000707604 -2.63367e-06 0
0.000707604 -2.63367e-06 0
0.000712809 -2.5525e-06 0
0.000712809 -2.5525e-06 0
0.000717854 -2.47332e-06 0
0.000717854 -2.47332e-06 0
0.000722741 -2.39612e-06 0
0.000722741 -2.39612e-06 0
0.000727476 -2.32079e-06 0
0.000727476 -2.32079e-06 0
0.000732061 -2.24733e-06 0
0.000732061 -2.24733e-06 0
0.000736502 -2.17557e-06 0
0.000736502 -2.17557e-06 0
0.000740797 -2.10564e-06 0
0.000740797 -2.10564e-06 0
0.000744961 -2.03718e-06 0
0.000744961 -2.03718e-06 0
0.000748977 -1.97058e-06 0
0.000748977 -1.97058e-06 0
0.000752879 -1.90509e-06 0
0.000752879 -1.90509e-06 0
0.000756623 -1.84171e-06 0
0.000756623 -1.84171e-06 0
0.000760287 -1.77874e-06 0
0.000760287 -1.77874e-06 0
0.000763753 -1.71864e-06 0
0.000763753 -1.71864e-06 0
0.000767214 -1.6575e-06 0
0.000767214 -1.6575e-06 0
0.000770375 -1.60112e-06 0
0.000770375 -1.60112e-06 0
0.000773699 -1.5405e-06 0
0.000773699 -1.5405e-06 0
0.00077647 -1.48926e-06 0
0.00077647 -1.48926e-06 0
0.978628 -0.00172246 0
0.978628 -0.00172246 0
1.95648 -0.00344345 0
1.95648 -0.00344345 0
