# vtk DataFile Version 2.0
sampleSurface
ASCII
DATASET POLYDATA
POINTS 652 double
0 0 0
0.02 0 0
0.02 0 0.1
0 0 0.1
0.04 0 0
0.04 0 0.1
0.06 0 0
0.06 0 0.1
0.08 0 0
0.08 0 0.1
0.1 0 0
0.1 0 0.1
0.12 0 0
0.12 0 0.1
0.14 0 0
0.14 0 0.1
0.16 0 0
0.16 0 0.1
0.18 0 0
0.18 0 0.1
0.2 0 0
0.2 0 0.1
0.22 0 0
0.22 0 0.1
0.24 0 0
0.24 0 0.1
0.26 0 0
0.26 0 0.1
0.28 0 0
0.28 0 0.1
0.3 0 0
0.3 0 0.1
0.32 0 0
0.32 0 0.1
0.34 0 0
0.34 0 0.1
0.36 0 0
0.36 0 0.1
0.38 0 0
0.38 0 0.1
0.4 0 0
0.4 0 0.1
0.42 0 0
0.42 0 0.1
0.44 0 0
0.44 0 0.1
0.46 0 0
0.46 0 0.1
0.48 0 0
0.48 0 0.1
0.5 0 0
0.5 0 0.1
0.52 0 0
0.52 0 0.1
0.54 0 0
0.54 0 0.1
0.56 0 0
0.56 0 0.1
0.58 0 0
0.58 0 0.1
0.6 0 0
0.6 0 0.1
0.62 0 0
0.62 0 0.1
0.64 0 0
0.64 0 0.1
0.66 0 0
0.66 0 0.1
0.68 0 0
0.68 0 0.1
0.7 0 0
0.7 0 0.1
0.72 0 0
0.72 0 0.1
0.74 0 0
0.74 0 0.1
0.76 0 0
0.76 0 0.1
0.78 0 0
0.78 0 0.1
0.8 0 0
0.8 0 0.1
0.82 0 0
0.82 0 0.1
0.84 0 0
0.84 0 0.1
0.86 0 0
0.86 0 0.1
0.88 0 0
0.88 0 0.1
0.9 0 0
0.9 0 0.1
0.92 0 0
0.92 0 0.1
0.94 0 0
0.94 0 0.1
0.96 0 0
0.96 0 0.1
0.98 0 0
0.98 0 0.1
1 0 0
1 0 0.1
1.02 0 0
1.02 0 0.1
1.04 0 0
1.04 0 0.1
1.06 0 0
1.06 0 0.1
1.08 0 0
1.08 0 0.1
1.1 0 0
1.1 0 0.1
1.12 0 0
1.12 0 0.1
1.14 0 0
1.14 0 0.1
1.16 0 0
1.16 0 0.1
1.18 0 0
1.18 0 0.1
1.2 0 0
1.2 0 0.1
1.22 0 0
1.22 0 0.1
1.24 0 0
1.24 0 0.1
1.26 0 0
1.26 0 0.1
1.28 0 0
1.28 0 0.1
1.3 0 0
1.3 0 0.1
1.32 0 0
1.32 0 0.1
1.34 0 0
1.34 0 0.1
1.36 0 0
1.36 0 0.1
1.38 0 0
1.38 0 0.1
1.4 0 0
1.4 0 0.1
1.42 0 0
1.42 0 0.1
1.44 0 0
1.44 0 0.1
1.46 0 0
1.46 0 0.1
1.48 0 0
1.48 0 0.1
1.5 0 0
1.5 0 0.1
1.52 0 0
1.52 0 0.1
1.54 0 0
1.54 0 0.1
1.56 0 0
1.56 0 0.1
1.58 0 0
1.58 0 0.1
1.6 0 0
1.6 0 0.1
1.62 0 0
1.62 0 0.1
1.64 0 0
1.64 0 0.1
1.66 0 0
1.66 0 0.1
1.68 0 0
1.68 0 0.1
1.7 0 0
1.7 0 0.1
1.72 0 0
1.72 0 0.1
1.74 0 0
1.74 0 0.1
1.76 0 0
1.76 0 0.1
1.78 0 0
1.78 0 0.1
1.8 0 0
1.8 0 0.1
1.82 0 0
1.82 0 0.1
1.84 0 0
1.84 0 0.1
1.86 0 0
1.86 0 0.1
1.88 0 0
1.88 0 0.1
1.9 0 0
1.9 0 0.1
1.92 0 0
1.92 0 0.1
1.94 0 0
1.94 0 0.1
1.96 0 0
1.96 0 0.1
1.98 0 0
1.98 0 0.1
2 0 0
2 0 0.1
2 0.02 0
2 0.02 0.1
2 0.04 0
2 0.04 0.1
2 0.06 0
2 0.06 0.1
2 0.08 0
2 0.08 0.1
2 0.1 0
2 0.1 0.1
2 0.12 0
2 0.12 0.1
2 0.14 0
2 0.14 0.1
2 0.16 0
2 0.16 0.1
2 0.18 0
2 0.18 0.1
2 0.2 0
2 0.2 0.1
2 0.22 0
2 0.22 0.1
2 0.24 0
2 0.24 0.1
2 0.26 0
2 0.26 0.1
2 0.28 0
2 0.28 0.1
2 0.3 0
2 0.3 0.1
2 0.32 0
2 0.32 0.1
2 0.34 0
2 0.34 0.1
2 0.36 0
2 0.36 0.1
2 0.38 0
2 0.38 0.1
2 0.4 0
2 0.4 0.1
2 0.42 0
2 0.42 0.1
2 0.44 0
2 0.44 0.1
2 0.46 0
2 0.46 0.1
2 0.48 0
2 0.48 0.1
2 0.5 0
2 0.5 0.1
2 0.52 0
2 0.52 0.1
2 0.54 0
2 0.54 0.1
2 0.56 0
2 0.56 0.1
2 0.58 0
2 0.58 0.1
2 0.6 0
2 0.6 0.1
2 0.62 0
2 0.62 0.1
2 0.64 0
2 0.64 0.1
2 0.66 0
2 0.66 0.1
2 0.68 0
2 0.68 0.1
2 0.7 0
2 0.7 0.1
2 0.72 0
2 0.72 0.1
2 0.74 0
2 0.74 0.1
2 0.76 0
2 0.76 0.1
2 0.78 0
2 0.78 0.1
2 0.8 0
2 0.8 0.1
2 0.82 0
2 0.82 0.1
2 0.84 0
2 0.84 0.1
2 0.86 0
2 0.86 0.1
2 0.88 0
2 0.88 0.1
2 0.9 0
2 0.9 0.1
2 0.92 0
2 0.92 0.1
2 0.94 0
2 0.94 0.1
2 0.96 0
2 0.96 0.1
2 0.98 0
2 0.98 0.1
2 1 0
2 1 0.1
2.02 1 0
2.02 1 0.1
2.04 1 0
2.04 1 0.1
2.06 1 0
2.06 1 0.1
2.08 1 0
2.08 1 0.1
2.1 1 0
2.1 1 0.1
2.12 1 0
2.12 1 0.1
2.14 1 0
2.14 1 0.1
2.16 1 0
2.16 1 0.1
2.18 1 0
2.18 1 0.1
2.2 1 0
2.2 1 0.1
2.22 1 0
2.22 1 0.1
2.24 1 0
2.24 1 0.1
2.26 1 0
2.26 1 0.1
2.28 1 0
2.28 1 0.1
2.3 1 0
2.3 1 0.1
2.32 1 0
2.32 1 0.1
2.34 1 0
2.34 1 0.1
2.36 1 0
2.36 1 0.1
2.38 1 0
2.38 1 0.1
2.4 1 0
2.4 1 0.1
2.42 1 0
2.42 1 0.1
2.44 1 0
2.44 1 0.1
2.46 1 0
2.46 1 0.1
2.48 1 0
2.48 1 0.1
2.5 1 0
2.5 1 0.1
2.5 0 0
2.5 0 0.1
2.5 0.02 0.1
2.5 0.02 0
2.5 0.04 0.1
2.5 0.04 0
2.5 0.06 0.1
2.5 0.06 0
2.5 0.08 0.1
2.5 0.08 0
2.5 0.1 0.1
2.5 0.1 0
2.5 0.12 0.1
2.5 0.12 0
2.5 0.14 0.1
2.5 0.14 0
2.5 0.16 0.1
2.5 0.16 0
2.5 0.18 0.1
2.5 0.18 0
2.5 0.2 0.1
2.5 0.2 0
2.5 0.22 0.1
2.5 0.22 0
2.5 0.24 0.1
2.5 0.24 0
2.5 0.26 0.1
2.5 0.26 0
2.5 0.28 0.1
2.5 0.28 0
2.5 0.3 0.1
2.5 0.3 0
2.5 0.32 0.1
2.5 0.32 0
2.5 0.34 0.1
2.5 0.34 0
2.5 0.36 0.1
2.5 0.36 0
2.5 0.38 0.1
2.5 0.38 0
2.5 0.4 0.1
2.5 0.4 0
2.5 0.42 0.1
2.5 0.42 0
2.5 0.44 0.1
2.5 0.44 0
2.5 0.46 0.1
2.5 0.46 0
2.5 0.48 0.1
2.5 0.48 0
2.5 0.5 0.1
2.5 0.5 0
2.5 0.52 0.1
2.5 0.52 0
2.5 0.54 0.1
2.5 0.54 0
2.5 0.56 0.1
2.5 0.56 0
2.5 0.58 0.1
2.5 0.58 0
2.5 0.6 0.1
2.5 0.6 0
2.5 0.62 0.1
2.5 0.62 0
2.5 0.64 0.1
2.5 0.64 0
2.5 0.66 0.1
2.5 0.66 0
2.5 0.68 0.1
2.5 0.68 0
2.5 0.7 0.1
2.5 0.7 0
2.5 0.72 0.1
2.5 0.72 0
2.5 0.74 0.1
2.5 0.74 0
2.5 0.76 0.1
2.5 0.76 0
2.5 0.78 0.1
2.5 0.78 0
2.5 0.8 0.1
2.5 0.8 0
2.5 0.82 0.1
2.5 0.82 0
2.5 0.84 0.1
2.5 0.84 0
2.5 0.86 0.1
2.5 0.86 0
2.5 0.88 0.1
2.5 0.88 0
2.5 0.9 0.1
2.5 0.9 0
2.5 0.92 0.1
2.5 0.92 0
2.5 0.94 0.1
2.5 0.94 0
2.5 0.96 0.1
2.5 0.96 0
2.5 0.98 0.1
2.5 0.98 0
2.52 0 0
2.52 0 0.1
2.54 0 0
2.54 0 0.1
2.56 0 0
2.56 0 0.1
2.58 0 0
2.58 0 0.1
2.6 0 0
2.6 0 0.1
2.62 0 0
2.62 0 0.1
2.64 0 0
2.64 0 0.1
2.66 0 0
2.66 0 0.1
2.68 0 0
2.68 0 0.1
2.7 0 0
2.7 0 0.1
2.72 0 0
2.72 0 0.1
2.74 0 0
2.74 0 0.1
2.76 0 0
2.76 0 0.1
2.78 0 0
2.78 0 0.1
2.8 0 0
2.8 0 0.1
2.82 0 0
2.82 0 0.1
2.84 0 0
2.84 0 0.1
2.86 0 0
2.86 0 0.1
2.88 0 0
2.88 0 0.1
2.9 0 0
2.9 0 0.1
2.92 0 0
2.92 0 0.1
2.94 0 0
2.94 0 0.1
2.96 0 0
2.96 0 0.1
2.98 0 0
2.98 0 0.1
3 0 0
3 0 0.1
3.02 0 0
3.02 0 0.1
3.04 0 0
3.04 0 0.1
3.06 0 0
3.06 0 0.1
3.08 0 0
3.08 0 0.1
3.1 0 0
3.1 0 0.1
3.12 0 0
3.12 0 0.1
3.14 0 0
3.14 0 0.1
3.16 0 0
3.16 0 0.1
3.18 0 0
3.18 0 0.1
3.2 0 0
3.2 0 0.1
3.22 0 0
3.22 0 0.1
3.24 0 0
3.24 0 0.1
3.26 0 0
3.26 0 0.1
3.28 0 0
3.28 0 0.1
3.3 0 0
3.3 0 0.1
3.32 0 0
3.32 0 0.1
3.34 0 0
3.34 0 0.1
3.36 0 0
3.36 0 0.1
3.38 0 0
3.38 0 0.1
3.4 0 0
3.4 0 0.1
3.42 0 0
3.42 0 0.1
3.44 0 0
3.44 0 0.1
3.46 0 0
3.46 0 0.1
3.48 0 0
3.48 0 0.1
3.5 0 0
3.5 0 0.1
3.52 0 0
3.52 0 0.1
3.54 0 0
3.54 0 0.1
3.56 0 0
3.56 0 0.1
3.58 0 0
3.58 0 0.1
3.6 0 0
3.6 0 0.1
3.62 0 0
3.62 0 0.1
3.64 0 0
3.64 0 0.1
3.66 0 0
3.66 0 0.1
3.68 0 0
3.68 0 0.1
3.7 0 0
3.7 0 0.1
3.72 0 0
3.72 0 0.1
3.74 0 0
3.74 0 0.1
3.76 0 0
3.76 0 0.1
3.78 0 0
3.78 0 0.1
3.8 0 0
3.8 0 0.1
3.82 0 0
3.82 0 0.1
3.84 0 0
3.84 0 0.1
3.86 0 0
3.86 0 0.1
3.88 0 0
3.88 0 0.1
3.9 0 0
3.9 0 0.1
3.92 0 0
3.92 0 0.1
3.94 0 0
3.94 0 0.1
3.96 0 0
3.96 0 0.1
3.98 0 0
3.98 0 0.1
4 0 0
4 0 0.1
4.02 0 0
4.02 0 0.1
4.04 0 0
4.04 0 0.1
4.06 0 0
4.06 0 0.1
4.08 0 0
4.08 0 0.1
4.1 0 0
4.1 0 0.1
4.12 0 0
4.12 0 0.1
4.14 0 0
4.14 0 0.1
4.16 0 0
4.16 0 0.1
4.18 0 0
4.18 0 0.1
4.2 0 0
4.2 0 0.1
4.22 0 0
4.22 0 0.1
4.24 0 0
4.24 0 0.1
4.26 0 0
4.26 0 0.1
4.28 0 0
4.28 0 0.1
4.3 0 0
4.3 0 0.1
4.32 0 0
4.32 0 0.1
4.34 0 0
4.34 0 0.1
4.36 0 0
4.36 0 0.1
4.38 0 0
4.38 0 0.1
4.4 0 0
4.4 0 0.1
4.42 0 0
4.42 0 0.1
4.44 0 0
4.44 0 0.1
4.46 0 0
4.46 0 0.1
4.48 0 0
4.48 0 0.1
4.5 0 0
4.5 0 0.1

POLYGONS 325 1625
4 0 1 2 3
4 1 4 5 2
4 4 6 7 5
4 6 8 9 7
4 8 10 11 9
4 10 12 13 11
4 12 14 15 13
4 14 16 17 15
4 16 18 19 17
4 18 20 21 19
4 20 22 23 21
4 22 24 25 23
4 24 26 27 25
4 26 28 29 27
4 28 30 31 29
4 30 32 33 31
4 32 34 35 33
4 34 36 37 35
4 36 38 39 37
4 38 40 41 39
4 40 42 43 41
4 42 44 45 43
4 44 46 47 45
4 46 48 49 47
4 48 50 51 49
4 50 52 53 51
4 52 54 55 53
4 54 56 57 55
4 56 58 59 57
4 58 60 61 59
4 60 62 63 61
4 62 64 65 63
4 64 66 67 65
4 66 68 69 67
4 68 70 71 69
4 70 72 73 71
4 72 74 75 73
4 74 76 77 75
4 76 78 79 77
4 78 80 81 79
4 80 82 83 81
4 82 84 85 83
4 84 86 87 85
4 86 88 89 87
4 88 90 91 89
4 90 92 93 91
4 92 94 95 93
4 94 96 97 95
4 96 98 99 97
4 98 100 101 99
4 100 102 103 101
4 102 104 105 103
4 104 106 107 105
4 106 108 109 107
4 108 110 111 109
4 110 112 113 111
4 112 114 115 113
4 114 116 117 115
4 116 118 119 117
4 118 120 121 119
4 120 122 123 121
4 122 124 125 123
4 124 126 127 125
4 126 128 129 127
4 128 130 131 129
4 130 132 133 131
4 132 134 135 133
4 134 136 137 135
4 136 138 139 137
4 138 140 141 139
4 140 142 143 141
4 142 144 145 143
4 144 146 147 145
4 146 148 149 147
4 148 150 151 149
4 150 152 153 151
4 152 154 155 153
4 154 156 157 155
4 156 158 159 157
4 158 160 161 159
4 160 162 163 161
4 162 164 165 163
4 164 166 167 165
4 166 168 169 167
4 168 170 171 169
4 170 172 173 171
4 172 174 175 173
4 174 176 177 175
4 176 178 179 177
4 178 180 181 179
4 180 182 183 181
4 182 184 185 183
4 184 186 187 185
4 186 188 189 187
4 188 190 191 189
4 190 192 193 191
4 192 194 195 193
4 194 196 197 195
4 196 198 199 197
4 198 200 201 199
4 200 202 203 201
4 202 204 205 203
4 204 206 207 205
4 206 208 209 207
4 208 210 211 209
4 210 212 213 211
4 212 214 215 213
4 214 216 217 215
4 216 218 219 217
4 218 220 221 219
4 220 222 223 221
4 222 224 225 223
4 224 226 227 225
4 226 228 229 227
4 228 230 231 229
4 230 232 233 231
4 232 234 235 233
4 234 236 237 235
4 236 238 239 237
4 238 240 241 239
4 240 242 243 241
4 242 244 245 243
4 244 246 247 245
4 246 248 249 247
4 248 250 251 249
4 250 252 253 251
4 252 254 255 253
4 254 256 257 255
4 256 258 259 257
4 258 260 261 259
4 260 262 263 261
4 262 264 265 263
4 264 266 267 265
4 266 268 269 267
4 268 270 271 269
4 270 272 273 271
4 272 274 275 273
4 274 276 277 275
4 276 278 279 277
4 278 280 281 279
4 280 282 283 281
4 282 284 285 283
4 284 286 287 285
4 286 288 289 287
4 288 290 291 289
4 290 292 293 291
4 292 294 295 293
4 294 296 297 295
4 296 298 299 297
4 298 300 301 299
4 300 302 303 301
4 302 304 305 303
4 304 306 307 305
4 306 308 309 307
4 308 310 311 309
4 310 312 313 311
4 312 314 315 313
4 314 316 317 315
4 316 318 319 317
4 318 320 321 319
4 320 322 323 321
4 322 324 325 323
4 324 326 327 325
4 326 328 329 327
4 328 330 331 329
4 330 332 333 331
4 332 334 335 333
4 334 336 337 335
4 336 338 339 337
4 338 340 341 339
4 340 342 343 341
4 342 344 345 343
4 344 346 347 345
4 346 348 349 347
4 348 350 351 349
4 352 353 354 355
4 355 354 356 357
4 357 356 358 359
4 359 358 360 361
4 361 360 362 363
4 363 362 364 365
4 365 364 366 367
4 367 366 368 369
4 369 368 370 371
4 371 370 372 373
4 373 372 374 375
4 375 374 376 377
4 377 376 378 379
4 379 378 380 381
4 381 380 382 383
4 383 382 384 385
4 385 384 386 387
4 387 386 388 389
4 389 388 390 391
4 391 390 392 393
4 393 392 394 395
4 395 394 396 397
4 397 396 398 399
4 399 398 400 401
4 401 400 402 403
4 403 402 404 405
4 405 404 406 407
4 407 406 408 409
4 409 408 410 411
4 411 410 412 413
4 413 412 414 415
4 415 414 416 417
4 417 416 418 419
4 419 418 420 421
4 421 420 422 423
4 423 422 424 425
4 425 424 426 427
4 427 426 428 429
4 429 428 430 431
4 431 430 432 433
4 433 432 434 435
4 435 434 436 437
4 437 436 438 439
4 439 438 440 441
4 441 440 442 443
4 443 442 444 445
4 445 444 446 447
4 447 446 448 449
4 449 448 450 451
4 451 450 351 350
4 352 452 453 353
4 452 454 455 453
4 454 456 457 455
4 456 458 459 457
4 458 460 461 459
4 460 462 463 461
4 462 464 465 463
4 464 466 467 465
4 466 468 469 467
4 468 470 471 469
4 470 472 473 471
4 472 474 475 473
4 474 476 477 475
4 476 478 479 477
4 478 480 481 479
4 480 482 483 481
4 482 484 485 483
4 484 486 487 485
4 486 488 489 487
4 488 490 491 489
4 490 492 493 491
4 492 494 495 493
4 494 496 497 495
4 496 498 499 497
4 498 500 501 499
4 500 502 503 501
4 502 504 505 503
4 504 506 507 505
4 506 508 509 507
4 508 510 511 509
4 510 512 513 511
4 512 514 515 513
4 514 516 517 515
4 516 518 519 517
4 518 520 521 519
4 520 522 523 521
4 522 524 525 523
4 524 526 527 525
4 526 528 529 527
4 528 530 531 529
4 530 532 533 531
4 532 534 535 533
4 534 536 537 535
4 536 538 539 537
4 538 540 541 539
4 540 542 543 541
4 542 544 545 543
4 544 546 547 545
4 546 548 549 547
4 548 550 551 549
4 550 552 553 551
4 552 554 555 553
4 554 556 557 555
4 556 558 559 557
4 558 560 561 559
4 560 562 563 561
4 562 564 565 563
4 564 566 567 565
4 566 568 569 567
4 568 570 571 569
4 570 572 573 571
4 572 574 575 573
4 574 576 577 575
4 576 578 579 577
4 578 580 581 579
4 580 582 583 581
4 582 584 585 583
4 584 586 587 585
4 586 588 589 587
4 588 590 591 589
4 590 592 593 591
4 592 594 595 593
4 594 596 597 595
4 596 598 599 597
4 598 600 601 599
4 600 602 603 601
4 602 604 605 603
4 604 606 607 605
4 606 608 609 607
4 608 610 611 609
4 610 612 613 611
4 612 614 615 613
4 614 616 617 615
4 616 618 619 617
4 618 620 621 619
4 620 622 623 621
4 622 624 625 623
4 624 626 627 625
4 626 628 629 627
4 628 630 631 629
4 630 632 633 631
4 632 634 635 633
4 634 636 637 635
4 636 638 639 637
4 638 640 641 639
4 640 642 643 641
4 642 644 645 643
4 644 646 647 645
4 646 648 649 647
4 648 650 651 649
POINT_DATA 652
FIELD attributes 1
U 3 652 float
2.49313 -0.00377398 -0.0129251
1.24706 -0.00188689 -0.00646256
1.24706 -0.00188689 -0.00646256
2.49313 -0.00377398 -0.0129251
0.000995456 -1.44855e-06 0
0.000995456 -1.44855e-06 0
0.000994939 -3.06365e-06 0
0.000994939 -3.06365e-06 0
0.000993529 -2.10178e-06 0
0.000993529 -2.10178e-06 0
0.000991367 -3.48326e-07 0
0.000991367 -3.48326e-07 0
0.000989559 9.60279e-07 0
0.000989559 9.60279e-07 0
0.000988929 1.42953e-06 0
0.000988929 1.42953e-06 0
0.000989217 1.10019e-06 0
0.000989217 1.10019e-06 0
0.000989306 5.01984e-07 0
0.000989306 5.01984e-07 0
0.000988029 2.42322e-07 0
0.000988029 2.42322e-07 0
0.000985132 3.7807e-07 0
0.000985132 3.7807e-07 0
0.000981552 3.7684e-07 0
0.000981552 3.7684e-07 0
0.000978552 -1.19327e-07 0
0.000978552 -1.19327e-07 0
0.00097654 -7.22032e-07 0
0.00097654 -7.22032e-07 0
0.00097486 -7.56231e-07 0
0.00097486 -7.56231e-07 0
0.000972616 -8.19511e-08 0
0.000972616 -8.19511e-08 0
0.000969604 7.7664e-07 0
0.000969604 7.7664e-07 0
0.0009664 1.28384e-06 0
0.0009664 1.28384e-06 0
0.000963638 1.51749e-06 0
0.000963638 1.51749e-06 0
0.000961311 2.03576e-06 0
0.000961311 2.03576e-06 0
0.000958789 3.11892e-06 0
0.000958789 3.11892e-06 0
0.000955455 4.28369e-06 0
0.000955455 4.28369e-06 0
0.000951317 4.66167e-06 0
0.000951317 4.66167e-06 0
0.000946977 3.90235e-06 0
0.000946977 3.90235e-06 0
0.000943005 2.70532e-06 0
0.000943005 2.70532e-06 0
0.000939348 2.33764e-06 0
0.000939348 2.33764e-06 0
0.000935319 3.48427e-06 0
0.000935319 3.48427e-06 0
0.00093022 5.5374e-06 0
0.00093022 5.5374e-06 0
0.00092404 7.01726e-06 0
0.00092404 7.01726e-06 0
0.00091755 6.75266e-06 0
0.00091755 6.75266e-06 0
0.000911679 4.84551e-06 0
0.000911679 4.84551e-06 0
0.00090676 2.64303e-06 0
0.00090676 2.64303e-06 0
0.000902223 1.75797e-06 0
0.000902223 1.75797e-06 0
0.0008969 2.9137e-06 0
0.0008969 2.9137e-06 0
0.000889751 5.37749e-06 0
0.000889751 5.37749e-06 0
0.000880589 7.36298e-06 0
0.000880589 7.36298e-06 0
0.000870313 7.26333e-06 0
0.000870313 7.26333e-06 0
0.000860397 4.93763e-06 0
0.000860397 4.93763e-06 0
0.00085199 2.00888e-06 0
0.00085199 2.00888e-06 0
0.000845215 6.86584e-07 0
0.000845215 6.86584e-07 0
0.000839133 1.98869e-06 0
0.000839133 1.98869e-06 0
0.000832444 4.94078e-06 0
0.000832444 4.94078e-06 0
0.000824423 7.4703e-06 0
0.000824423 7.4703e-06 0
0.000815273 8.18866e-06 0
0.000815273 8.18866e-06 0
0.00080565 7.35893e-06 0
0.00080565 7.35893e-06 0
0.000795966 6.26936e-06 0
0.000795966 6.26936e-06 0
0.000786126 5.95382e-06 0
0.000786126 5.95382e-06 0
0.000775759 6.58689e-06 0
0.000775759 6.58689e-06 0
0.000764512 7.7768e-06 0
0.000764512 7.7768e-06 0
0.000752175 9.00067e-06 0
0.000752175 9.00067e-06 0
0.000738791 9.72084e-06 0
0.000738791 9.72084e-06 0
0.000724779 9.50083e-06 0
0.000724779 9.50083e-06 0
0.000710803 8.36154e-06 0
0.000710803 8.36154e-06 0
0.000697297 6.92447e-06 0
0.000697297 6.92447e-06 0
0.000684102 5.92624e-06 0
0.000684102 5.92624e-06 0
0.000670679 5.60628e-06 0
0.000670679 5.60628e-06 0
0.000656688 5.81332e-06 0
0.000656688 5.81332e-06 0
0.000642134 6.67999e-06 0
0.000642134 6.67999e-06 0
0.000626839 8.69436e-06 0
0.000626839 8.69436e-06 0
0.000610075 1.1716e-05 0
0.000610075 1.1716e-05 0
0.000591152 1.43541e-05 0
0.000591152 1.43541e-05 0
0.000570307 1.52162e-05 0
0.000570307 1.52162e-05 0
0.000548457 1.49063e-05 0
0.000548457 1.49063e-05 0
0.000525733 1.5875e-05 0
0.000525733 1.5875e-05 0
0.000500678 1.95841e-05 0
0.000500678 1.95841e-05 0
0.00047154 2.42776e-05 0
0.00047154 2.42776e-05 0
0.000438424 2.64343e-05 0
0.000438424 2.64343e-05 0
0.000403724 2.4346e-05 0
0.000403724 2.4346e-05 0
0.000370387 1.94565e-05 0
0.000370387 1.94565e-05 0
0.000340124 1.44769e-05 0
0.000340124 1.44769e-05 0
0.000313118 1.11773e-05 0
0.000313118 1.11773e-05 0
0.000288705 9.78958e-06 0
0.000288705 9.78958e-06 0
0.00026598 9.61921e-06 0
0.00026598 9.61921e-06 0
0.000244132 9.89477e-06 0
0.000244132 9.89477e-06 0
0.000222604 1.01659e-05 0
0.000222604 1.01659e-05 0
0.000201112 1.02525e-05 0
0.000201112 1.02525e-05 0
0.000179581 1.01283e-05 0
0.000179581 1.01283e-05 0
0.000158071 9.82075e-06 0
0.000158071 9.82075e-06 0
0.00013673 9.35438e-06 0
0.00013673 9.35438e-06 0
0.000115747 8.73809e-06 0
0.000115747 8.73809e-06 0
9.53371e-05 7.97178e-06 0
9.53371e-05 7.97178e-06 0
7.57264e-05 7.05391e-06 0
7.57264e-05 7.05391e-06 0
5.71461e-05 5.98698e-06 0
5.71461e-05 5.98698e-06 0
3.98234e-05 4.78234e-06 0
3.98234e-05 4.78234e-06 0
2.39707e-05 3.47114e-06 0
2.39707e-05 3.47114e-06 0
9.77521e-06 2.09556e-06 0
9.77521e-06 2.09556e-06 0
-2.60995e-06 6.913e-07 0
-2.60995e-06 6.913e-07 0
-1.30709e-05 -7.06041e-07 0
-1.30709e-05 -7.06041e-07 0
-2.153e-05 -2.06339e-06 0
-2.153e-05 -2.06339e-06 0
-2.7954e-05 -3.3549e-06 0
-2.7954e-05 -3.3549e-06 0
-3.23557e-05 -4.55872e-06 0
-3.23557e-05 -4.55872e-06 0
-3.47855e-05 -5.66015e-06 0
-3.47855e-05 -5.66015e-06 0
-3.53217e-05 -6.64944e-06 0
-3.53217e-05 -6.64944e-06 0
-3.40607e-05 -7.50745e-06 0
-3.40607e-05 -7.50745e-06 0
-3.11551e-05 -8.21098e-06 0
-3.11551e-05 -8.21098e-06 0
-2.68079e-05 -8.75236e-06 0
-2.68079e-05 -8.75236e-06 0
-2.1257e-05 -9.15388e-06 0
-2.1257e-05 -9.15388e-06 0
-1.47336e-05 -9.4648e-06 0
-1.47336e-05 -9.4648e-06 0
-7.52571e-06 -9.61046e-06 0
-7.52571e-06 -9.61046e-06 0
-3.79865e-06 -9.61628e-06 0
-3.79865e-06 -9.61628e-06 0
1.35986e-06 -7.51394e-06 0
1.35986e-06 -7.51394e-06 0
9.73155e-06 5.74355e-06 0
9.73155e-06 5.74355e-06 0
1.4283e-05 3.1762e-05 0
1.4283e-05 3.1762e-05 0
1.58393e-05 6.28727e-05 0
1.58393e-05 6.28727e-05 0
1.56845e-05 9.48752e-05 0
1.56845e-05 9.48752e-05 0
1.4724e-05 0.000125369 0
1.4724e-05 0.000125369 0
1.3543e-05 0.000153605 0
1.3543e-05 0.000153605 0
1.24527e-05 0.000179506 0
1.24527e-05 0.000179506 0
1.15903e-05 0.000203476 0
1.15903e-05 0.000203476 0
1.09907e-05 0.000226039 0
1.09907e-05 0.000226039 0
1.06353e-05 0.000247682 0
1.06353e-05 0.000247682 0
1.04811e-05 0.000268837 0
1.04811e-05 0.000268837 0
1.04797e-05 0.000289861 0
1.04797e-05 0.000289861 0
1.05873e-05 0.000311015 0
1.05873e-05 0.000311015 0
1.07681e-05 0.00033247 0
1.07681e-05 0.00033247 0
1.09956e-05 0.000354339 0
1.09956e-05 0.000354339 0
1.12519e-05 0.000376693 0
1.12519e-05 0.000376693 0
1.15257e-05 0.000399576 0
1.15257e-05 0.000399576 0
1.18111e-05 0.000423013 0
1.18111e-05 0.000423013 0
1.21058e-05 0.000447026 0
1.21058e-05 0.000447026 0
1.24101e-05 0.000471632 0
1.24101e-05 0.000471632 0
1.27262e-05 0.000496852 0
1.27262e-05 0.000496852 0
1.30568e-05 0.000522713 0
1.30568e-05 0.000522713 0
1.34065e-05 0.00054925 0
1.34065e-05 0.00054925 0
1.37786e-05 0.000576501 0
1.37786e-05 0.000576501 0
1.41796e-05 0.000604523 0
1.41796e-05 0.000604523 0
1.4612e-05 0.00063337 0
1.4612e-05 0.00063337 0
1.50862e-05 0.000663122 0
1.50862e-05 0.000663122 0
1.56012e-05 0.000693851 0
1.56012e-05 0.000693851 0
1.61771e-05 0.000725675 0
1.61771e-05 0.000725675 0
1.68018e-05 0.000758679 0
1.68018e-05 0.000758679 0
1.75192e-05 0.000793039 0
1.75192e-05 0.000793039 0
1.82896e-05 0.000828842 0
1.82896e-05 0.000828842 0
1.9214e-05 0.000866384 0
1.9214e-05 0.000866384 0
2.01647e-05 0.000905705 0
2.01647e-05 0.000905705 0
2.14298e-05 0.000947339 0
2.14298e-05 0.000947339 0
2.25873e-05 0.000991198 0
2.25873e-05 0.000991198 0
2.44274e-05 0.00103827 0
2.44274e-05 0.00103827 0
2.58263e-05 0.00108814 0
2.58263e-05 0.00108814 0
2.87195e-05 0.00114276 0
2.87195e-05 0.00114276 0
3.02968e-05 0.00120095 0
3.02968e-05 0.00120095 0
3.5352e-05 0.00126662 0
3.5352e-05 0.00126662 0
3.69061e-05 0.0013371 0
3.69061e-05 0.0013371 0
4.67602e-05 0.00142039 0
4.67602e-05 0.00142039 0
4.81434e-05 0.00151169 0
4.81434e-05 0.00151169 0
7.09464e-05 0.00162686 0
7.09464e-05 0.00162686 0
7.46802e-05 0.00176251 0
7.46802e-05 0.00176251 0
0.000140077 0.00194746 0
0.000140077 0.00194746 0
0.000171103 0.00219761 0
0.000171103 0.00219761 0
0.000220426 0.00140662 0
0.000220426 0.00140662 0
-0.000242608 4.40185e-05 0
-0.000242608 4.40185e-05 0
-0.000195463 -0.000398575 0
-0.000195463 -0.000398575 0
2.04095e-05 -7.4913e-05 0
2.04095e-05 -7.4913e-05 0
-0.000535005 0.00030212 0
-0.000535005 0.00030212 0
-0.00108666 0.000360667 0
-0.00108666 0.000360667 0
-0.0017105 0.000324871 0
-0.0017105 0.000324871 0
-0.00214782 0.000246253 0
-0.00214782 0.000246253 0
-0.0024807 0.000171196 0
-0.0024807 0.000171196 0
-0.00268024 0.000105402 0
-0.00268024 0.000105402 0
-0.00278869 4.90606e-05 0
-0.00278869 4.90606e-05 0
-0.00280017 1.60358e-07 0
-0.00280017 1.60358e-07 0
-0.00273497 -4.4719e-05 0
-0.00273497 -4.4719e-05 0
-0.00259072 -8.80415e-05 0
-0.00259072 -8.80415e-05 0
-0.00237089 -0.000129919 0
-0.00237089 -0.000129919 0
-0.0020736 -0.000169624 0
-0.0020736 -0.000169624 0
-0.00170535 -0.000202157 0
-0.00170535 -0.000202157 0
-0.00128365 -0.000219254 0
-0.00128365 -0.000219254 0
-0.000839837 -0.000210481 0
-0.000839837 -0.000210481 0
-0.000410972 -0.000165608 0
-0.000410972 -0.000165608 0
-6.31881e-05 -0.000131645 0
-6.31881e-05 -0.000131645 0
0.00020477 -0.000146049 0
0.00020477 -0.000146049 0
0.000442548 -0.000107603 0
0.000442548 -0.000107603 0
0.000627516 -7.95344e-05 0
0.000627516 -7.95344e-05 0
0.000795638 -0.000137403 0
0.000795638 -0.000137403 0
0.00046148 -0.000201844 0
0.00046148 -0.000201844 0
-7.11768e-06 4.93497e-06 0
-7.11768e-06 4.93497e-06 0
-8.62209e-06 1.38987e-05 0
-8.62209e-06 1.38987e-05 0
-1.00595e-05 3.33864e-05 0
-1.00595e-05 3.33864e-05 0
-9.72352e-06 5.30126e-05 0
-9.72352e-06 5.30126e-05 0
-9.26621e-06 7.1154e-05 0
-9.26621e-06 7.1154e-05 0
-8.95457e-06 8.88509e-05 0
-8.95457e-06 8.88509e-05 0
-8.73173e-06 0.000105972 0
-8.73173e-06 0.000105972 0
-8.5309e-06 0.00012272 0
-8.5309e-06 0.00012272 0
-8.31484e-06 0.000139081 0
-8.31484e-06 0.000139081 0
-8.06761e-06 0.000154993 0
-8.06761e-06 0.000154993 0
-7.78356e-06 0.000170385 0
-7.78356e-06 0.000170385 0
-7.46087e-06 0.000185183 0
-7.46087e-06 0.000185183 0
-7.09905e-06 0.000199308 0
-7.09905e-06 0.000199308 0
-6.69769e-06 0.000212683 0
-6.69769e-06 0.000212683 0
-6.2565e-06 0.000225228 0
-6.2565e-06 0.000225228 0
-5.77585e-06 0.000236864 0
-5.77585e-06 0.000236864 0
-5.25697e-06 0.000247515 0
-5.25697e-06 0.000247515 0
-4.70196e-06 0.000257105 0
-4.70196e-06 0.000257105 0
-4.11405e-06 0.000265562 0
-4.11405e-06 0.000265562 0
-3.49696e-06 0.000272821 0
-3.49696e-06 0.000272821 0
-2.85428e-06 0.00027882 0
-2.85428e-06 0.00027882 0
-2.19101e-06 0.000283514 0
-2.19101e-06 0.000283514 0
-1.50873e-06 0.000286853 0
-1.50873e-06 0.000286853 0
-8.11625e-07 0.000288823 0
-8.11625e-07 0.000288823 0
-9.55107e-08 0.000289372 0
-9.55107e-08 0.000289372 0
6.43735e-07 0.000288543 0
6.43735e-07 0.000288543 0
1.38931e-06 0.000286196 0
1.38931e-06 0.000286196 0
2.11457e-06 0.000282554 0
2.11457e-06 0.000282554 0
2.84494e-06 0.000277367 0
2.84494e-06 0.000277367 0
3.56314e-06 0.000271111 0
3.56314e-06 0.000271111 0
4.27762e-06 0.00026324 0
4.27762e-06 0.00026324 0
4.93964e-06 0.000254645 0
4.93964e-06 0.000254645 0
5.59763e-06 0.000244448 0
5.59763e-06 0.000244448 0
6.15331e-06 0.000233835 0
6.15331e-06 0.000233835 0
6.74897e-06 0.000221784 0
6.74897e-06 0.000221784 0
7.1307e-06 0.000209457 0
7.1307e-06 0.000209457 0
7.42398e-06 0.000196093 0
7.42398e-06 0.000196093 0
8.08179e-06 0.000182845 0
8.08179e-06 0.000182845 0
7.25774e-06 0.000167441 0
7.25774e-06 0.000167441 0
8.89075e-06 0.000155717 0
8.89075e-06 0.000155717 0
9.24541e-06 0.000137544 0
9.24541e-06 0.000137544 0
6.30083e-06 0.000120272 0
6.30083e-06 0.000120272 0
9.25252e-06 0.000114299 0
9.25252e-06 0.000114299 0
1.62818e-05 8.29319e-05 0
1.62818e-05 8.29319e-05 0
8.76241e-06 7.17526e-05 0
8.76241e-06 7.17526e-05 0
4.11315e-06 4.61245e-05 0
4.11315e-06 4.61245e-05 0
1.89959e-05 2.76e-05 0
1.89959e-05 2.76e-05 0
8.22776e-06 -1.22575e-05 0
8.22776e-06 -1.22575e-05 0
1.20406e-05 -5.50762e-06 0
1.20406e-05 -5.50762e-06 0
3.33461e-05 -8.62605e-05 0
3.33461e-05 -8.62605e-05 0
-1.38162e-05 4.96946e-06 0
-1.38162e-05 4.96946e-06 0
-2.76562e-05 5.18081e-06 0
-2.76562e-05 5.18081e-06 0
-4.20779e-05 5.56862e-06 0
-4.20779e-05 5.56862e-06 0
-5.69686e-05 6.04206e-06 0
-5.69686e-05 6.04206e-06 0
-7.25721e-05 6.60545e-06 0
-7.25721e-05 6.60545e-06 0
-8.89389e-05 7.22444e-06 0
-8.89389e-05 7.22444e-06 0
-0.00010612 7.8653e-06 0
-0.00010612 7.8653e-06 0
-0.00012413 8.50159e-06 0
-0.00012413 8.50159e-06 0
-0.000142946 9.11236e-06 0
-0.000142946 9.11236e-06 0
-0.000162541 9.68793e-06 0
-0.000162541 9.68793e-06 0
-0.000182873 1.02272e-05 0
-0.000182873 1.02272e-05 0
-0.00020391 1.07338e-05 0
-0.00020391 1.07338e-05 0
-0.000225613 1.12111e-05 0
-0.000225613 1.12111e-05 0
-0.000247948 1.16577e-05 0
-0.000247948 1.16577e-05 0
-0.000270865 1.20664e-05 0
-0.000270865 1.20664e-05 0
-0.000294302 1.2425e-05 0
-0.000294302 1.2425e-05 0
-0.000318178 1.27195e-05 0
-0.000318178 1.27195e-05 0
-0.000342393 1.294e-05 0
-0.000342393 1.294e-05 0
-0.00036681 1.3078e-05 0
-0.00036681 1.3078e-05 0
-0.000391264 1.31181e-05 0
-0.000391264 1.31181e-05 0
-0.000415561 1.30404e-05 0
-0.000415561 1.30404e-05 0
-0.000439481 1.28261e-05 0
-0.000439481 1.28261e-05 0
-0.000462777 1.24579e-05 0
-0.000462777 1.24579e-05 0
-0.000485173 1.19208e-05 0
-0.000485173 1.19208e-05 0
-0.000506369 1.12028e-05 0
-0.000506369 1.12028e-05 0
-0.000526046 1.02958e-05 0
-0.000526046 1.02958e-05 0
-0.00054387 9.19648e-06 0
-0.00054387 9.19648e-06 0
-0.000559502 7.90763e-06 0
-0.000559502 7.90763e-06 0
-0.000572611 6.43906e-06 0
-0.000572611 6.43906e-06 0
-0.000582888 4.81046e-06 0
-0.000582888 4.81046e-06 0
-0.000590055 3.06195e-06 0
-0.000590055 3.06195e-06 0
-0.000593886 1.24614e-06 0
-0.000593886 1.24614e-06 0
-0.000594212 -5.89077e-07 0
-0.000594212 -5.89077e-07 0
-0.000591021 -2.39198e-06 0
-0.000591021 -2.39198e-06 0
-0.000584332 -4.15328e-06 0
-0.000584332 -4.15328e-06 0
-0.00057413 -5.88389e-06 0
-0.00057413 -5.88389e-06 0
-0.000560497 -7.56284e-06 0
-0.000560497 -7.56284e-06 0
-0.000543561 -9.1653e-06 0
-0.000543561 -9.1653e-06 0
-0.000523504 -1.06665e-05 0
-0.000523504 -1.06665e-05 0
-0.000500556 -1.20449e-05 0
-0.000500556 -1.20449e-05 0
-0.000474984 -1.32837e-05 0
-0.000474984 -1.32837e-05 0
-0.000447082 -1.43713e-05 0
-0.000447082 -1.43713e-05 0
-0.000417165 -1.53008e-05 0
-0.000417165 -1.53008e-05 0
-0.000385554 -1.60705e-05 0
-0.000385554 -1.60705e-05 0
-0.000352568 -1.66824e-05 0
-0.000352568 -1.66824e-05 0
-0.00031852 -1.71423e-05 0
-0.00031852 -1.71423e-05 0
-0.000283707 -1.74587e-05 0
-0.000283707 -1.74587e-05 0
-0.000248408 -1.76429e-05 0
-0.000248408 -1.76429e-05 0
-0.000212879 -1.77073e-05 0
-0.000212879 -1.77073e-05 0
-0.000177345 -1.76629e-05 0
-0.000177345 -1.76629e-05 0
-0.000141991 -1.75253e-05 0
-0.000141991 -1.75253e-05 0
-0.000106988 -1.73073e-05 0
-0.000106988 -1.73073e-05 0
-7.24831e-05 -1.70209e-05 0
-7.24831e-05 -1.70209e-05 0
-3.85934e-05 -1.66796e-05 0
-3.85934e-05 -1.66796e-05 0
-5.45475e-06 -1.62945e-05 0
-5.45475e-06 -1.62945e-05 0
2.68266e-05 -1.58767e-05 0
2.68266e-05 -1.58767e-05 0
5.8242e-05 -1.54349e-05 0
5.8242e-05 -1.54349e-05 0
8.8771e-05 -1.49773e-05 0
8.8771e-05 -1.49773e-05 0
0.000118372 -1.45107e-05 0
0.000118372 -1.45107e-05 0
0.000147036 -1.4041e-05 0
0.000147036 -1.4041e-05 0
0.00017476 -1.35732e-05 0
0.00017476 -1.35732e-05 0
0.000201553 -1.31111e-05 0
0.000201553 -1.31111e-05 0
0.000227429 -1.2658e-05 0
0.000227429 -1.2658e-05 0
0.00025241 -1.22163e-05 0
0.00025241 -1.22163e-05 0
0.00027652 -1.17876e-05 0
0.00027652 -1.17876e-05 0
0.000299787 -1.13732e-05 0
0.000299787 -1.13732e-05 0
0.000322239 -1.09738e-05 0
0.000322239 -1.09738e-05 0
0.000343908 -1.059e-05 0
0.000343908 -1.059e-05 0
0.000364825 -1.02219e-05 0
0.000364825 -1.02219e-05 0
0.000385021 -9.86945e-06 0
0.000385021 -9.86945e-06 0
0.000404527 -9.53249e-06 0
0.000404527 -9.53249e-06 0
0.000423374 -9.21075e-06 0
0.000423374 -9.21075e-06 0
0.000441593 -8.9039e-06 0
0.000441593 -8.9039e-06 0
0.000459211 -8.61151e-06 0
0.000459211 -8.61151e-06 0
0.000476259 -8.33316e-06 0
0.000476259 -8.33316e-06 0
0.000492763 -8.06839e-06 0
0.000492763 -8.06839e-06 0
0.00050875 -7.81673e-06 0
0.00050875 -7.81673e-06 0
0.000524245 -7.57775e-06 0
0.000524245 -7.57775e-06 0
0.000539276 -7.35105e-06 0
0.000539276 -7.35105e-06 0
0.000553863 -7.13623e-06 0
0.000553863 -7.13623e-06 0
0.000568033 -6.9329e-06 0
0.000568033 -6.9329e-06 0
0.000581805 -6.74072e-06 0
0.000581805 -6.74072e-06 0
0.000595206 -6.55925e-06 0
0.000595206 -6.55925e-06 0
0.000608249 -6.38816e-06 0
0.000608249 -6.38816e-06 0
0.000620966 -6.22705e-06 0
0.000620966 -6.22705e-06 0
0.000633359 -6.07567e-06 0
0.000633359 -6.07567e-06 0
0.000645474 -5.93361e-06 0
0.000645474 -5.93361e-06 0
0.000657289 -5.80077e-06 0
0.000657289 -5.80077e-06 0
0.000668884 -5.67665e-06 0
0.000668884 -5.67665e-06 0
0.00068018 -5.56141e-06 0
0.00068018 -5.56141e-06 0
0.000691342 -5.45428e-06 0
0.000691342 -5.45428e-06 0
0.000702163 -5.35595e-06 0
0.000702163 -5.35595e-06 0
0.000712997 -5.265e-06 0
0.000712997 -5.265e-06 0
0.000723349 -5.18319e-06 0
0.000723349 -5.18319e-06 0
0.000734007 -5.10759e-06 0
0.000734007 -5.10759e-06 0
0.000743821 -5.04222e-06 0
0.000743821 -5.04222e-06 0
0.000754556 -4.98096e-06 0
0.000754556 -4.98096e-06 0
0.000763602 -4.93261e-06 0
0.000763602 -4.93261e-06 0
0.980519 -0.00606654 0
0.980519 -0.00606654 0
1.96027 -0.0121282 0
1.96027 -0.0121282 0
