# vtk DataFile Version 2.0
sampleSurface
ASCII
DATASET POLYDATA
POINTS 652 double
0 0 0
0.02 0 0
0.02 0 0.1
0 0 0.1
0.04 0 0
0.04 0 0.1
0.06 0 0
0.06 0 0.1
0.08 0 0
0.08 0 0.1
0.1 0 0
0.1 0 0.1
0.12 0 0
0.12 0 0.1
0.14 0 0
0.14 0 0.1
0.16 0 0
0.16 0 0.1
0.18 0 0
0.18 0 0.1
0.2 0 0
0.2 0 0.1
0.22 0 0
0.22 0 0.1
0.24 0 0
0.24 0 0.1
0.26 0 0
0.26 0 0.1
0.28 0 0
0.28 0 0.1
0.3 0 0
0.3 0 0.1
0.32 0 0
0.32 0 0.1
0.34 0 0
0.34 0 0.1
0.36 0 0
0.36 0 0.1
0.38 0 0
0.38 0 0.1
0.4 0 0
0.4 0 0.1
0.42 0 0
0.42 0 0.1
0.44 0 0
0.44 0 0.1
0.46 0 0
0.46 0 0.1
0.48 0 0
0.48 0 0.1
0.5 0 0
0.5 0 0.1
0.52 0 0
0.52 0 0.1
0.54 0 0
0.54 0 0.1
0.56 0 0
0.56 0 0.1
0.58 0 0
0.58 0 0.1
0.6 0 0
0.6 0 0.1
0.62 0 0
0.62 0 0.1
0.64 0 0
0.64 0 0.1
0.66 0 0
0.66 0 0.1
0.68 0 0
0.68 0 0.1
0.7 0 0
0.7 0 0.1
0.72 0 0
0.72 0 0.1
0.74 0 0
0.74 0 0.1
0.76 0 0
0.76 0 0.1
0.78 0 0
0.78 0 0.1
0.8 0 0
0.8 0 0.1
0.82 0 0
0.82 0 0.1
0.84 0 0
0.84 0 0.1
0.86 0 0
0.86 0 0.1
0.88 0 0
0.88 0 0.1
0.9 0 0
0.9 0 0.1
0.92 0 0
0.92 0 0.1
0.94 0 0
0.94 0 0.1
0.96 0 0
0.96 0 0.1
0.98 0 0
0.98 0 0.1
1 0 0
1 0 0.1
1.02 0 0
1.02 0 0.1
1.04 0 0
1.04 0 0.1
1.06 0 0
1.06 0 0.1
1.08 0 0
1.08 0 0.1
1.1 0 0
1.1 0 0.1
1.12 0 0
1.12 0 0.1
1.14 0 0
1.14 0 0.1
1.16 0 0
1.16 0 0.1
1.18 0 0
1.18 0 0.1
1.2 0 0
1.2 0 0.1
1.22 0 0
1.22 0 0.1
1.24 0 0
1.24 0 0.1
1.26 0 0
1.26 0 0.1
1.28 0 0
1.28 0 0.1
1.3 0 0
1.3 0 0.1
1.32 0 0
1.32 0 0.1
1.34 0 0
1.34 0 0.1
1.36 0 0
1.36 0 0.1
1.38 0 0
1.38 0 0.1
1.4 0 0
1.4 0 0.1
1.42 0 0
1.42 0 0.1
1.44 0 0
1.44 0 0.1
1.46 0 0
1.46 0 0.1
1.48 0 0
1.48 0 0.1
1.5 0 0
1.5 0 0.1
1.52 0 0
1.52 0 0.1
1.54 0 0
1.54 0 0.1
1.56 0 0
1.56 0 0.1
1.58 0 0
1.58 0 0.1
1.6 0 0
1.6 0 0.1
1.62 0 0
1.62 0 0.1
1.64 0 0
1.64 0 0.1
1.66 0 0
1.66 0 0.1
1.68 0 0
1.68 0 0.1
1.7 0 0
1.7 0 0.1
1.72 0 0
1.72 0 0.1
1.74 0 0
1.74 0 0.1
1.76 0 0
1.76 0 0.1
1.78 0 0
1.78 0 0.1
1.8 0 0
1.8 0 0.1
1.82 0 0
1.82 0 0.1
1.84 0 0
1.84 0 0.1
1.86 0 0
1.86 0 0.1
1.88 0 0
1.88 0 0.1
1.9 0 0
1.9 0 0.1
1.92 0 0
1.92 0 0.1
1.94 0 0
1.94 0 0.1
1.96 0 0
1.96 0 0.1
1.98 0 0
1.98 0 0.1
2 0 0
2 0 0.1
2 0.02 0
2 0.02 0.1
2 0.04 0
2 0.04 0.1
2 0.06 0
2 0.06 0.1
2 0.08 0
2 0.08 0.1
2 0.1 0
2 0.1 0.1
2 0.12 0
2 0.12 0.1
2 0.14 0
2 0.14 0.1
2 0.16 0
2 0.16 0.1
2 0.18 0
2 0.18 0.1
2 0.2 0
2 0.2 0.1
2 0.22 0
2 0.22 0.1
2 0.24 0
2 0.24 0.1
2 0.26 0
2 0.26 0.1
2 0.28 0
2 0.28 0.1
2 0.3 0
2 0.3 0.1
2 0.32 0
2 0.32 0.1
2 0.34 0
2 0.34 0.1
2 0.36 0
2 0.36 0.1
2 0.38 0
2 0.38 0.1
2 0.4 0
2 0.4 0.1
2 0.42 0
2 0.42 0.1
2 0.44 0
2 0.44 0.1
2 0.46 0
2 0.46 0.1
2 0.48 0
2 0.48 0.1
2 0.5 0
2 0.5 0.1
2 0.52 0
2 0.52 0.1
2 0.54 0
2 0.54 0.1
2 0.56 0
2 0.56 0.1
2 0.58 0
2 0.58 0.1
2 0.6 0
2 0.6 0.1
2 0.62 0
2 0.62 0.1
2 0.64 0
2 0.64 0.1
2 0.66 0
2 0.66 0.1
2 0.68 0
2 0.68 0.1
2 0.7 0
2 0.7 0.1
2 0.72 0
2 0.72 0.1
2 0.74 0
2 0.74 0.1
2 0.76 0
2 0.76 0.1
2 0.78 0
2 0.78 0.1
2 0.8 0
2 0.8 0.1
2 0.82 0
2 0.82 0.1
2 0.84 0
2 0.84 0.1
2 0.86 0
2 0.86 0.1
2 0.88 0
2 0.88 0.1
2 0.9 0
2 0.9 0.1
2 0.92 0
2 0.92 0.1
2 0.94 0
2 0.94 0.1
2 0.96 0
2 0.96 0.1
2 0.98 0
2 0.98 0.1
2 1 0
2 1 0.1
2.02 1 0
2.02 1 0.1
2.04 1 0
2.04 1 0.1
2.06 1 0
2.06 1 0.1
2.08 1 0
2.08 1 0.1
2.1 1 0
2.1 1 0.1
2.12 1 0
2.12 1 0.1
2.14 1 0
2.14 1 0.1
2.16 1 0
2.16 1 0.1
2.18 1 0
2.18 1 0.1
2.2 1 0
2.2 1 0.1
2.22 1 0
2.22 1 0.1
2.24 1 0
2.24 1 0.1
2.26 1 0
2.26 1 0.1
2.28 1 0
2.28 1 0.1
2.3 1 0
2.3 1 0.1
2.32 1 0
2.32 1 0.1
2.34 1 0
2.34 1 0.1
2.36 1 0
2.36 1 0.1
2.38 1 0
2.38 1 0.1
2.4 1 0
2.4 1 0.1
2.42 1 0
2.42 1 0.1
2.44 1 0
2.44 1 0.1
2.46 1 0
2.46 1 0.1
2.48 1 0
2.48 1 0.1
2.5 1 0
2.5 1 0.1
2.5 0 0
2.5 0 0.1
2.5 0.02 0.1
2.5 0.02 0
2.5 0.04 0.1
2.5 0.04 0
2.5 0.06 0.1
2.5 0.06 0
2.5 0.08 0.1
2.5 0.08 0
2.5 0.1 0.1
2.5 0.1 0
2.5 0.12 0.1
2.5 0.12 0
2.5 0.14 0.1
2.5 0.14 0
2.5 0.16 0.1
2.5 0.16 0
2.5 0.18 0.1
2.5 0.18 0
2.5 0.2 0.1
2.5 0.2 0
2.5 0.22 0.1
2.5 0.22 0
2.5 0.24 0.1
2.5 0.24 0
2.5 0.26 0.1
2.5 0.26 0
2.5 0.28 0.1
2.5 0.28 0
2.5 0.3 0.1
2.5 0.3 0
2.5 0.32 0.1
2.5 0.32 0
2.5 0.34 0.1
2.5 0.34 0
2.5 0.36 0.1
2.5 0.36 0
2.5 0.38 0.1
2.5 0.38 0
2.5 0.4 0.1
2.5 0.4 0
2.5 0.42 0.1
2.5 0.42 0
2.5 0.44 0.1
2.5 0.44 0
2.5 0.46 0.1
2.5 0.46 0
2.5 0.48 0.1
2.5 0.48 0
2.5 0.5 0.1
2.5 0.5 0
2.5 0.52 0.1
2.5 0.52 0
2.5 0.54 0.1
2.5 0.54 0
2.5 0.56 0.1
2.5 0.56 0
2.5 0.58 0.1
2.5 0.58 0
2.5 0.6 0.1
2.5 0.6 0
2.5 0.62 0.1
2.5 0.62 0
2.5 0.64 0.1
2.5 0.64 0
2.5 0.66 0.1
2.5 0.66 0
2.5 0.68 0.1
2.5 0.68 0
2.5 0.7 0.1
2.5 0.7 0
2.5 0.72 0.1
2.5 0.72 0
2.5 0.74 0.1
2.5 0.74 0
2.5 0.76 0.1
2.5 0.76 0
2.5 0.78 0.1
2.5 0.78 0
2.5 0.8 0.1
2.5 0.8 0
2.5 0.82 0.1
2.5 0.82 0
2.5 0.84 0.1
2.5 0.84 0
2.5 0.86 0.1
2.5 0.86 0
2.5 0.88 0.1
2.5 0.88 0
2.5 0.9 0.1
2.5 0.9 0
2.5 0.92 0.1
2.5 0.92 0
2.5 0.94 0.1
2.5 0.94 0
2.5 0.96 0.1
2.5 0.96 0
2.5 0.98 0.1
2.5 0.98 0
2.52 0 0
2.52 0 0.1
2.54 0 0
2.54 0 0.1
2.56 0 0
2.56 0 0.1
2.58 0 0
2.58 0 0.1
2.6 0 0
2.6 0 0.1
2.62 0 0
2.62 0 0.1
2.64 0 0
2.64 0 0.1
2.66 0 0
2.66 0 0.1
2.68 0 0
2.68 0 0.1
2.7 0 0
2.7 0 0.1
2.72 0 0
2.72 0 0.1
2.74 0 0
2.74 0 0.1
2.76 0 0
2.76 0 0.1
2.78 0 0
2.78 0 0.1
2.8 0 0
2.8 0 0.1
2.82 0 0
2.82 0 0.1
2.84 0 0
2.84 0 0.1
2.86 0 0
2.86 0 0.1
2.88 0 0
2.88 0 0.1
2.9 0 0
2.9 0 0.1
2.92 0 0
2.92 0 0.1
2.94 0 0
2.94 0 0.1
2.96 0 0
2.96 0 0.1
2.98 0 0
2.98 0 0.1
3 0 0
3 0 0.1
3.02 0 0
3.02 0 0.1
3.04 0 0
3.04 0 0.1
3.06 0 0
3.06 0 0.1
3.08 0 0
3.08 0 0.1
3.1 0 0
3.1 0 0.1
3.12 0 0
3.12 0 0.1
3.14 0 0
3.14 0 0.1
3.16 0 0
3.16 0 0.1
3.18 0 0
3.18 0 0.1
3.2 0 0
3.2 0 0.1
3.22 0 0
3.22 0 0.1
3.24 0 0
3.24 0 0.1
3.26 0 0
3.26 0 0.1
3.28 0 0
3.28 0 0.1
3.3 0 0
3.3 0 0.1
3.32 0 0
3.32 0 0.1
3.34 0 0
3.34 0 0.1
3.36 0 0
3.36 0 0.1
3.38 0 0
3.38 0 0.1
3.4 0 0
3.4 0 0.1
3.42 0 0
3.42 0 0.1
3.44 0 0
3.44 0 0.1
3.46 0 0
3.46 0 0.1
3.48 0 0
3.48 0 0.1
3.5 0 0
3.5 0 0.1
3.52 0 0
3.52 0 0.1
3.54 0 0
3.54 0 0.1
3.56 0 0
3.56 0 0.1
3.58 0 0
3.58 0 0.1
3.6 0 0
3.6 0 0.1
3.62 0 0
3.62 0 0.1
3.64 0 0
3.64 0 0.1
3.66 0 0
3.66 0 0.1
3.68 0 0
3.68 0 0.1
3.7 0 0
3.7 0 0.1
3.72 0 0
3.72 0 0.1
3.74 0 0
3.74 0 0.1
3.76 0 0
3.76 0 0.1
3.78 0 0
3.78 0 0.1
3.8 0 0
3.8 0 0.1
3.82 0 0
3.82 0 0.1
3.84 0 0
3.84 0 0.1
3.86 0 0
3.86 0 0.1
3.88 0 0
3.88 0 0.1
3.9 0 0
3.9 0 0.1
3.92 0 0
3.92 0 0.1
3.94 0 0
3.94 0 0.1
3.96 0 0
3.96 0 0.1
3.98 0 0
3.98 0 0.1
4 0 0
4 0 0.1
4.02 0 0
4.02 0 0.1
4.04 0 0
4.04 0 0.1
4.06 0 0
4.06 0 0.1
4.08 0 0
4.08 0 0.1
4.1 0 0
4.1 0 0.1
4.12 0 0
4.12 0 0.1
4.14 0 0
4.14 0 0.1
4.16 0 0
4.16 0 0.1
4.18 0 0
4.18 0 0.1
4.2 0 0
4.2 0 0.1
4.22 0 0
4.22 0 0.1
4.24 0 0
4.24 0 0.1
4.26 0 0
4.26 0 0.1
4.28 0 0
4.28 0 0.1
4.3 0 0
4.3 0 0.1
4.32 0 0
4.32 0 0.1
4.34 0 0
4.34 0 0.1
4.36 0 0
4.36 0 0.1
4.38 0 0
4.38 0 0.1
4.4 0 0
4.4 0 0.1
4.42 0 0
4.42 0 0.1
4.44 0 0
4.44 0 0.1
4.46 0 0
4.46 0 0.1
4.48 0 0
4.48 0 0.1
4.5 0 0
4.5 0 0.1

POLYGONS 325 1625
4 0 1 2 3
4 1 4 5 2
4 4 6 7 5
4 6 8 9 7
4 8 10 11 9
4 10 12 13 11
4 12 14 15 13
4 14 16 17 15
4 16 18 19 17
4 18 20 21 19
4 20 22 23 21
4 22 24 25 23
4 24 26 27 25
4 26 28 29 27
4 28 30 31 29
4 30 32 33 31
4 32 34 35 33
4 34 36 37 35
4 36 38 39 37
4 38 40 41 39
4 40 42 43 41
4 42 44 45 43
4 44 46 47 45
4 46 48 49 47
4 48 50 51 49
4 50 52 53 51
4 52 54 55 53
4 54 56 57 55
4 56 58 59 57
4 58 60 61 59
4 60 62 63 61
4 62 64 65 63
4 64 66 67 65
4 66 68 69 67
4 68 70 71 69
4 70 72 73 71
4 72 74 75 73
4 74 76 77 75
4 76 78 79 77
4 78 80 81 79
4 80 82 83 81
4 82 84 85 83
4 84 86 87 85
4 86 88 89 87
4 88 90 91 89
4 90 92 93 91
4 92 94 95 93
4 94 96 97 95
4 96 98 99 97
4 98 100 101 99
4 100 102 103 101
4 102 104 105 103
4 104 106 107 105
4 106 108 109 107
4 108 110 111 109
4 110 112 113 111
4 112 114 115 113
4 114 116 117 115
4 116 118 119 117
4 118 120 121 119
4 120 122 123 121
4 122 124 125 123
4 124 126 127 125
4 126 128 129 127
4 128 130 131 129
4 130 132 133 131
4 132 134 135 133
4 134 136 137 135
4 136 138 139 137
4 138 140 141 139
4 140 142 143 141
4 142 144 145 143
4 144 146 147 145
4 146 148 149 147
4 148 150 151 149
4 150 152 153 151
4 152 154 155 153
4 154 156 157 155
4 156 158 159 157
4 158 160 161 159
4 160 162 163 161
4 162 164 165 163
4 164 166 167 165
4 166 168 169 167
4 168 170 171 169
4 170 172 173 171
4 172 174 175 173
4 174 176 177 175
4 176 178 179 177
4 178 180 181 179
4 180 182 183 181
4 182 184 185 183
4 184 186 187 185
4 186 188 189 187
4 188 190 191 189
4 190 192 193 191
4 192 194 195 193
4 194 196 197 195
4 196 198 199 197
4 198 200 201 199
4 200 202 203 201
4 202 204 205 203
4 204 206 207 205
4 206 208 209 207
4 208 210 211 209
4 210 212 213 211
4 212 214 215 213
4 214 216 217 215
4 216 218 219 217
4 218 220 221 219
4 220 222 223 221
4 222 224 225 223
4 224 226 227 225
4 226 228 229 227
4 228 230 231 229
4 230 232 233 231
4 232 234 235 233
4 234 236 237 235
4 236 238 239 237
4 238 240 241 239
4 240 242 243 241
4 242 244 245 243
4 244 246 247 245
4 246 248 249 247
4 248 250 251 249
4 250 252 253 251
4 252 254 255 253
4 254 256 257 255
4 256 258 259 257
4 258 260 261 259
4 260 262 263 261
4 262 264 265 263
4 264 266 267 265
4 266 268 269 267
4 268 270 271 269
4 270 272 273 271
4 272 274 275 273
4 274 276 277 275
4 276 278 279 277
4 278 280 281 279
4 280 282 283 281
4 282 284 285 283
4 284 286 287 285
4 286 288 289 287
4 288 290 291 289
4 290 292 293 291
4 292 294 295 293
4 294 296 297 295
4 296 298 299 297
4 298 300 301 299
4 300 302 303 301
4 302 304 305 303
4 304 306 307 305
4 306 308 309 307
4 308 310 311 309
4 310 312 313 311
4 312 314 315 313
4 314 316 317 315
4 316 318 319 317
4 318 320 321 319
4 320 322 323 321
4 322 324 325 323
4 324 326 327 325
4 326 328 329 327
4 328 330 331 329
4 330 332 333 331
4 332 334 335 333
4 334 336 337 335
4 336 338 339 337
4 338 340 341 339
4 340 342 343 341
4 342 344 345 343
4 344 346 347 345
4 346 348 349 347
4 348 350 351 349
4 352 353 354 355
4 355 354 356 357
4 357 356 358 359
4 359 358 360 361
4 361 360 362 363
4 363 362 364 365
4 365 364 366 367
4 367 366 368 369
4 369 368 370 371
4 371 370 372 373
4 373 372 374 375
4 375 374 376 377
4 377 376 378 379
4 379 378 380 381
4 381 380 382 383
4 383 382 384 385
4 385 384 386 387
4 387 386 388 389
4 389 388 390 391
4 391 390 392 393
4 393 392 394 395
4 395 394 396 397
4 397 396 398 399
4 399 398 400 401
4 401 400 402 403
4 403 402 404 405
4 405 404 406 407
4 407 406 408 409
4 409 408 410 411
4 411 410 412 413
4 413 412 414 415
4 415 414 416 417
4 417 416 418 419
4 419 418 420 421
4 421 420 422 423
4 423 422 424 425
4 425 424 426 427
4 427 426 428 429
4 429 428 430 431
4 431 430 432 433
4 433 432 434 435
4 435 434 436 437
4 437 436 438 439
4 439 438 440 441
4 441 440 442 443
4 443 442 444 445
4 445 444 446 447
4 447 446 448 449
4 449 448 450 451
4 451 450 351 350
4 352 452 453 353
4 452 454 455 453
4 454 456 457 455
4 456 458 459 457
4 458 460 461 459
4 460 462 463 461
4 462 464 465 463
4 464 466 467 465
4 466 468 469 467
4 468 470 471 469
4 470 472 473 471
4 472 474 475 473
4 474 476 477 475
4 476 478 479 477
4 478 480 481 479
4 480 482 483 481
4 482 484 485 483
4 484 486 487 485
4 486 488 489 487
4 488 490 491 489
4 490 492 493 491
4 492 494 495 493
4 494 496 497 495
4 496 498 499 497
4 498 500 501 499
4 500 502 503 501
4 502 504 505 503
4 504 506 507 505
4 506 508 509 507
4 508 510 511 509
4 510 512 513 511
4 512 514 515 513
4 514 516 517 515
4 516 518 519 517
4 518 520 521 519
4 520 522 523 521
4 522 524 525 523
4 524 526 527 525
4 526 528 529 527
4 528 530 531 529
4 530 532 533 531
4 532 534 535 533
4 534 536 537 535
4 536 538 539 537
4 538 540 541 539
4 540 542 543 541
4 542 544 545 543
4 544 546 547 545
4 546 548 549 547
4 548 550 551 549
4 550 552 553 551
4 552 554 555 553
4 554 556 557 555
4 556 558 559 557
4 558 560 561 559
4 560 562 563 561
4 562 564 565 563
4 564 566 567 565
4 566 568 569 567
4 568 570 571 569
4 570 572 573 571
4 572 574 575 573
4 574 576 577 575
4 576 578 579 577
4 578 580 581 579
4 580 582 583 581
4 582 584 585 583
4 584 586 587 585
4 586 588 589 587
4 588 590 591 589
4 590 592 593 591
4 592 594 595 593
4 594 596 597 595
4 596 598 599 597
4 598 600 601 599
4 600 602 603 601
4 602 604 605 603
4 604 606 607 605
4 606 608 609 607
4 608 610 611 609
4 610 612 613 611
4 612 614 615 613
4 614 616 617 615
4 616 618 619 617
4 618 620 621 619
4 620 622 623 621
4 622 624 625 623
4 624 626 627 625
4 626 628 629 627
4 628 630 631 629
4 630 632 633 631
4 632 634 635 633
4 634 636 637 635
4 636 638 639 637
4 638 640 641 639
4 640 642 643 641
4 642 644 645 643
4 644 646 647 645
4 646 648 649 647
4 648 650 651 649
POINT_DATA 652
FIELD attributes 1
U 3 652 float
2.46838 -0.00529772 -0.0436594
1.23469 -0.00265434 -0.0218297
1.23469 -0.00265434 -0.0218297
2.46838 -0.00529772 -0.0436594
0.000995085 -9.14995e-06 0
0.000995085 -9.14995e-06 0
0.000997182 -5.56141e-06 0
0.000997182 -5.56141e-06 0
0.000998676 -1.91399e-06 0
0.000998676 -1.91399e-06 0
0.000997524 1.84598e-06 0
0.000997524 1.84598e-06 0
0.000993514 4.45247e-06 0
0.000993514 4.45247e-06 0
0.000988481 4.4411e-06 0
0.000988481 4.4411e-06 0
0.00098436 2.55482e-06 0
0.00098436 2.55482e-06 0
0.00098208 7.77023e-07 0
0.00098208 7.77023e-07 0
0.000981414 2.93287e-07 0
0.000981414 2.93287e-07 0
0.0009816 9.27703e-07 0
0.0009816 9.27703e-07 0
0.000981836 1.83185e-06 0
0.000981836 1.83185e-06 0
0.000981409 2.25034e-06 0
0.000981409 2.25034e-06 0
0.000979772 1.93918e-06 0
0.000979772 1.93918e-06 0
0.000976726 1.18526e-06 0
0.000976726 1.18526e-06 0
0.000972724 4.93963e-07 0
0.000972724 4.93963e-07 0
0.000968751 2.55942e-07 0
0.000968751 2.55942e-07 0
0.000965628 6.35589e-07 0
0.000965628 6.35589e-07 0
0.000963315 1.56973e-06 0
0.000963315 1.56973e-06 0
0.000960918 2.70173e-06 0
0.000960918 2.70173e-06 0
0.000957456 3.45129e-06 0
0.000957456 3.45129e-06 0
0.000952719 3.36897e-06 0
0.000952719 3.36897e-06 0
0.000947388 2.51303e-06 0
0.000947388 2.51303e-06 0
0.000942292 1.46029e-06 0
0.000942292 1.46029e-06 0
0.000937655 8.58737e-07 0
0.000937655 8.58737e-07 0
0.000933072 8.74126e-07 0
0.000933072 8.74126e-07 0
0.000928136 1.10583e-06 0
0.000928136 1.10583e-06 0
0.000922928 1.11209e-06 0
0.000922928 1.11209e-06 0
0.000917849 9.8878e-07 0
0.000917849 9.8878e-07 0
0.000913065 1.33266e-06 0
0.000913065 1.33266e-06 0
0.000908243 2.55588e-06 0
0.000908243 2.55588e-06 0
0.000902867 4.29181e-06 0
0.000902867 4.29181e-06 0
0.000896788 5.58785e-06 0
0.000896788 5.58785e-06 0
0.000890372 5.75574e-06 0
0.000890372 5.75574e-06 0
0.000884065 5.05432e-06 0
0.000884065 5.05432e-06 0
0.000877849 4.50002e-06 0
0.000877849 4.50002e-06 0
0.000871179 4.94473e-06 0
0.000871179 4.94473e-06 0
0.000863489 6.29556e-06 0
0.000863489 6.29556e-06 0
0.000854781 7.60876e-06 0
0.000854781 7.60876e-06 0
0.000845701 7.94654e-06 0
0.000845701 7.94654e-06 0
0.000837016 7.20913e-06 0
0.000837016 7.20913e-06 0
0.000828936 6.21829e-06 0
0.000828936 6.21829e-06 0
0.000820856 6.03169e-06 0
0.000820856 6.03169e-06 0
0.000811668 7.12291e-06 0
0.000811668 7.12291e-06 0
0.000800418 9.06976e-06 0
0.000800418 9.06976e-06 0
0.000786879 1.09086e-05 0
0.000786879 1.09086e-05 0
0.000771646 1.18095e-05 0
0.000771646 1.18095e-05 0
0.000755762 1.15378e-05 0
0.000755762 1.15378e-05 0
0.000740196 1.04313e-05 0
0.000740196 1.04313e-05 0
0.000725499 9.05548e-06 0
0.000725499 9.05548e-06 0
0.00071176 7.86691e-06 0
0.00071176 7.86691e-06 0
0.000698761 7.07125e-06 0
0.000698761 7.07125e-06 0
0.000686177 6.66052e-06 0
0.000686177 6.66052e-06 0
0.000673717 6.52592e-06 0
0.000673717 6.52592e-06 0
0.000661181 6.55027e-06 0
0.000661181 6.55027e-06 0
0.000648459 6.64915e-06 0
0.000648459 6.64915e-06 0
0.000635503 6.7759e-06 0
0.000635503 6.7759e-06 0
0.000622298 6.91057e-06 0
0.000622298 6.91057e-06 0
0.000608839 7.04746e-06 0
0.000608839 7.04746e-06 0
0.000595129 7.18496e-06 0
0.000595129 7.18496e-06 0
0.000581167 7.32156e-06 0
0.000581167 7.32156e-06 0
0.000566954 7.45656e-06 0
0.000566954 7.45656e-06 0
0.000552489 7.58905e-06 0
0.000552489 7.58905e-06 0
0.000537774 7.7175e-06 0
0.000537774 7.7175e-06 0
0.00052281 7.84146e-06 0
0.00052281 7.84146e-06 0
0.000507599 7.96068e-06 0
0.000507599 7.96068e-06 0
0.000492147 8.0732e-06 0
0.000492147 8.0732e-06 0
0.000476456 8.17626e-06 0
0.000476456 8.17626e-06 0
0.000460533 8.26874e-06 0
0.000460533 8.26874e-06 0
0.000444389 8.35024e-06 0
0.000444389 8.35024e-06 0
0.000428035 8.4187e-06 0
0.000428035 8.4187e-06 0
0.000411483 8.47154e-06 0
0.000411483 8.47154e-06 0
0.000394749 8.50597e-06 0
0.000394749 8.50597e-06 0
0.000377855 8.51996e-06 0
0.000377855 8.51996e-06 0
0.000360822 8.5119e-06 0
0.000360822 8.5119e-06 0
0.000343675 8.47849e-06 0
0.000343675 8.47849e-06 0
0.000326445 8.41648e-06 0
0.000326445 8.41648e-06 0
0.000309167 8.32333e-06 0
0.000309167 8.32333e-06 0
0.00029188 8.1965e-06 0
0.00029188 8.1965e-06 0
0.000274626 8.03369e-06 0
0.000274626 8.03369e-06 0
0.00025745 7.83315e-06 0
0.00025745 7.83315e-06 0
0.000240402 7.59336e-06 0
0.000240402 7.59336e-06 0
0.000223535 7.31344e-06 0
0.000223535 7.31344e-06 0
0.000206903 6.99369e-06 0
0.000206903 6.99369e-06 0
0.000190562 6.6356e-06 0
0.000190562 6.6356e-06 0
0.000174566 6.24192e-06 0
0.000174566 6.24192e-06 0
0.000158967 5.81686e-06 0
0.000158967 5.81686e-06 0
0.000143813 5.36605e-06 0
0.000143813 5.36605e-06 0
0.000129145 4.89678e-06 0
0.000129145 4.89678e-06 0
0.000114996 4.41782e-06 0
0.000114996 4.41782e-06 0
0.000101388 3.93903e-06 0
0.000101388 3.93903e-06 0
8.83323e-05 3.4711e-06 0
8.83323e-05 3.4711e-06 0
7.58229e-05 3.02529e-06 0
7.58229e-05 3.02529e-06 0
6.38403e-05 2.61302e-06 0
6.38403e-05 2.61302e-06 0
5.23487e-05 2.2449e-06 0
5.23487e-05 2.2449e-06 0
4.12973e-05 1.93051e-06 0
4.12973e-05 1.93051e-06 0
3.06183e-05 1.67665e-06 0
3.06183e-05 1.67665e-06 0
2.02374e-05 1.48341e-06 0
2.02374e-05 1.48341e-06 0
1.00605e-05 1.3693e-06 0
1.00605e-05 1.3693e-06 0
5.00854e-06 1.33719e-06 0
5.00854e-06 1.33719e-06 0
7.88588e-06 1.01591e-05 0
7.88588e-06 1.01591e-05 0
1.12772e-05 3.15494e-05 0
1.12772e-05 3.15494e-05 0
1.15504e-05 5.53925e-05 0
1.15504e-05 5.53925e-05 0
1.09888e-05 7.78139e-05 0
1.09888e-05 7.78139e-05 0
1.04465e-05 9.93621e-05 0
1.04465e-05 9.93621e-05 0
1.01136e-05 0.000119853 0
1.01136e-05 0.000119853 0
9.96826e-06 0.000139926 0
9.96826e-06 0.000139926 0
9.9453e-06 0.00015988 0
9.9453e-06 0.00015988 0
9.99016e-06 0.000179869 0
9.99016e-06 0.000179869 0
1.00694e-05 0.000199986 0
1.00694e-05 0.000199986 0
1.01656e-05 0.000220281 0
1.01656e-05 0.000220281 0
1.02713e-05 0.00024078 0
1.02713e-05 0.00024078 0
1.03843e-05 0.000261498 0
1.03843e-05 0.000261498 0
1.05048e-05 0.000282447 0
1.05048e-05 0.000282447 0
1.06337e-05 0.000303646 0
1.06337e-05 0.000303646 0
1.07723e-05 0.000325111 0
1.07723e-05 0.000325111 0
1.09219e-05 0.000346862 0
1.09219e-05 0.000346862 0
1.10838e-05 0.000368925 0
1.10838e-05 0.000368925 0
1.12597e-05 0.000391324 0
1.12597e-05 0.000391324 0
1.14509e-05 0.000414089 0
1.14509e-05 0.000414089 0
1.16585e-05 0.000437251 0
1.16585e-05 0.000437251 0
1.18846e-05 0.000460845 0
1.18846e-05 0.000460845 0
1.21307e-05 0.00048491 0
1.21307e-05 0.00048491 0
1.24002e-05 0.000509488 0
1.24002e-05 0.000509488 0
1.26932e-05 0.000534627 0
1.26932e-05 0.000534627 0
1.30158e-05 0.000560381 0
1.30158e-05 0.000560381 0
1.33682e-05 0.000586805 0
1.33682e-05 0.000586805 0
1.37583e-05 0.000613971 0
1.37583e-05 0.000613971 0
1.41837e-05 0.000641945 0
1.41837e-05 0.000641945 0
1.4662e-05 0.000670824 0
1.4662e-05 0.000670824 0
1.51818e-05 0.000700687 0
1.51818e-05 0.000700687 0
1.57776e-05 0.000731677 0
1.57776e-05 0.000731677 0
1.64188e-05 0.000763874 0
1.64188e-05 0.000763874 0
1.71855e-05 0.000797507 0
1.71855e-05 0.000797507 0
1.79807e-05 0.000832631 0
1.79807e-05 0.000832631 0
1.90101e-05 0.000869652 0
1.90101e-05 0.000869652 0
1.99922e-05 0.000908536 0
1.99922e-05 0.000908536 0
2.14659e-05 0.000950034 0
2.14659e-05 0.000950034 0
2.26591e-05 0.000993886 0
2.26591e-05 0.000993886 0
2.49572e-05 0.00104154 0
2.49572e-05 0.00104154 0
2.63162e-05 0.00109223 0
2.63162e-05 0.00109223 0
3.03006e-05 0.00114881 0
3.03006e-05 0.00114881 0
3.16347e-05 0.00120948 0
3.16347e-05 0.00120948 0
3.93889e-05 0.00128008 0
3.93889e-05 0.00128008 0
4.05198e-05 0.00135741 0
4.05198e-05 0.00135741 0
5.80763e-05 0.00145286 0
5.80763e-05 0.00145286 0
6.0788e-05 0.00156475 0
6.0788e-05 0.00156475 0
0.000109978 0.0017133 0
0.000109978 0.0017133 0
0.000132206 0.00191212 0
0.000132206 0.00191212 0
0.000123466 0.00123349 0
0.000123466 0.00123349 0
-0.000342621 0.000247881 0
-0.000342621 0.000247881 0
-0.000576576 3.58256e-05 0
-0.000576576 3.58256e-05 0
-0.000507733 -0.000163947 0
-0.000507733 -0.000163947 0
-0.000153684 -0.000522175 0
-0.000153684 -0.000522175 0
0.000664772 -0.000525763 0
0.000664772 -0.000525763 0
0.00106855 -0.00023516 0
0.00106855 -0.00023516 0
0.00109043 1.09661e-05 0
0.00109043 1.09661e-05 0
0.000763265 0.000132676 0
0.000763265 0.000132676 0
0.000424264 0.000117326 0
0.000424264 0.000117326 0
-7.17377e-05 0.000245543 0
-7.17377e-05 0.000245543 0
-0.000848004 0.000421051 0
-0.000848004 0.000421051 0
-0.00160622 0.000416407 0
-0.00160622 0.000416407 0
-0.00223691 0.000348712 0
-0.00223691 0.000348712 0
-0.00274306 0.000274995 0
-0.00274306 0.000274995 0
-0.00311374 0.000199318 0
-0.00311374 0.000199318 0
-0.00335068 0.000127204 0
-0.00335068 0.000127204 0
-0.00345466 6.05164e-05 0
-0.00345466 6.05164e-05 0
-0.00343525 3.68211e-06 0
-0.00343525 3.68211e-06 0
-0.00330917 -4.06297e-05 0
-0.00330917 -4.06297e-05 0
-0.00309415 -6.9989e-05 0
-0.00309415 -6.9989e-05 0
-0.0028072 -7.7989e-05 0
-0.0028072 -7.7989e-05 0
-0.00246133 -5.22043e-05 0
-0.00246133 -5.22043e-05 0
-0.00208274 1.80517e-05 0
-0.00208274 1.80517e-05 0
-0.00186772 0.000143354 0
-0.00186772 0.000143354 0
-0.00101886 0.000594553 0
-0.00101886 0.000594553 0
-7.91445e-06 7.174e-06 0
-7.91445e-06 7.174e-06 0
-8.09408e-06 1.46643e-05 0
-8.09408e-06 1.46643e-05 0
-8.23332e-06 2.98055e-05 0
-8.23332e-06 2.98055e-05 0
-8.22128e-06 4.50253e-05 0
-8.22128e-06 4.50253e-05 0
-8.30267e-06 6.0292e-05 0
-8.30267e-06 6.0292e-05 0
-8.42202e-06 7.58275e-05 0
-8.42202e-06 7.58275e-05 0
-8.56672e-06 9.16705e-05 0
-8.56672e-06 9.16705e-05 0
-8.73436e-06 0.000107876 0
-8.73436e-06 0.000107876 0
-8.92323e-06 0.000124496 0
-8.92323e-06 0.000124496 0
-9.13114e-06 0.000141581 0
-9.13114e-06 0.000141581 0
-9.35465e-06 0.00015917 0
-9.35465e-06 0.00015917 0
-9.58996e-06 0.000177299 0
-9.58996e-06 0.000177299 0
-9.83225e-06 0.000195993 0
-9.83225e-06 0.000195993 0
-1.00752e-05 0.000215264 0
-1.00752e-05 0.000215264 0
-1.03113e-05 0.000235112 0
-1.03113e-05 0.000235112 0
-1.05318e-05 0.000255515 0
-1.05318e-05 0.000255515 0
-1.07246e-05 0.000276436 0
-1.07246e-05 0.000276436 0
-1.08787e-05 0.000297809 0
-1.08787e-05 0.000297809 0
-1.09775e-05 0.000319547 0
-1.09775e-05 0.000319547 0
-1.10062e-05 0.000341524 0
-1.10062e-05 0.000341524 0
-1.09463e-05 0.000363581 0
-1.09463e-05 0.000363581 0
-1.07726e-05 0.000385523 0
-1.07726e-05 0.000385523 0
-1.04701e-05 0.000407097 0
-1.04701e-05 0.000407097 0
-1.00203e-05 0.00042802 0
-1.00203e-05 0.00042802 0
-9.39324e-06 0.000447961 0
-9.39324e-06 0.000447961 0
-8.56722e-06 0.000466518 0
-8.56722e-06 0.000466518 0
-7.53494e-06 0.000483273 0
-7.53494e-06 0.000483273 0
-6.28067e-06 0.000497773 0
-6.28067e-06 0.000497773 0
-4.77779e-06 0.000509541 0
-4.77779e-06 0.000509541 0
-3.00181e-06 0.000518042 0
-3.00181e-06 0.000518042 0
-9.35194e-07 0.000522786 0
-9.35194e-07 0.000522786 0
1.44691e-06 0.00052324 0
1.44691e-06 0.00052324 0
4.18732e-06 0.000518882 0
4.18732e-06 0.000518882 0
7.26573e-06 0.000509181 0
7.26573e-06 0.000509181 0
1.05909e-05 0.000493806 0
1.05909e-05 0.000493806 0
1.40567e-05 0.000472455 0
1.40567e-05 0.000472455 0
1.76622e-05 0.000444882 0
1.76622e-05 0.000444882 0
2.14194e-05 0.000411207 0
2.14194e-05 0.000411207 0
2.55221e-05 0.000370439 0
2.55221e-05 0.000370439 0
2.98723e-05 0.000324319 0
2.98723e-05 0.000324319 0
3.48877e-05 0.000267456 0
3.48877e-05 0.000267456 0
4.12241e-05 0.000208859 0
4.12241e-05 0.000208859 0
4.85171e-05 0.000131671 0
4.85171e-05 0.000131671 0
5.75722e-05 5.54462e-05 0
5.75722e-05 5.54462e-05 0
5.125e-05 -4.41678e-05 0
5.125e-05 -4.41678e-05 0
1.6545e-06 -0.000104315 0
1.6545e-06 -0.000104315 0
-0.000107279 -0.000137755 0
-0.000107279 -0.000137755 0
-0.000183058 2.17716e-05 0
-0.000183058 2.17716e-05 0
-0.000293873 0.00012824 0
-0.000293873 0.00012824 0
-0.000296863 0.000497172 0
-0.000296863 0.000497172 0
-1.46475e-05 6.94479e-06 0
-1.46475e-05 6.94479e-06 0
-2.82753e-05 6.7871e-06 0
-2.82753e-05 6.7871e-06 0
-4.22439e-05 6.84224e-06 0
-4.22439e-05 6.84224e-06 0
-5.61116e-05 6.77752e-06 0
-5.61116e-05 6.77752e-06 0
-6.96991e-05 6.66517e-06 0
-6.96991e-05 6.66517e-06 0
-8.30049e-05 6.51887e-06 0
-8.30049e-05 6.51887e-06 0
-9.59007e-05 6.33393e-06 0
-9.59007e-05 6.33393e-06 0
-0.00010836 6.10606e-06 0
-0.00010836 6.10606e-06 0
-0.000120258 5.83333e-06 0
-0.000120258 5.83333e-06 0
-0.000131541 5.51543e-06 0
-0.000131541 5.51543e-06 0
-0.000142093 5.15014e-06 0
-0.000142093 5.15014e-06 0
-0.000151834 4.73418e-06 0
-0.000151834 4.73418e-06 0
-0.000160659 4.26538e-06 0
-0.000160659 4.26538e-06 0
-0.000168481 3.74357e-06 0
-0.000168481 3.74357e-06 0
-0.000175205 3.16998e-06 0
-0.000175205 3.16998e-06 0
-0.000180747 2.54762e-06 0
-0.000180747 2.54762e-06 0
-0.000185029 1.882e-06 0
-0.000185029 1.882e-06 0
-0.000187979 1.1817e-06 0
-0.000187979 1.1817e-06 0
-0.000189535 4.59667e-07 0
-0.000189535 4.59667e-07 0
-0.000189655 -2.73012e-07 0
-0.000189655 -2.73012e-07 0
-0.000188326 -1.00688e-06 0
-0.000188326 -1.00688e-06 0
-0.000185536 -1.73828e-06 0
-0.000185536 -1.73828e-06 0
-0.000181281 -2.46704e-06 0
-0.000181281 -2.46704e-06 0
-0.000175568 -3.18814e-06 0
-0.000175568 -3.18814e-06 0
-0.00016842 -3.89597e-06 0
-0.00016842 -3.89597e-06 0
-0.000159869 -4.58395e-06 0
-0.000159869 -4.58395e-06 0
-0.000149962 -5.24594e-06 0
-0.000149962 -5.24594e-06 0
-0.000138757 -5.8764e-06 0
-0.000138757 -5.8764e-06 0
-0.000126324 -6.47035e-06 0
-0.000126324 -6.47035e-06 0
-0.000112739 -7.02369e-06 0
-0.000112739 -7.02369e-06 0
-9.80901e-05 -7.533e-06 0
-9.80901e-05 -7.533e-06 0
-8.24674e-05 -7.9956e-06 0
-8.24674e-05 -7.9956e-06 0
-6.59665e-05 -8.41021e-06 0
-6.59665e-05 -8.41021e-06 0
-4.86864e-05 -8.77561e-06 0
-4.86864e-05 -8.77561e-06 0
-3.07289e-05 -9.09193e-06 0
-3.07289e-05 -9.09193e-06 0
-1.21763e-05 -9.36004e-06 0
-1.21763e-05 -9.36004e-06 0
6.88538e-06 -9.58065e-06 0
6.88538e-06 -9.58065e-06 0
2.63378e-05 -9.75586e-06 0
2.63378e-05 -9.75586e-06 0
4.60811e-05 -9.88785e-06 0
4.60811e-05 -9.88785e-06 0
6.60385e-05 -9.97881e-06 0
6.60385e-05 -9.97881e-06 0
8.61352e-05 -1.00315e-05 0
8.61352e-05 -1.00315e-05 0
0.000106302 -1.00489e-05 0
0.000106302 -1.00489e-05 0
0.00012647 -1.00339e-05 0
0.00012647 -1.00339e-05 0
0.000146579 -9.98959e-06 0
0.000146579 -9.98959e-06 0
0.000166573 -9.91888e-06 0
0.000166573 -9.91888e-06 0
0.000186399 -9.82477e-06 0
0.000186399 -9.82477e-06 0
0.000206015 -9.70994e-06 0
0.000206015 -9.70994e-06 0
0.000225382 -9.57716e-06 0
0.000225382 -9.57716e-06 0
0.000244467 -9.42905e-06 0
0.000244467 -9.42905e-06 0
0.000263242 -9.26787e-06 0
0.000263242 -9.26787e-06 0
0.000281681 -9.09564e-06 0
0.000281681 -9.09564e-06 0
0.000299766 -8.91447e-06 0
0.000299766 -8.91447e-06 0
0.00031748 -8.72637e-06 0
0.00031748 -8.72637e-06 0
0.000334811 -8.53291e-06 0
0.000334811 -8.53291e-06 0
0.00035175 -8.33545e-06 0
0.00035175 -8.33545e-06 0
0.00036829 -8.13528e-06 0
0.00036829 -8.13528e-06 0
0.000384427 -7.93376e-06 0
0.000384427 -7.93376e-06 0
0.00040016 -7.7319e-06 0
0.00040016 -7.7319e-06 0
0.000415489 -7.53038e-06 0
0.000415489 -7.53038e-06 0
0.000430414 -7.33028e-06 0
0.000430414 -7.33028e-06 0
0.000444941 -7.13214e-06 0
0.000444941 -7.13214e-06 0
0.000459072 -6.93655e-06 0
0.000459072 -6.93655e-06 0
0.000472814 -6.74371e-06 0
0.000472814 -6.74371e-06 0
0.000486172 -6.5539e-06 0
0.000486172 -6.5539e-06 0
0.000499155 -6.36827e-06 0
0.000499155 -6.36827e-06 0
0.00051177 -6.18698e-06 0
0.00051177 -6.18698e-06 0
0.000524026 -6.00963e-06 0
0.000524026 -6.00963e-06 0
0.000535929 -5.83649e-06 0
0.000535929 -5.83649e-06 0
0.00054749 -5.66782e-06 0
0.00054749 -5.66782e-06 0
0.000558717 -5.50354e-06 0
0.000558717 -5.50354e-06 0
0.000569619 -5.34398e-06 0
0.000569619 -5.34398e-06 0
0.000580207 -5.18929e-06 0
0.000580207 -5.18929e-06 0
0.000590488 -5.03913e-06 0
0.000590488 -5.03913e-06 0
0.000600473 -4.89342e-06 0
0.000600473 -4.89342e-06 0
0.000610169 -4.75212e-06 0
0.000610169 -4.75212e-06 0
0.000619588 -4.61525e-06 0
0.000619588 -4.61525e-06 0
0.000628737 -4.4829e-06 0
0.000628737 -4.4829e-06 0
0.000637624 -4.35484e-06 0
0.000637624 -4.35484e-06 0
0.000646259 -4.23084e-06 0
0.000646259 -4.23084e-06 0
0.00065465 -4.11138e-06 0
0.00065465 -4.11138e-06 0
0.000662805 -3.99611e-06 0
0.000662805 -3.99611e-06 0
0.000670731 -3.88454e-06 0
0.000670731 -3.88454e-06 0
0.000678438 -3.77658e-06 0
0.000678438 -3.77658e-06 0
0.000685932 -3.67247e-06 0
0.000685932 -3.67247e-06 0
0.000693222 -3.57225e-06 0
0.000693222 -3.57225e-06 0
0.000700311 -3.47557e-06 0
0.000700311 -3.47557e-06 0
0.000707215 -3.38213e-06 0
0.000707215 -3.38213e-06 0
0.000713925 -3.29212e-06 0
0.000713925 -3.29212e-06 0
0.000720474 -3.20526e-06 0
0.000720474 -3.20526e-06 0
0.000726826 -3.12189e-06 0
0.000726826 -3.12189e-06 0
0.000733053 -3.04131e-06 0
0.000733053 -3.04131e-06 0
0.00073906 -2.96419e-06 0
0.00073906 -2.96419e-06 0
0.000745006 -2.88826e-06 0
0.000745006 -2.88826e-06 0
0.000750663 -2.81695e-06 0
0.000750663 -2.81695e-06 0
0.000756395 -2.7463e-06 0
0.000756395 -2.7463e-06 0
0.000761656 -2.68196e-06 0
0.000761656 -2.68196e-06 0
0.000767294 -2.61419e-06 0
0.000767294 -2.61419e-06 0
0.00077202 -2.55745e-06 0
0.00077202 -2.55745e-06 0
0.978593 -0.00304903 0
0.978593 -0.00304903 0
1.95641 -0.00609553 0
1.95641 -0.00609553 0
