/*--------------------------------*- C++ -*----------------------------------*\
| =========                 |                                                 |
| \\      /  F ield         | OpenFOAM: The Open Source CFD Toolbox           |
|  \\    /   O peration     | Version:  4.1                                   |
|   \\  /    A nd           | Web:      www.OpenFOAM.org                      |
|    \\/     M anipulation  |                                                 |
\*---------------------------------------------------------------------------*/
FoamFile
{
    version     2.0;
    format      ascii;
    class       volScalarField;
    location    "0.11";
    object      k;
}
// * * * * * * * * * * * * * * * * * * * * * * * * * * * * * * * * * * * * * //

dimensions      [0 2 -2 0 0 0 0];

internalField   nonuniform List<scalar> 
43750
(
0.384097
0.392936
0.401496
0.409764
0.417728
0.425384
0.432723
0.439736
0.446417
0.452754
0.458742
0.46437
0.469632
0.474519
0.479023
0.483138
0.486857
0.490172
0.493077
0.495566
0.497632
0.49927
0.500473
0.501237
0.501556
0.501428
0.500848
0.499815
0.49833
0.496395
0.494017
0.491205
0.487975
0.484346
0.480344
0.476001
0.471351
0.46643
0.461275
0.455915
0.450375
0.444667
0.438799
0.432769
0.426575
0.420218
0.413699
0.407026
0.400208
0.393254
0.386173
0.378973
0.371661
0.364246
0.356737
0.349148
0.341491
0.33378
0.326026
0.318241
0.310436
0.302618
0.294795
0.286974
0.279162
0.271365
0.263591
0.255845
0.248136
0.240471
0.232858
0.225304
0.217817
0.210406
0.203077
0.19584
0.188702
0.18167
0.174752
0.167957
0.161292
0.154765
0.148386
0.142163
0.136107
0.130227
0.124534
0.119038
0.11375
0.108679
0.103834
0.0992194
0.0948393
0.0906929
0.0867771
0.0830856
0.0796067
0.0763513
0.0732405
0.0703886
0.349404
0.327115
0.307703
0.290738
0.275871
0.262816
0.251332
0.241221
0.232319
0.224486
0.217605
0.211576
0.206315
0.201748
0.197815
0.194461
0.191643
0.18932
0.187461
0.186037
0.185026
0.184409
0.18417
0.184295
0.184775
0.185601
0.186767
0.188264
0.190087
0.192228
0.194678
0.197424
0.200453
0.203747
0.207289
0.211057
0.215033
0.219202
0.223554
0.228088
0.232813
0.237743
0.2429
0.248303
0.253963
0.259872
0.265989
0.27222
0.278417
0.284378
0.289878
0.294707
0.298726
0.301895
0.304276
0.306012
0.307274
0.308232
0.309017
0.309723
0.3104
0.31107
0.311736
0.312388
0.313006
0.313565
0.31403
0.314363
0.314519
0.314447
0.314092
0.313391
0.312281
0.310693
0.308554
0.305793
0.302337
0.298117
0.293069
0.287139
0.280282
0.272471
0.2637
0.253985
0.24337
0.231932
0.219779
0.207054
0.193932
0.18062
0.167345
0.154355
0.1419
0.130225
0.119559
0.110105
0.102012
0.0954779
0.0897606
0.0749348
0.349122
0.326223
0.305921
0.287816
0.271587
0.256971
0.243755
0.231759
0.220836
0.210859
0.201724
0.193342
0.185635
0.17854
0.171999
0.165964
0.160394
0.155252
0.150506
0.146129
0.142097
0.13839
0.134988
0.131876
0.12904
0.126467
0.124146
0.122067
0.120219
0.118592
0.117177
0.115961
0.114934
0.114081
0.113388
0.112843
0.11243
0.11214
0.111965
0.111902
0.111955
0.112133
0.112449
0.112922
0.113572
0.11442
0.11548
0.116757
0.118236
0.11987
0.121587
0.123294
0.124901
0.126343
0.127596
0.128677
0.129632
0.130516
0.131377
0.132246
0.133141
0.134068
0.135028
0.136022
0.137049
0.138105
0.139185
0.140283
0.141388
0.142489
0.14357
0.144617
0.145608
0.146523
0.147338
0.148025
0.148556
0.148898
0.149019
0.148885
0.148463
0.147719
0.146626
0.145157
0.143296
0.141034
0.138373
0.135329
0.131934
0.128235
0.124298
0.120204
0.116047
0.111936
0.107978
0.104289
0.100954
0.0981515
0.0950185
0.0783018
0.349121
0.326216
0.3059
0.287773
0.271509
0.256846
0.243565
0.231485
0.220455
0.210349
0.201058
0.192491
0.184569
0.177225
0.1704
0.164044
0.158112
0.152567
0.147374
0.142505
0.137933
0.133636
0.129593
0.125788
0.122204
0.118828
0.115648
0.112655
0.109838
0.10719
0.104705
0.102375
0.100196
0.098162
0.0962685
0.0945113
0.0928865
0.091391
0.0900227
0.0887808
0.0876662
0.086682
0.0858333
0.0851282
0.0845775
0.0841955
0.0839988
0.0840034
0.0842187
0.0846406
0.085245
0.085986
0.086802
0.0876266
0.0884046
0.0891031
0.0897165
0.0902615
0.0907658
0.0912571
0.0917557
0.0922736
0.0928157
0.0933832
0.0939753
0.0945909
0.0952283
0.0958852
0.0965588
0.0972454
0.0979409
0.0986406
0.0993391
0.10003
0.100708
0.101363
0.101989
0.102577
0.103117
0.103599
0.104014
0.104351
0.1046
0.104753
0.104801
0.104738
0.10456
0.104264
0.103853
0.103332
0.102709
0.101998
0.101214
0.100377
0.0995058
0.098624
0.097736
0.0969568
0.0954557
0.0803567
0.349121
0.326216
0.305898
0.287769
0.271503
0.256837
0.243552
0.231468
0.220434
0.210322
0.201025
0.192449
0.184516
0.177159
0.170317
0.16394
0.157984
0.152408
0.147179
0.142265
0.13764
0.133281
0.129164
0.125273
0.121589
0.118098
0.114786
0.11164
0.108652
0.105809
0.103105
0.100532
0.0980832
0.0957537
0.093539
0.091436
0.0894425
0.0875574
0.0857812
0.0841153
0.0825629
0.0811284
0.0798183
0.0786407
0.0776062
0.0767274
0.0760181
0.0754917
0.0751574
0.0750162
0.0750566
0.0752521
0.0755628
0.0759412
0.076342
0.0767313
0.0770927
0.0774264
0.0777443
0.0780613
0.0783908
0.0787411
0.0791163
0.0795178
0.0799454
0.0803985
0.0808764
0.0813782
0.081903
0.0824494
0.0830157
0.0835999
0.0841997
0.0848123
0.0854345
0.0860627
0.0866929
0.0873209
0.0879419
0.0885512
0.089144
0.0897155
0.0902615
0.0907783
0.0912627
0.0917128
0.0921275
0.0925068
0.0928518
0.0931642
0.0934455
0.0936967
0.0939165
0.0941016
0.0942432
0.0943335
0.0943419
0.0943599
0.0936957
0.0818449
0.349121
0.326216
0.305898
0.287767
0.2715
0.256833
0.243548
0.231463
0.220429
0.210316
0.201018
0.192442
0.184509
0.177151
0.170308
0.163931
0.157973
0.152396
0.147164
0.142247
0.137619
0.133254
0.129132
0.125232
0.121539
0.118035
0.114708
0.111545
0.108534
0.105665
0.10293
0.10032
0.0978282
0.0954489
0.0931771
0.0910091
0.0889422
0.0869754
0.0851085
0.0833432
0.0816824
0.0801307
0.0786942
0.0773813
0.0762018
0.0751672
0.0742888
0.0735753
0.07303
0.0726477
0.0724134
0.0723033
0.0722888
0.0723413
0.0724366
0.0725576
0.0726954
0.0728476
0.0730158
0.0732029
0.0734113
0.0736422
0.0738958
0.0741722
0.0744712
0.0747925
0.0751363
0.0755026
0.0758916
0.0763034
0.0767382
0.0771959
0.0776762
0.0781789
0.0787032
0.0792481
0.0798121
0.0803936
0.0809904
0.0815998
0.0822189
0.0828445
0.0834732
0.0841015
0.0847262
0.0853442
0.0859533
0.0865516
0.0871378
0.0877111
0.0882706
0.0888143
0.0893378
0.089834
0.0902894
0.0906911
0.0910008
0.0913121
0.09113
0.0832492
0.349121
0.326216
0.305898
0.287766
0.271499
0.256831
0.243545
0.23146
0.220425
0.210312
0.201013
0.192437
0.184503
0.177145
0.170302
0.163925
0.157967
0.152389
0.147157
0.14224
0.137612
0.133247
0.129124
0.125224
0.121529
0.118025
0.114697
0.111531
0.108518
0.105646
0.102907
0.100292
0.0977938
0.0954067
0.0931256
0.0909464
0.0888664
0.0868841
0.0849995
0.0832138
0.0815298
0.079952
0.0784863
0.0771405
0.0759238
0.0748469
0.0739198
0.07315
0.072539
0.0720794
0.0717538
0.0715371
0.0714018
0.0713243
0.0712884
0.0712858
0.0713143
0.0713735
0.0714634
0.0715826
0.0717285
0.0718982
0.0720895
0.0723005
0.0725305
0.0727789
0.0730456
0.0733307
0.0736344
0.0739572
0.0742995
0.0746618
0.0750446
0.0754483
0.0758733
0.0763197
0.0767877
0.0772771
0.0777874
0.0783179
0.0788675
0.0794349
0.0800182
0.0806154
0.081224
0.0818413
0.0824647
0.0830913
0.0837181
0.0843422
0.0849603
0.0855679
0.0861591
0.0867253
0.0872529
0.0877301
0.0881191
0.0885243
0.0886591
0.0848063
0.349121
0.326216
0.305898
0.287766
0.271498
0.25683
0.243544
0.231458
0.220423
0.21031
0.201011
0.192434
0.184501
0.177142
0.1703
0.163922
0.157964
0.152387
0.147156
0.142239
0.137611
0.133246
0.129124
0.125224
0.12153
0.118026
0.114697
0.111532
0.108519
0.105647
0.102907
0.100292
0.0977928
0.0954047
0.0931221
0.0909409
0.0888584
0.0868729
0.0849844
0.0831941
0.0815046
0.0799203
0.0784468
0.0770914
0.0758629
0.0747709
0.0738247
0.073031
0.072391
0.0718978
0.0715348
0.0712783
0.0711021
0.0709834
0.0709071
0.0708657
0.0708573
0.0708826
0.0709414
0.0710321
0.0711513
0.0712953
0.0714609
0.0716457
0.0718481
0.0720676
0.0723036
0.0725562
0.0728254
0.0731116
0.0734152
0.0737365
0.0740761
0.0744342
0.0748114
0.0752078
0.0756235
0.0760586
0.0765129
0.0769859
0.0774769
0.0779851
0.0785093
0.0790479
0.0795991
0.0801608
0.0807306
0.0813059
0.0818837
0.0824609
0.0830336
0.0835972
0.0841456
0.084671
0.0851614
0.0856081
0.0859761
0.0863823
0.0867358
0.0865901
0.349121
0.326216
0.305898
0.287766
0.271498
0.25683
0.243543
0.231458
0.220422
0.210309
0.20101
0.192433
0.184499
0.177141
0.170299
0.163921
0.157964
0.152387
0.147155
0.142239
0.137611
0.133247
0.129125
0.125225
0.121532
0.118028
0.1147
0.111535
0.108522
0.10565
0.102911
0.100296
0.0977974
0.0954094
0.0931268
0.0909456
0.0888628
0.086877
0.084988
0.0831969
0.0815066
0.079921
0.0784458
0.0770881
0.0758563
0.0747592
0.0738055
0.0730011
0.0723465
0.0718348
0.0714504
0.0711715
0.0709745
0.0708381
0.0707473
0.0706936
0.0706738
0.0706874
0.0707339
0.0708119
0.0709185
0.0710501
0.0712034
0.071376
0.0715661
0.0717729
0.0719959
0.072235
0.0724905
0.0727625
0.0730516
0.0733581
0.0736826
0.0740256
0.0743873
0.0747679
0.0751676
0.075586
0.0760229
0.0764775
0.0769486
0.077435
0.0779348
0.0784459
0.0789659
0.0794917
0.0800205
0.0805489
0.0810735
0.0815908
0.0820972
0.0825885
0.0830599
0.0835059
0.0839174
0.0842909
0.0845954
0.0849611
0.0854708
0.0885927
0.349121
0.326216
0.305898
0.287766
0.271498
0.25683
0.243543
0.231458
0.220422
0.210309
0.20101
0.192433
0.1845
0.177141
0.170299
0.163922
0.157965
0.152388
0.147157
0.142242
0.137614
0.13325
0.129128
0.125229
0.121536
0.118032
0.114705
0.111541
0.108528
0.105657
0.102918
0.100303
0.0978053
0.0954177
0.0931356
0.0909547
0.0888722
0.0868867
0.084998
0.0832072
0.0815171
0.0799317
0.0784567
0.0770991
0.0758671
0.0747694
0.0738141
0.0730065
0.0723462
0.0718256
0.0714291
0.0711359
0.0709244
0.0707754
0.0706749
0.070614
0.0705884
0.0705964
0.0706369
0.0707084
0.0708081
0.0709326
0.0710788
0.0712442
0.071427
0.0716264
0.0718417
0.072073
0.0723203
0.0725842
0.0728651
0.0731637
0.0734805
0.0738161
0.0741712
0.074546
0.0749407
0.0753553
0.0757894
0.0762423
0.0767127
0.0771989
0.0776986
0.0782089
0.0787263
0.0792467
0.0797657
0.0802784
0.0807799
0.0812653
0.0817301
0.0821699
0.0825806
0.0829585
0.0832976
0.0835998
0.0838385
0.0841568
0.0847897
0.0907798
0.349121
0.326217
0.305898
0.287767
0.271499
0.25683
0.243544
0.231458
0.220422
0.210309
0.201011
0.192434
0.184501
0.177143
0.170301
0.163924
0.157967
0.152391
0.14716
0.142245
0.137618
0.133254
0.129133
0.125235
0.121542
0.118039
0.114712
0.111548
0.108536
0.105665
0.102927
0.100313
0.097815
0.0954279
0.0931462
0.0909658
0.0888839
0.0868989
0.0850106
0.0832204
0.0815308
0.0799461
0.0784719
0.0771152
0.0758843
0.0747879
0.0738339
0.0730269
0.0723661
0.0718425
0.07144
0.0711377
0.0709153
0.0707554
0.0706455
0.0705774
0.0705463
0.07055
0.0705866
0.0706543
0.0707501
0.0708707
0.0710128
0.071174
0.0713525
0.0715473
0.0717578
0.0719839
0.0722258
0.072484
0.0727589
0.0730513
0.073362
0.0736915
0.0740408
0.0744102
0.0748003
0.0752114
0.0756433
0.0760954
0.076567
0.0770563
0.077561
0.0780782
0.0786038
0.0791331
0.0796605
0.0801797
0.0806843
0.0811674
0.0816229
0.0820451
0.0824291
0.082772
0.0830693
0.0833265
0.0835207
0.083806
0.084552
0.0931185
0.349122
0.326217
0.305899
0.287768
0.2715
0.256831
0.243545
0.231459
0.220424
0.210311
0.201012
0.192436
0.184503
0.177145
0.170304
0.163927
0.157971
0.152395
0.147165
0.14225
0.137623
0.13326
0.129139
0.125241
0.121549
0.118047
0.11472
0.111557
0.108545
0.105675
0.102938
0.100324
0.0978269
0.0954404
0.0931592
0.0909793
0.0888979
0.0869135
0.0850258
0.0832362
0.0815473
0.0799634
0.0784901
0.0771346
0.0759052
0.0748109
0.0738592
0.0730547
0.0723956
0.0718719
0.0714664
0.071158
0.0709267
0.0707568
0.0706375
0.0705616
0.0705245
0.0705238
0.0705572
0.0706223
0.070716
0.0708346
0.0709748
0.071134
0.0713105
0.0715031
0.0717111
0.0719346
0.0721735
0.0724283
0.0726995
0.0729878
0.073294
0.0736188
0.073963
0.0743274
0.0747126
0.0751189
0.0755467
0.0759957
0.0764654
0.0769545
0.0774613
0.0779828
0.0785154
0.0790544
0.0795938
0.080127
0.0806462
0.0811436
0.0816111
0.0820416
0.0824289
0.082769
0.0830575
0.0833014
0.0834794
0.0837539
0.0846164
0.0955857
0.349122
0.326217
0.305899
0.287768
0.2715
0.256832
0.243546
0.23146
0.220425
0.210312
0.201014
0.192438
0.184506
0.177149
0.170307
0.163931
0.157975
0.1524
0.14717
0.142256
0.13763
0.133267
0.129147
0.12525
0.121558
0.118056
0.11473
0.111568
0.108557
0.105688
0.10295
0.100337
0.0978406
0.0954547
0.0931741
0.0909948
0.088914
0.0869302
0.0850432
0.0832542
0.0815661
0.079983
0.0785108
0.0771567
0.0759291
0.0748371
0.0738884
0.073087
0.0724305
0.0719079
0.0715007
0.0711871
0.0709478
0.0707683
0.0706393
0.070555
0.0705115
0.0705061
0.0705363
0.0705994
0.0706917
0.0708093
0.0709489
0.0711076
0.0712836
0.0714758
0.0716833
0.0719061
0.0721443
0.072398
0.0726679
0.0729545
0.0732586
0.073581
0.0739223
0.0742834
0.074665
0.0750675
0.0754913
0.0759366
0.0764029
0.0768896
0.0773951
0.0779173
0.0784529
0.0789978
0.0795464
0.0800922
0.0806274
0.0811437
0.0816321
0.0820843
0.0824925
0.0828515
0.0831553
0.0834112
0.083597
0.0838811
0.0848683
0.098167
0.349122
0.326218
0.3059
0.287769
0.271501
0.256833
0.243547
0.231462
0.220427
0.210315
0.201017
0.192441
0.184509
0.177152
0.170312
0.163936
0.157981
0.152406
0.147177
0.142263
0.137637
0.133275
0.129156
0.125259
0.121568
0.118067
0.114742
0.11158
0.10857
0.105701
0.102964
0.100352
0.097856
0.0954708
0.0931909
0.0910123
0.0889322
0.0869491
0.0850627
0.0832745
0.0815872
0.0800051
0.078534
0.0771814
0.0759558
0.0748664
0.0739209
0.0731231
0.0724697
0.0719487
0.0715402
0.0712218
0.0709743
0.0707848
0.0706457
0.0705524
0.0705019
0.0704913
0.0705182
0.0705792
0.0706703
0.0707874
0.0709268
0.0710858
0.0712623
0.071455
0.0716633
0.0718869
0.0721258
0.0723802
0.0726507
0.0729378
0.0732421
0.0735644
0.0739055
0.0742659
0.0746463
0.0750473
0.0754693
0.0759124
0.0763765
0.0768611
0.077365
0.0778865
0.078423
0.0789709
0.0795254
0.0800806
0.0806292
0.0811631
0.0816734
0.0821509
0.082587
0.0829751
0.0833077
0.0835904
0.0837995
0.084107
0.0852267
0.100854
0.349122
0.326218
0.3059
0.28777
0.271502
0.256834
0.243548
0.231464
0.220429
0.210317
0.201019
0.192444
0.184513
0.177156
0.170317
0.163941
0.157986
0.152412
0.147184
0.142271
0.137646
0.133285
0.129166
0.12527
0.121579
0.118079
0.114755
0.111593
0.108584
0.105716
0.10298
0.100368
0.0978734
0.0954888
0.0932096
0.0910318
0.0889524
0.0869699
0.0850844
0.083297
0.0816106
0.0800295
0.0785596
0.0772085
0.0759851
0.0748986
0.0739566
0.0731627
0.0725129
0.0719938
0.0715842
0.0712609
0.071005
0.0708049
0.0706549
0.0705519
0.0704935
0.0704773
0.0705003
0.0705589
0.0706487
0.0707653
0.0709049
0.0710643
0.0712416
0.0714355
0.0716451
0.0718702
0.0721107
0.0723669
0.0726393
0.0729283
0.0732346
0.0735589
0.0739017
0.0742638
0.0746457
0.075048
0.0754709
0.0759147
0.0763792
0.0768639
0.0773681
0.0778902
0.0784281
0.0789787
0.0795379
0.0801005
0.0806601
0.0812091
0.0817391
0.0822409
0.0827054
0.0831252
0.0834909
0.0838067
0.0840461
0.084384
0.0856414
0.103643
0.349122
0.326218
0.305901
0.28777
0.271503
0.256836
0.24355
0.231466
0.220431
0.21032
0.201023
0.192448
0.184517
0.177161
0.170322
0.163948
0.157993
0.152419
0.147192
0.142279
0.137655
0.133295
0.129177
0.125282
0.121592
0.118092
0.114769
0.111608
0.1086
0.105732
0.102997
0.100386
0.0978922
0.0955084
0.09323
0.0910529
0.0889743
0.0869927
0.085108
0.0833215
0.081636
0.080056
0.0785875
0.0772381
0.076017
0.0749334
0.0739952
0.0732056
0.0725597
0.0720429
0.0716326
0.0713045
0.0710398
0.0708284
0.0706666
0.0705529
0.070486
0.0704634
0.0704819
0.0705377
0.070626
0.070742
0.0708816
0.0710415
0.0712197
0.0714148
0.071626
0.0718529
0.0720955
0.0723541
0.072629
0.0729208
0.0732301
0.0735575
0.0739037
0.0742693
0.0746547
0.0750605
0.075487
0.0759342
0.076402
0.0768901
0.0773975
0.077923
0.0784645
0.0790196
0.0795846
0.0801548
0.0807247
0.0812874
0.081835
0.0823588
0.0828497
0.0832995
0.0836976
0.0840469
0.084318
0.084688
0.0860857
0.10653
0.349123
0.326219
0.305902
0.287771
0.271504
0.256837
0.243552
0.231468
0.220434
0.210323
0.201026
0.192452
0.184522
0.177167
0.170328
0.163954
0.158
0.152427
0.147201
0.142289
0.137666
0.133306
0.129189
0.125294
0.121606
0.118107
0.114784
0.111624
0.108616
0.10575
0.103016
0.100406
0.0979125
0.0955296
0.0932521
0.0910759
0.0889982
0.0870175
0.0851336
0.0833481
0.0816636
0.0800847
0.0786175
0.07727
0.0760512
0.0749708
0.0740366
0.0732515
0.07261
0.072096
0.0716852
0.0713523
0.0710786
0.0708553
0.0706808
0.0705557
0.0704792
0.0704494
0.070463
0.0705156
0.070602
0.0707171
0.0708565
0.0710169
0.071196
0.0713923
0.0716051
0.071834
0.0720789
0.0723401
0.0726179
0.0729129
0.0732257
0.073557
0.0739074
0.0742775
0.0746679
0.0750789
0.0755108
0.0759637
0.0764375
0.0769316
0.0774453
0.0779774
0.0785258
0.0790883
0.0796615
0.0802413
0.0808226
0.0813991
0.0819635
0.0825077
0.0830225
0.0834998
0.0839278
0.0843082
0.0846092
0.0850102
0.0865487
0.109515
0.349123
0.326219
0.305902
0.287772
0.271506
0.256839
0.243554
0.23147
0.220437
0.210326
0.20103
0.192457
0.184527
0.177173
0.170334
0.163961
0.158008
0.152436
0.14721
0.142299
0.137677
0.133318
0.129202
0.125308
0.12162
0.118122
0.1148
0.111642
0.108635
0.105769
0.103036
0.100427
0.0979343
0.0955524
0.0932758
0.0911005
0.0890237
0.087044
0.0851612
0.0833766
0.0816932
0.0801155
0.0786498
0.0773041
0.0760878
0.0750107
0.0740807
0.0733005
0.0726637
0.0721528
0.0717419
0.0714043
0.0711214
0.0708857
0.0706978
0.0705602
0.0704734
0.0704357
0.0704436
0.0704925
0.0705767
0.0706907
0.0708298
0.0709904
0.0711703
0.0713679
0.0715823
0.0718132
0.0720604
0.0723243
0.0726051
0.0729036
0.0732203
0.0735558
0.073911
0.0742863
0.0746824
0.0750997
0.0755384
0.0759986
0.0764802
0.0769828
0.0775054
0.0780468
0.0786053
0.0791783
0.0797629
0.080355
0.08095
0.0815418
0.0821237
0.0826879
0.0832255
0.0837281
0.0841833
0.0845919
0.0849201
0.0853497
0.0870286
0.112597
0.349123
0.32622
0.305903
0.287773
0.271507
0.25684
0.243556
0.231473
0.22044
0.21033
0.201034
0.192462
0.184532
0.177179
0.170341
0.163969
0.158017
0.152445
0.14722
0.14231
0.137689
0.133331
0.129215
0.125323
0.121636
0.118139
0.114818
0.11166
0.108654
0.10579
0.103058
0.100449
0.0979578
0.0955769
0.0933012
0.0911269
0.0890511
0.0870724
0.0851905
0.083407
0.0817247
0.0801483
0.0786841
0.0773403
0.0761266
0.0750529
0.0741273
0.0733522
0.0727204
0.0722131
0.0718025
0.0714605
0.0711683
0.0709197
0.0707176
0.0705666
0.0704685
0.0704221
0.0704239
0.0704685
0.0705501
0.0706628
0.0708013
0.0709622
0.0711428
0.0713416
0.0715576
0.0717904
0.07204
0.0723066
0.0725907
0.0728927
0.0732134
0.0735536
0.0739138
0.0742948
0.0746972
0.0751215
0.0755679
0.0760366
0.0765274
0.0770401
0.0775736
0.0781267
0.0786977
0.0792843
0.0798832
0.0804907
0.0811021
0.0817117
0.0823129
0.0828981
0.0834584
0.0839854
0.0844661
0.0849008
0.0852538
0.0857096
0.0875285
0.115776
0.349123
0.32622
0.305904
0.287774
0.271508
0.256842
0.243558
0.231475
0.220443
0.210334
0.201039
0.192467
0.184538
0.177185
0.170349
0.163977
0.158026
0.152456
0.147231
0.142322
0.137701
0.133344
0.12923
0.125338
0.121652
0.118156
0.114836
0.11168
0.108675
0.105812
0.10308
0.100473
0.0979828
0.0956029
0.0933283
0.091155
0.0890802
0.0871025
0.0852217
0.0834393
0.0817582
0.080183
0.0787203
0.0773785
0.0761674
0.0750973
0.0741762
0.0734064
0.07278
0.0722767
0.0718669
0.0715208
0.0712192
0.0709573
0.0707403
0.070575
0.0704648
0.0704089
0.0704037
0.0704437
0.0705224
0.0706334
0.0707713
0.0709322
0.0711134
0.0713133
0.0715309
0.0717657
0.0720178
0.0722872
0.0725745
0.0728803
0.0732053
0.0735502
0.0739158
0.0743028
0.074712
0.0751437
0.0755985
0.0760765
0.0765777
0.0771017
0.0776476
0.0782143
0.0788
0.0794024
0.0800184
0.0806441
0.0812749
0.081905
0.0825279
0.083136
0.0837202
0.0842721
0.0847779
0.0852376
0.0856138
0.0860944
0.0880529
0.119054
0.349124
0.326221
0.305904
0.287775
0.27151
0.256844
0.24356
0.231478
0.220446
0.210337
0.201043
0.192472
0.184544
0.177192
0.170356
0.163986
0.158035
0.152466
0.147242
0.142334
0.137714
0.133358
0.129245
0.125355
0.12167
0.118175
0.114856
0.111701
0.108697
0.105834
0.103104
0.100498
0.098009
0.0956302
0.0933567
0.0911845
0.0891109
0.0871342
0.0852546
0.0834733
0.0817934
0.0802196
0.0787585
0.0774187
0.0762103
0.0751438
0.0742273
0.0734631
0.0728424
0.0723436
0.0719349
0.071585
0.0712741
0.0709986
0.070766
0.0705855
0.0704623
0.0703961
0.0703833
0.0704181
0.0704935
0.0706025
0.0707395
0.0709003
0.0710821
0.071283
0.0715022
0.0717391
0.0719936
0.0722659
0.0725566
0.0728662
0.0731956
0.0735456
0.0739168
0.0743103
0.0747266
0.0751664
0.0756302
0.0761182
0.0766306
0.0771669
0.0777265
0.0783083
0.0789105
0.0795308
0.0801662
0.0808126
0.0814655
0.082119
0.0827663
0.0833997
0.0840099
0.084588
0.0851198
0.0856046
0.0860039
0.0865086
0.0886069
0.12243
0.349124
0.326221
0.305905
0.287776
0.271511
0.256846
0.243563
0.231481
0.22045
0.210341
0.201048
0.192477
0.18455
0.177199
0.170364
0.163995
0.158045
0.152477
0.147254
0.142347
0.137728
0.133373
0.129261
0.125372
0.121688
0.118194
0.114877
0.111722
0.10872
0.105858
0.103129
0.100525
0.0980364
0.0956588
0.0933865
0.0912155
0.089143
0.0871676
0.0852891
0.0835091
0.0818304
0.080258
0.0787986
0.0774608
0.0762551
0.0751922
0.0742805
0.073522
0.0729074
0.0724134
0.0720065
0.0716532
0.0713331
0.0710437
0.0707948
0.0705983
0.0704611
0.0703838
0.0703628
0.0703918
0.0704634
0.0705702
0.0707061
0.0708666
0.0710488
0.0712508
0.0714715
0.0717104
0.0719673
0.0722427
0.0725368
0.0728505
0.0731845
0.0735397
0.0739169
0.0743171
0.074741
0.0751894
0.0756628
0.0761616
0.0766859
0.0772356
0.0778101
0.0784082
0.0790285
0.0796685
0.0803253
0.0809949
0.0816724
0.0823519
0.0830264
0.0836879
0.0843266
0.0849333
0.0854929
0.0860042
0.0864272
0.0869564
0.089195
0.125908
0.349124
0.326222
0.305906
0.287777
0.271513
0.256848
0.243565
0.231484
0.220454
0.210346
0.201053
0.192483
0.184557
0.177207
0.170373
0.164004
0.158056
0.152488
0.147267
0.142361
0.137743
0.133389
0.129278
0.12539
0.121707
0.118215
0.114898
0.111745
0.108744
0.105884
0.103156
0.100552
0.0980653
0.0956888
0.0934177
0.0912479
0.0891767
0.0872025
0.0853253
0.0835465
0.0818692
0.0802982
0.0788404
0.0775047
0.0763018
0.0752425
0.0743356
0.073583
0.0729747
0.0724861
0.0720814
0.0717252
0.0713962
0.0710927
0.0708269
0.0706136
0.0704614
0.0703721
0.070342
0.0703647
0.0704321
0.0705364
0.070671
0.0708311
0.0710136
0.0712165
0.0714386
0.0716795
0.071939
0.0722174
0.0725151
0.0728329
0.0731717
0.0735324
0.0739159
0.0743232
0.0747551
0.0752126
0.0756962
0.0762065
0.0767437
0.0773077
0.0778982
0.078514
0.0791538
0.0798153
0.0804954
0.0811903
0.081895
0.0826033
0.0833079
0.0840004
0.0846706
0.0853087
0.0858984
0.0864383
0.0868869
0.0874418
0.0898217
0.129488
0.349124
0.326222
0.305907
0.287779
0.271514
0.25685
0.243568
0.231487
0.220457
0.21035
0.201058
0.192489
0.184564
0.177215
0.170382
0.164014
0.158067
0.1525
0.14728
0.142375
0.137758
0.133406
0.129296
0.125409
0.121727
0.118236
0.114921
0.111769
0.108769
0.10591
0.103184
0.100581
0.0980953
0.0957201
0.0934503
0.0912818
0.0892118
0.0872389
0.085363
0.0835855
0.0819096
0.0803401
0.078884
0.0775503
0.0763501
0.0752946
0.0743925
0.0736459
0.0730442
0.0725614
0.0721595
0.0718011
0.0714634
0.0711456
0.0708625
0.0706314
0.0704634
0.0703611
0.0703213
0.070337
0.0703998
0.0705012
0.0706342
0.0707937
0.0709763
0.07118
0.0714036
0.0716464
0.0719085
0.0721899
0.0724913
0.0728134
0.0731571
0.0735235
0.0739135
0.0743283
0.0747687
0.0752358
0.0757303
0.0762528
0.0768038
0.0773832
0.0779908
0.0786257
0.0792866
0.0799713
0.0806768
0.0813992
0.0821335
0.0828733
0.083611
0.0843377
0.0850427
0.0857152
0.0863384
0.0869097
0.0873861
0.0879687
0.090491
0.133175
0.349125
0.326223
0.305908
0.28778
0.271516
0.256852
0.24357
0.23149
0.220461
0.210355
0.201064
0.192496
0.184571
0.177223
0.170391
0.164024
0.158078
0.152512
0.147293
0.142389
0.137774
0.133423
0.129314
0.125428
0.121748
0.118258
0.114944
0.111793
0.108795
0.105937
0.103212
0.100611
0.0981266
0.0957528
0.0934843
0.0913171
0.0892485
0.0872769
0.0854023
0.0836261
0.0819516
0.0803836
0.0789291
0.0775976
0.0764001
0.0753482
0.0744511
0.0737106
0.0731157
0.0726391
0.0722408
0.0718806
0.0715347
0.0712027
0.0709017
0.070652
0.0704671
0.070351
0.0703006
0.0703087
0.0703663
0.0704645
0.0705957
0.0707543
0.070937
0.0711414
0.0713663
0.071611
0.0718756
0.0721601
0.0724652
0.0727917
0.0731405
0.0735128
0.0739096
0.0743322
0.0747815
0.0752587
0.0757648
0.0763003
0.0768659
0.0774618
0.0780878
0.0787433
0.0794269
0.0801367
0.0808697
0.081622
0.0823885
0.0831627
0.0839367
0.0847011
0.0854443
0.086155
0.0868151
0.0874212
0.0879286
0.0885413
0.0912073
0.136969
0.349125
0.326223
0.305909
0.287781
0.271517
0.256854
0.243573
0.231494
0.220465
0.21036
0.201069
0.192502
0.184579
0.177231
0.1704
0.164034
0.158089
0.152525
0.147307
0.142404
0.13779
0.13344
0.129333
0.125448
0.12177
0.118281
0.114968
0.111819
0.108821
0.105965
0.103242
0.100642
0.0981592
0.0957867
0.0935196
0.0913538
0.0892865
0.0873162
0.085443
0.0836682
0.0819951
0.0804286
0.0789759
0.0776464
0.0764516
0.0754034
0.0745112
0.0737769
0.0731891
0.0727192
0.0723249
0.0719638
0.0716102
0.0712641
0.0709447
0.0706756
0.070473
0.070342
0.0702801
0.0702799
0.0703318
0.0704264
0.0705554
0.070713
0.0708955
0.0711005
0.0713266
0.0715732
0.0718402
0.0721278
0.0724367
0.0727676
0.0731217
0.0735
0.0739039
0.0743346
0.0747933
0.0752812
0.0757993
0.0763487
0.0769299
0.0775434
0.0781891
0.0788666
0.0795748
0.0803117
0.0810744
0.0818593
0.0826609
0.0834727
0.0842863
0.0850921
0.0858776
0.0866306
0.0873317
0.0879765
0.0885184
0.0891642
0.0919754
0.140875
0.349125
0.326224
0.305909
0.287782
0.271519
0.256856
0.243576
0.231497
0.220469
0.210365
0.201075
0.192509
0.184586
0.17724
0.17041
0.164045
0.158101
0.152538
0.147321
0.14242
0.137807
0.133459
0.129352
0.125469
0.121792
0.118305
0.114993
0.111845
0.108849
0.105995
0.103273
0.100674
0.0981928
0.0958217
0.093556
0.0913916
0.0893258
0.0873569
0.0854851
0.0837118
0.0820401
0.0804751
0.0790241
0.0776967
0.0765046
0.07546
0.0745726
0.0738446
0.0732641
0.0728013
0.0724118
0.0720505
0.0716898
0.0713297
0.0709917
0.0707025
0.070481
0.0703342
0.07026
0.0702507
0.0702964
0.0703868
0.0705134
0.0706698
0.0708519
0.0710572
0.0712845
0.0715328
0.0718022
0.0720929
0.0724055
0.072741
0.0731004
0.073485
0.0738962
0.0743352
0.0748036
0.0753027
0.0758336
0.0763975
0.0769953
0.0776275
0.0782944
0.0789956
0.0797301
0.0804963
0.0812914
0.0821115
0.0829514
0.0838043
0.0846616
0.0855129
0.0863451
0.087145
0.0878919
0.0885799
0.0891605
0.0898429
0.0928006
0.144894
0.349125
0.326224
0.30591
0.287783
0.271521
0.256858
0.243578
0.2315
0.220473
0.210369
0.201081
0.192515
0.184594
0.177248
0.17042
0.164056
0.158113
0.152552
0.147336
0.142436
0.137825
0.133477
0.129372
0.125491
0.121815
0.118329
0.115019
0.111873
0.108878
0.106025
0.103304
0.100707
0.0982274
0.0958579
0.0935937
0.0914308
0.0893664
0.087399
0.0855286
0.0837567
0.0820865
0.0805231
0.0790738
0.0777484
0.0765589
0.0755178
0.0746353
0.0739135
0.0733405
0.0728853
0.0725013
0.0721406
0.0717735
0.0713998
0.0710429
0.0707328
0.0704916
0.0703279
0.0702403
0.0702212
0.07026
0.0703459
0.0704697
0.0706245
0.070806
0.0710116
0.0712398
0.0714898
0.0717616
0.0720553
0.0723716
0.0727116
0.0730764
0.0734674
0.073886
0.0743338
0.0748123
0.075323
0.0758673
0.0764465
0.0770618
0.0777139
0.0784033
0.0791298
0.0798928
0.0806906
0.0815207
0.0823793
0.083261
0.084159
0.0850643
0.0859658
0.0868498
0.087702
0.0884999
0.0892365
0.0898607
0.0905838
0.0936892
0.14903
0.349126
0.326225
0.305911
0.287785
0.271522
0.25686
0.243581
0.231504
0.220477
0.210374
0.201087
0.192522
0.184602
0.177257
0.17043
0.164068
0.158126
0.152565
0.147351
0.142453
0.137842
0.133496
0.129393
0.125513
0.121838
0.118354
0.115046
0.111901
0.108908
0.106056
0.103337
0.100741
0.098263
0.095895
0.0936323
0.091471
0.0894081
0.0874422
0.0855734
0.083803
0.0821343
0.0805724
0.0791248
0.0778014
0.0766145
0.0755769
0.0746991
0.0739836
0.0734182
0.0729709
0.0725931
0.072234
0.0718613
0.0714744
0.0710984
0.0707669
0.0705048
0.0703232
0.0702213
0.0701915
0.0702228
0.0703036
0.0704242
0.0705772
0.0707579
0.0709635
0.0711925
0.0714441
0.071718
0.0720147
0.0723348
0.0726793
0.0730495
0.073447
0.0738732
0.0743299
0.0748188
0.0753415
0.0758998
0.0764952
0.0771289
0.0778021
0.0785154
0.0792691
0.0800626
0.0808946
0.0817626
0.0826631
0.0835906
0.0845381
0.0854963
0.0864535
0.0873951
0.0883056
0.0891609
0.0899522
0.0906256
0.0913944
0.0946489
0.153286
0.349126
0.326226
0.305912
0.287786
0.271524
0.256862
0.243584
0.231507
0.220482
0.21038
0.201093
0.192529
0.18461
0.177266
0.17044
0.164079
0.158139
0.152579
0.147367
0.142469
0.137861
0.133516
0.129414
0.125535
0.121862
0.118379
0.115073
0.111929
0.108938
0.106088
0.10337
0.100776
0.0982995
0.0959331
0.0936721
0.0915123
0.089451
0.0874867
0.0856194
0.0838505
0.0821834
0.0806231
0.0791771
0.0778557
0.0766712
0.075637
0.0747639
0.0740546
0.0734969
0.073058
0.072687
0.0723304
0.0719531
0.0715535
0.0711585
0.0708048
0.070521
0.0703204
0.0702031
0.0701617
0.0701848
0.0702601
0.070377
0.0705279
0.0707075
0.070913
0.0711425
0.0713955
0.0716715
0.071971
0.0722947
0.0726437
0.0730194
0.0734234
0.0738574
0.0743232
0.0748228
0.075358
0.0759308
0.076543
0.0771961
0.0778916
0.0786304
0.079413
0.0802393
0.0811081
0.0820173
0.0829634
0.0839411
0.084943
0.0859597
0.0869789
0.0879848
0.0889608
0.0898807
0.0907338
0.0914633
0.0922836
0.0956884
0.157663
0.349126
0.326226
0.305913
0.287787
0.271526
0.256865
0.243587
0.231511
0.220486
0.210385
0.201099
0.192537
0.184618
0.177276
0.170451
0.164091
0.158152
0.152594
0.147382
0.142487
0.137879
0.133536
0.129436
0.125558
0.121887
0.118406
0.115101
0.111959
0.108969
0.10612
0.103404
0.100812
0.0983371
0.0959724
0.0937129
0.0915548
0.0894951
0.0875323
0.0856666
0.0838992
0.0822336
0.0806749
0.0792307
0.0779112
0.0767291
0.0756981
0.0748295
0.0741264
0.0735765
0.0731462
0.0727829
0.0724297
0.0720489
0.0716373
0.0712233
0.070847
0.0705405
0.0703197
0.070186
0.0701321
0.0701461
0.0702153
0.0703282
0.0704765
0.0706548
0.0708598
0.0710898
0.0713439
0.0716219
0.0719241
0.0722513
0.0726048