/*--------------------------------*- C++ -*----------------------------------*\
| =========                 |                                                 |
| \\      /  F ield         | OpenFOAM: The Open Source CFD Toolbox           |
|  \\    /   O peration     | Version:  4.1                                   |
|   \\  /    A nd           | Web:      www.OpenFOAM.org                      |
|    \\/     M anipulation  |                                                 |
\*---------------------------------------------------------------------------*/
FoamFile
{
    version     2.0;
    format      ascii;
    class       volScalarField;
    location    "0.11";
    object      nut;
}
// * * * * * * * * * * * * * * * * * * * * * * * * * * * * * * * * * * * * * //

dimensions      [0 2 -1 0 0 0 0];

internalField   nonuniform List<scalar> 
43750
(
0.00139176
0.00140768
0.00142293
0.00143751
0.00145141
0.00146465
0.00147723
0.00148916
0.00150042
0.00151104
0.001521
0.0015303
0.00153894
0.00154693
0.00155425
0.00156091
0.00156691
0.00157223
0.00157689
0.00158086
0.00158415
0.00158676
0.00158867
0.00158988
0.00159039
0.00159018
0.00158926
0.00158762
0.00158526
0.00158218
0.00157838
0.00157388
0.00156869
0.00156283
0.00155635
0.00154928
0.00154167
0.00153357
0.00152504
0.00151611
0.00150684
0.00149723
0.00148728
0.001477
0.00146638
0.00145539
0.00144405
0.00143235
0.00142029
0.00140789
0.00139515
0.00138207
0.00136866
0.00135492
0.00134086
0.0013265
0.00131184
0.00129691
0.00128172
0.00126628
0.00125061
0.00123472
0.00121861
0.00120228
0.00118576
0.00116903
0.00115211
0.001135
0.00111772
0.00110026
0.00108265
0.00106489
0.00104699
0.00102897
0.00101083
0.000992595
0.000974275
0.000955887
0.000937446
0.000918971
0.000900482
0.000882002
0.000863557
0.000845178
0.000826898
0.000808756
0.000790796
0.000773067
0.000755618
0.000738503
0.000721776
0.000705485
0.000689675
0.000674376
0.000659612
0.000645396
0.000631715
0.000618649
0.000605903
0.000593953
0.000845979
0.000841619
0.000838762
0.000837272
0.00083704
0.000837943
0.000839855
0.000842654
0.000846222
0.000850443
0.000855204
0.000860397
0.000865922
0.00087169
0.000877626
0.000883669
0.000889777
0.000895925
0.000902111
0.00090835
0.000914677
0.000921143
0.000927819
0.000934786
0.00094214
0.000949983
0.000958427
0.000967583
0.000977564
0.000988479
0.00100043
0.0010135
0.00102776
0.00104328
0.00106007
0.00107815
0.00109751
0.00111811
0.0011399
0.00116282
0.00118682
0.00121186
0.00123789
0.00126492
0.00129293
0.00132186
0.00135156
0.00138168
0.00141166
0.00144076
0.00146813
0.00149298
0.00151477
0.00153331
0.00154878
0.00156167
0.0015726
0.00158223
0.00159111
0.00159964
0.00160808
0.00161658
0.0016252
0.00163394
0.00164275
0.00165158
0.0016603
0.0016688
0.00167691
0.00168446
0.00169126
0.00169707
0.00170165
0.00170474
0.00170606
0.00170531
0.00170217
0.00169633
0.00168747
0.00167529
0.00165947
0.00163976
0.00161593
0.00158782
0.00155534
0.0015185
0.00147744
0.00143241
0.00138386
0.00133236
0.00127871
0.00122385
0.00116891
0.00111515
0.0010639
0.00101659
0.000974492
0.000939019
0.000898311
0.000613139
0.000843657
0.000835913
0.000828821
0.000822309
0.000816321
0.000810815
0.000805756
0.000801115
0.000796872
0.000793011
0.000789519
0.000786388
0.000783611
0.000781183
0.0007791
0.000777359
0.000775957
0.00077489
0.000774154
0.000773744
0.000773652
0.000773871
0.00077439
0.000775197
0.000776276
0.000777612
0.000779187
0.000780983
0.000782979
0.000785159
0.000787507
0.000790011
0.000792662
0.00079546
0.000798409
0.000801518
0.000804806
0.000808296
0.00081202
0.000816015
0.000820327
0.000825007
0.000830116
0.000835721
0.000841894
0.000848713
0.000856251
0.000864556
0.000873623
0.000883355
0.00089355
0.000903905
0.000914071
0.000923728
0.000932667
0.000940834
0.000948312
0.000955279
0.000961937
0.000968471
0.000975023
0.000981697
0.000988567
0.000995684
0.00100309
0.0010108
0.00101883
0.00102717
0.0010358
0.00104471
0.00105383
0.00106313
0.00107254
0.00108197
0.00109134
0.00110053
0.00110941
0.00111785
0.00112568
0.00113274
0.00113882
0.00114373
0.00114727
0.00114922
0.00114938
0.00114756
0.00114361
0.00113741
0.00112889
0.00111806
0.00110504
0.00109004
0.00107339
0.00105554
0.00103707
0.00101865
0.00100094
0.000984914
0.000956586
0.000627012
0.000843648
0.000835876
0.000828726
0.000822118
0.000815985
0.000810271
0.000804931
0.000799926
0.000795221
0.000790789
0.000786607
0.000782655
0.000778915
0.000775374
0.00077202
0.000768843
0.000765837
0.000762997
0.000760318
0.000757798
0.000755436
0.000753233
0.000751191
0.000749311
0.000747596
0.000746051
0.000744679
0.000743486
0.000742477
0.000741656
0.000741028
0.000740598
0.000740372
0.000740354
0.000740555
0.000740983
0.000741655
0.00074259
0.000743813
0.000745356
0.000747258
0.000749562
0.000752312
0.000755557
0.000759343
0.00076371
0.000768693
0.000774311
0.000780559
0.000787392
0.000794716
0.000802368
0.00081012
0.0008177
0.000824839
0.000831336
0.000837102
0.000842169
0.000846658
0.000850734
0.00085456
0.000858271
0.000861968
0.000865725
0.000869594
0.000873615
0.000877818
0.000882223
0.000886842
0.000891682
0.000896743
0.000902022
0.000907511
0.000913198
0.000919065
0.00092509
0.000931246
0.000937501
0.000943816
0.000950141
0.000956421
0.000962592
0.000968583
0.000974315
0.000979698
0.000984634
0.000989018
0.000992744
0.000995709
0.000997816
0.000998983
0.00099915
0.000998288
0.00099641
0.000993562
0.000989874
0.000985421
0.000980738
0.000961954
0.000635315
0.000843648
0.000835876
0.000828725
0.000822114
0.000815978
0.000810259
0.000804911
0.000799894
0.000795172
0.000790717
0.000786503
0.000782509
0.000778714
0.000775103
0.00077166
0.000768373
0.00076523
0.000762223
0.000759342
0.000756581
0.000753934
0.000751395
0.000748959
0.000746624
0.000744387
0.000742247
0.000740204
0.000738258
0.00073641
0.000734664
0.000733025
0.000731498
0.000730092
0.000728821
0.0007277
0.000726753
0.000726006
0.000725495
0.000725263
0.00072536
0.000725843
0.000726776
0.000728225
0.000730259
0.000732946
0.000736344
0.000740496
0.000745416
0.000751071
0.000757376
0.00076418
0.000771275
0.000778411
0.000785325
0.000791778
0.000797599
0.000802712
0.00080714
0.000810983
0.000814377
0.000817464
0.000820367
0.000823187
0.000826
0.000828863
0.000831823
0.000834912
0.000838157
0.000841575
0.000845179
0.000848976
0.000852969
0.000857158
0.00086154
0.000866108
0.000870853
0.000875763
0.000880822
0.000886013
0.000891313
0.000896697
0.000902137
0.000907602
0.000913062
0.000918478
0.000923814
0.000929029
0.000934079
0.000938915
0.000943488
0.000947739
0.000951603
0.000955002
0.000957853
0.000960054
0.000961528
0.000962106
0.000962167
0.000948857
0.000641208
0.000843648
0.000835876
0.000828725
0.000822114
0.000815977
0.000810259
0.00080491
0.000799893
0.000795171
0.000790715
0.0007865
0.000782504
0.000778708
0.000775093
0.000771646
0.000768353
0.000765202
0.000762182
0.000759286
0.000756504
0.00075383
0.000751257
0.00074878
0.000746393
0.000744091
0.000741872
0.000739733
0.00073767
0.000735684
0.000733775
0.000731944
0.000730195
0.000728534
0.000726972
0.000725524
0.000724209
0.000723058
0.000722104
0.000721393
0.000720978
0.00072092
0.000721286
0.000722151
0.000723592
0.000725684
0.000728493
0.000732066
0.000736412
0.000741482
0.000747158
0.000753252
0.000759525
0.000765726
0.00077163
0.000777067
0.000781941
0.000786225
0.000789955
0.000793206
0.00079607
0.000798645
0.000801023
0.000803284
0.000805497
0.00080772
0.000809998
0.000812368
0.000814858
0.00081749
0.000820281
0.000823242
0.000826385
0.000829715
0.00083324
0.00083696
0.000840878
0.000844992
0.000849297
0.000853785
0.000858447
0.000863267
0.000868228
0.000873308
0.000878484
0.000883728
0.000889014
0.000894309
0.000899584
0.000904802
0.000909929
0.000914921
0.000919724
0.00092427
0.000928471
0.000932208
0.000935367
0.000937721
0.00093969
0.000929816
0.000646666
0.000843648
0.000835876
0.000828725
0.000822114
0.000815977
0.000810258
0.00080491
0.000799892
0.000795169
0.000790713
0.000786498
0.000782502
0.000778705
0.00077509
0.000771642
0.000768348
0.000765196
0.000762176
0.000759278
0.000756494
0.000753817
0.000751241
0.000748758
0.000746365
0.000744056
0.000741828
0.000739677
0.0007376
0.000735594
0.00073366
0.000731796
0.000730008
0.000728299
0.00072668
0.000725164
0.000723771
0.000722527
0.000721467
0.000720634
0.00072008
0.000719867
0.000720062
0.000720738
0.00072197
0.000723834
0.000726394
0.000729696
0.000733747
0.000738497
0.000743824
0.000749529
0.000755365
0.000761074
0.000766439
0.000771319
0.000775654
0.000779449
0.000782755
0.000785642
0.000788188
0.000790466
0.000792547
0.000794498
0.000796379
0.000798241
0.000800129
0.000802078
0.000804112
0.000806255
0.00080852
0.000810922
0.00081347
0.000816174
0.000819042
0.000822079
0.000825291
0.000828684
0.000832259
0.000836017
0.000839958
0.000844078
0.00084837
0.000852824
0.000857427
0.00086216
0.000867004
0.000871933
0.00087692
0.000881933
0.000886934
0.000891882
0.000896723
0.00090139
0.0009058
0.000909838
0.000913402
0.000916262
0.000918949
0.000911446
0.000652644
0.000843648
0.000835876
0.000828725
0.000822115
0.000815978
0.000810259
0.00080491
0.000799892
0.00079517
0.000790714
0.000786499
0.000782502
0.000778705
0.000775089
0.000771642
0.000768348
0.000765196
0.000762177
0.00075928
0.000756497
0.00075382
0.000751244
0.000748762
0.000746369
0.00074406
0.000741832
0.00073968
0.000737601
0.000735593
0.000733655
0.000731788
0.000729995
0.000728279
0.000726651
0.000725123
0.000723714
0.00072245
0.000721366
0.000720503
0.000719913
0.000719657
0.000719801
0.000720416
0.000721576
0.000723349
0.000725796
0.000728958
0.000732838
0.000737388
0.000742491
0.00074796
0.000753555
0.000759031
0.000764174
0.000768845
0.00077298
0.000776589
0.00077972
0.000782447
0.000784842
0.000786978
0.000788919
0.000790728
0.000792459
0.000794162
0.000795877
0.000797639
0.000799473
0.000801397
0.000803426
0.000805573
0.000807845
0.000810252
0.000812798
0.00081549
0.000818331
0.000821326
0.000824478
0.000827787
0.000831253
0.000834875
0.000838649
0.000842568
0.000846624
0.000850804
0.000855093
0.000859472
0.000863919
0.000868406
0.000872903
0.00087737
0.000881761
0.000886017
0.000890064
0.000893803
0.000897154
0.000899906
0.000902714
0.000896879
0.000659432
0.000843649
0.000835877
0.000828726
0.000822115
0.000815978
0.000810259
0.000804911
0.000799893
0.000795171
0.000790715
0.0007865
0.000782503
0.000778706
0.000775091
0.000771643
0.00076835
0.000765199
0.00076218
0.000759283
0.000756501
0.000753825
0.000751249
0.000748767
0.000746374
0.000744065
0.000741836
0.000739683
0.000737605
0.000735598
0.000733662
0.000731797
0.000730004
0.000728289
0.00072666
0.00072513
0.000723719
0.000722451
0.000721362
0.000720493
0.000719897
0.000719633
0.000719765
0.000720366
0.000721504
0.000723248
0.000725653
0.000728753
0.000732547
0.000736984
0.000741947
0.000747257
0.000752691
0.000758018
0.000763039
0.000767614
0.000771674
0.000775215
0.00077828
0.000780936
0.00078326
0.000785321
0.000787187
0.000788919
0.000790572
0.000792193
0.000793822
0.000795493
0.00079723
0.000799052
0.000800974
0.000803008
0.000805162
0.000807443
0.000809859
0.000812412
0.000815108
0.000817948
0.000820933
0.000824063
0.000827336
0.000830746
0.000834287
0.000837948
0.000841718
0.000845582
0.000849519
0.00085351
0.00085753
0.000861552
0.000865546
0.000869478
0.000873309
0.000876992
0.000880472
0.000883673
0.000886547
0.000888914
0.000891551
0.000886893
0.000666985
0.000843649
0.000835877
0.000828726
0.000822116
0.000815979
0.000810261
0.000804912
0.000799895
0.000795173
0.000790717
0.000786502
0.000782506
0.000778709
0.000775094
0.000771647
0.000768354
0.000765203
0.000762184
0.000759288
0.000756506
0.00075383
0.000751255
0.000748774
0.000746381
0.000744073
0.000741845
0.000739693
0.000737615
0.000735608
0.000733672
0.000731807
0.000730015
0.000728301
0.000726674
0.000725146
0.000723736
0.00072247
0.000721382
0.000720514
0.000719918
0.000719653
0.000719786
0.000720385
0.000721521
0.00072326
0.000725655
0.000728737
0.000732501
0.000736888
0.000741779
0.000746995
0.000752322
0.000757544
0.000762475
0.000766981
0.000770993
0.000774497
0.00077753
0.000780153
0.000782439
0.000784459
0.000786282
0.000787968
0.000789573
0.000791143
0.000792718
0.000794331
0.000796007
0.000797764
0.00079962
0.000801584
0.000803667
0.000805876
0.000808219
0.0008107
0.000813324
0.000816094
0.000819011
0.000822075
0.000825282
0.000828627
0.0008321
0.000835688
0.000839374
0.000843136
0.00084695
0.000850787
0.000854613
0.000858394
0.000862094
0.000865677
0.000869104
0.000872335
0.000875332
0.000878039
0.000880444
0.000882398
0.00088479
0.000881008
0.00067515
0.000843649
0.000835878
0.000828727
0.000822117
0.000815981
0.000810262
0.000804914
0.000799896
0.000795174
0.000790719
0.000786505
0.00078251
0.000778714
0.0007751
0.000771653
0.000768359
0.000765209
0.00076219
0.000759294
0.000756512
0.000753838
0.000751263
0.000748783
0.000746391
0.000744084
0.000741856
0.000739704
0.000737626
0.00073562
0.000733684
0.00073182
0.000730029
0.000728316
0.00072669
0.000725163
0.000723753
0.000722488
0.000721401
0.000720535
0.000719941
0.000719679
0.000719814
0.000720417
0.000721558
0.000723301
0.0007257
0.000728785
0.000732546
0.00073692
0.000741781
0.000746949
0.000752209
0.000757354
0.000762211
0.000766657
0.000770624
0.000774098
0.000777109
0.000779713
0.000781981
0.000783981
0.000785782
0.000787444
0.000789022
0.000790562
0.000792104
0.000793681
0.000795317
0.000797031
0.00079884
0.000800754
0.000802784
0.000804939
0.000807226
0.00080965
0.000812218
0.000814934
0.0008178
0.000820817
0.000823984
0.000827296
0.000830743
0.000834314
0.000837988
0.000841744
0.000845551
0.000849373
0.00085317
0.000856899
0.000860514
0.000863968
0.000867219
0.000870224
0.000872951
0.000875357
0.000877453
0.000879117
0.000881334
0.000878278
0.000683785
0.000843649
0.000835878
0.000828728
0.000822119
0.000815983
0.000810264
0.000804917
0.000799899
0.000795178
0.000790723
0.00078651
0.000782514
0.000778718
0.000775105
0.000771658
0.000768365
0.000765215
0.000762197
0.000759301
0.00075652
0.000753845
0.000751271
0.000748791
0.000746399
0.000744092
0.000741865
0.000739715
0.000737638
0.000735633
0.000733699
0.000731836
0.000730046
0.000728335
0.000726709
0.000725183
0.000723775
0.000722511
0.000721425
0.00072056
0.000719968
0.000719708
0.000719847
0.000720454
0.0007216
0.000723351
0.00072576
0.000728855
0.000732625
0.000737002
0.000741855
0.000746995
0.000752211
0.000757297
0.000762091
0.00076648
0.000770403
0.000773847
0.000776839
0.000779432
0.000781691
0.000783685
0.000785479
0.000787133
0.0007887
0.000790228
0.000791755
0.000793314
0.000794929
0.00079662
0.000798401
0.000800284
0.00080228
0.000804397
0.000806643
0.000809023
0.000811545
0.000814214
0.000817032
0.000820004
0.000823128
0.000826403
0.000829821
0.000833372
0.000837039
0.0008408
0.000844625
0.000848477
0.000852313
0.000856082
0.000859733
0.00086321
0.000866461
0.000869438
0.000872105
0.000874419
0.000876405
0.000877952
0.000880119
0.000877735
0.000692786
0.00084365
0.000835879
0.000828729
0.00082212
0.000815984
0.000810266
0.000804918
0.000799901
0.000795181
0.000790726
0.000786513
0.000782518
0.000778723
0.000775109
0.000771663
0.000768371
0.000765222
0.000762204
0.000759309
0.000756529
0.000753855
0.000751282
0.000748802
0.000746412
0.000744106
0.00074188
0.000739731
0.000737655
0.000735652
0.000733718
0.000731855
0.000730065
0.000728354
0.000726729
0.000725203
0.000723796
0.000722533
0.000721449
0.000720586
0.000719996
0.000719738
0.00071988
0.000720491
0.000721643
0.000723403
0.000725823
0.000728932
0.000732716
0.000737104
0.000741956
0.00074708
0.000752259
0.000757293
0.000762028
0.000766362
0.000770242
0.000773655
0.000776629
0.000779213
0.00078147
0.000783465
0.000785261
0.000786916
0.000788484
0.000790012
0.000791537
0.000793093
0.000794702
0.000796385
0.000798157
0.000800028
0.000802008
0.000804107
0.00080633
0.000808685
0.000811178
0.000813814
0.000816597
0.000819532
0.000822619
0.000825856
0.000829241
0.000832765
0.000836414
0.000840169
0.000844004
0.000847884
0.000851766
0.000855601
0.000859333
0.000862903
0.000866252
0.000869323
0.000872073
0.000874453
0.00087649
0.00087807
0.000880305
0.000878581
0.000702084
0.00084365
0.000835879
0.00082873
0.000822121
0.000815986
0.000810269
0.000804922
0.000799906
0.000795185
0.000790731
0.000786517
0.000782523
0.000778728
0.000775115
0.00077167
0.000768379
0.00076523
0.000762213
0.000759319
0.000756539
0.000753866
0.000751294
0.000748815
0.000746426
0.000744121
0.000741895
0.000739747
0.000737672
0.000735668
0.000733735
0.000731873
0.000730084
0.000728374
0.00072675
0.000725226
0.00072382
0.000722558
0.000721475
0.000720613
0.000720024
0.000719769
0.000719913
0.000720529
0.000721688
0.000723457
0.00072589
0.000729015
0.000732815
0.000737216
0.000742072
0.000747182
0.000752327
0.000757311
0.000761987
0.000766265
0.000770098
0.00077348
0.000776435
0.000779011
0.000781267
0.000783266
0.000785068
0.00078673
0.000788305
0.00078984
0.000791372
0.000792933
0.000794548
0.000796235
0.000798009
0.000799882
0.000801863
0.000803959
0.000806179
0.000808528
0.000811011
0.000813635
0.000816402
0.000819318
0.000822383
0.000825597
0.000828958
0.000832459
0.00083609
0.000839836
0.000843672
0.00084757
0.00085149
0.000855387
0.000859205
0.000862886
0.000866366
0.000869585
0.000872492
0.000875029
0.000877214
0.000878926
0.000881313
0.000880243
0.000711637
0.00084365
0.00083588
0.000828731
0.000822122
0.000815987
0.00081027
0.000804924
0.000799908
0.000795188
0.000790734
0.000786521
0.000782527
0.000778733
0.000775121
0.000771677
0.000768386
0.000765238
0.000762222
0.000759329
0.00075655
0.000753878
0.000751306
0.000748829
0.00074644
0.000744136
0.000741911
0.000739763
0.000737689
0.000735687
0.000733755
0.000731895
0.000730108
0.000728398
0.000726775
0.000725252
0.000723846
0.000722585
0.000721502
0.000720641
0.000720054
0.000719801
0.000719948
0.000720568
0.000721734
0.000723513
0.000725959
0.000729102
0.000732921
0.000737338
0.0007422
0.000747298
0.00075241
0.000757341
0.000761956
0.000766174
0.000769958
0.000773305
0.000776239
0.000778805
0.000781061
0.000783064
0.000784874
0.000786546
0.000788131
0.000789676
0.000791218
0.00079279
0.000794415
0.000796113
0.000797899
0.000799783
0.000801775
0.000803882
0.000806112
0.00080847
0.000810961
0.00081359
0.000816362
0.000819279
0.000822343
0.000825554
0.00082891
0.000832405
0.000836032
0.000839776
0.000843619
0.000847535
0.000851489
0.00085544
0.000859338
0.000863125
0.00086674
0.000870119
0.000873206
0.000875933
0.000878311
0.000880203
0.000882785
0.000882355
0.00072142
0.000843651
0.000835881
0.000828732
0.000822123
0.000815988
0.000810271
0.000804925
0.00079991
0.00079519
0.000790737
0.000786526
0.000782533
0.000778739
0.000775128
0.000771685
0.000768395
0.000765248
0.000762232
0.000759339
0.000756561
0.00075389
0.000751319
0.000748843
0.000746455
0.000744152
0.000741928
0.000739781
0.000737709
0.000735708
0.000733778
0.000731918
0.000730131
0.000728422
0.000726799
0.000725276
0.000723871
0.000722611
0.000721529
0.00072067
0.000720084
0.000719833
0.000719984
0.000720608
0.000721781
0.00072357
0.000726031
0.000729192
0.000733033
0.000737468
0.000742338
0.000747426
0.000752505
0.000757383
0.000761932
0.000766086
0.000769816
0.000773125
0.000776035
0.000778591
0.000780844
0.000782852
0.000784669
0.000786351
0.000787947
0.000789503
0.000791058
0.000792643
0.000794282
0.000795994
0.000797795
0.000799695
0.000801704
0.00080383
0.000806079
0.000808456
0.000810968
0.000813618
0.000816409
0.000819346
0.000822428
0.000825657
0.000829029
0.000832541
0.000836184
0.000839946
0.000843811
0.000847755
0.00085175
0.000855757
0.00085973
0.000863618
0.00086736
0.000870892
0.000874156
0.000877076
0.000879653
0.000881737
0.000884525
0.00088471
0.000731414
0.000843651
0.000835881
0.000828733
0.000822125
0.000815991
0.000810275
0.000804929
0.000799914
0.000795195
0.000790743
0.000786532
0.000782539
0.000778746
0.000775136
0.000771693
0.000768404
0.000765258
0.000762243
0.000759352
0.000756575
0.000753905
0.000751335
0.000748859
0.000746473
0.00074417
0.000741947
0.000739801
0.000737729
0.000735729
0.0007338
0.000731941
0.000730155
0.000728447
0.000726826
0.000725304
0.0007239
0.00072264
0.00072156
0.000720701
0.000720117
0.000719867
0.00072002
0.000720649
0.000721829
0.000723629
0.000726105
0.000729286
0.000733149
0.000737604
0.000742485
0.000747566
0.000752612
0.000757435
0.000761917
0.000766002
0.000769674
0.00077294
0.000775823
0.000778365
0.000780615
0.000782626
0.000784451
0.000786143
0.00078775
0.000789319
0.000790886
0.000792484
0.000794138
0.000795866
0.000797684
0.000799603
0.000801632
0.00080378
0.000806053
0.000808457
0.000810997
0.000813676
0.0008165
0.000819469
0.000822586
0.00082585
0.000829258
0.000832807
0.000836487
0.000840289
0.000844197
0.000848189
0.000852239
0.000856312
0.000860366
0.000864353
0.000868217
0.000871893
0.000875322
0.000878423
0.000881189
0.000883457
0.000886445
0.000887211
0.000741606
0.000843651
0.000835882
0.000828734
0.000822126
0.000815993
0.000810277
0.000804932
0.000799917
0.000795199
0.000790748
0.000786538
0.000782547
0.000778755
0.000775145
0.000771703
0.000768415
0.000765269
0.000762256
0.000759366
0.00075659
0.000753921
0.000751351
0.000748876
0.00074649
0.000744188
0.000741966
0.000739822
0.000737751
0.000735752
0.000733824
0.000731965
0.00073018
0.000728473
0.000726852
0.000725331
0.000723928
0.000722671
0.000721592
0.000720734
0.000720151
0.000719903
0.000720059
0.000720692
0.000721878
0.000723689
0.000726181
0.000729382
0.000733269
0.000737747
0.000742641
0.000747716
0.000752732
0.000757499
0.00076191
0.000765923
0.000769532
0.00077275
0.000775603
0.000778129
0.000780374
0.000782387
0.000784219
0.00078592
0.000787539
0.000789119
0.0007907
0.000792312
0.000793981
0.000795725
0.000797561
0.0007995
0.000801552
0.000803724
0.000806025
0.000808458
0.00081103
0.000813746
0.000816608
0.00081962
0.000822782
0.000826094
0.000829554
0.000833156
0.000836894
0.000840757
0.000844728
0.000848789
0.000852913
0.000857069
0.000861217
0.000865311
0.000869297
0.000873112
0.000876696
0.000879965
0.000882906
0.000885343
0.000888518
0.000889826
0.000751987
0.000843652
0.000835883
0.000828735
0.000822128
0.000815995
0.00081028
0.000804936
0.000799922
0.000795205
0.000790754
0.000786544
0.000782553
0.000778762
0.000775153
0.000771712
0.000768425
0.00076528
0.000762268
0.000759378
0.000756603
0.000753935
0.000751367
0.000748893
0.000746508
0.000744207
0.000741987
0.000739844
0.000737774
0.000735776
0.000733848
0.000731992
0.000730208
0.000728502
0.000726882
0.000725362
0.00072396
0.000722703
0.000721625
0.000720768
0.000720186
0.00071994
0.000720098
0.000720735
0.000721928
0.000723749
0.000726257
0.00072948
0.000733393
0.000737896
0.000742805
0.000747877
0.000752863
0.000757575
0.000761912
0.000765848
0.00076939
0.000772557
0.000775375
0.000777883
0.00078012
0.000782135
0.000783973
0.000785684
0.000787313
0.000788906
0.000790499
0.000792126
0.00079381
0.000795572
0.000797426
0.000799386
0.000801461
0.00080366
0.000805989
0.000808454
0.000811062
0.000813818
0.000816723
0.000819783
0.000822998
0.000826368
0.00082989
0.00083356
0.000837371
0.000841311
0.000845366
0.000849515
0.000853734
0.000857992
0.00086225
0.000866463
0.000870578
0.000874535
0.000878272
0.0008817
0.000884804
0.000887398
0.000890745
0.000892558
0.000762548
0.000843652
0.000835884
0.000828736
0.000822129
0.000815996
0.000810282
0.000804938
0.000799925
0.000795208
0.000790758
0.00078655
0.00078256
0.00077877
0.000775163
0.000771722
0.000768436
0.000765293
0.000762282
0.000759393
0.000756619
0.000753952
0.000751385
0.000748912
0.000746529
0.000744229
0.00074201
0.000739867
0.000737799
0.000735802
0.000733876
0.00073202
0.000730238
0.000728533
0.000726914
0.000725395
0.000723993
0.000722736
0.000721658
0.000720802
0.000720221
0.000719976
0.000720137
0.000720778
0.000721978
0.00072381
0.000726335
0.00072958
0.000733519
0.000738048
0.000742976
0.000748047
0.000753005
0.000757661
0.000761923
0.000765779
0.000769249
0.000772359
0.00077514
0.000777626
0.000779855
0.000781869
0.000783713
0.000785433
0.000787073
0.000788678
0.000790285
0.000791925
0.000793625
0.000795405
0.000797279
0.00079926
0.000801359
0.000803585
0.000805944
0.000808444
0.000811091
0.000813888
0.000816842
0.000819954
0.000823227
0.000826661
0.000830255
0.000834003
0.000837898
0.00084193
0.000846083
0.000850338
0.00085467
0.000859048
0.000863434
0.000867783
0.000872042
0.000876148
0.000880042
0.000883628
0.00088689
0.000889632
0.000893142
0.000895424
0.000773286
0.000843652
0.000835884
0.000828737
0.000822131
0.000815999
0.000810285
0.000804941
0.000799929
0.000795213
0.000790763
0.000786555
0.000782566
0.000778777
0.00077517
0.000771731
0.000768446
0.000765303
0.000762293
0.000759405
0.000756632
0.000753966
0.0007514
0.00074893
0.000746548
0.000744251
0.000742033
0.000739893
0.000737825
0.000735829
0.000733904
0.000732049
0.000730267
0.000728564
0.000726946
0.000725428
0.000724028
0.000722771
0.000721693
0.000720838
0.000720257
0.000720014
0.000720176
0.000720821
0.000722028
0.000723871
0.000726412
0.00072968
0.000733647
0.000738205
0.000743154
0.000748227
0.000753159
0.00075776
0.000761945
0.000765716
0.000769109
0.000772159
0.000774898
0.000777359
0.000779577
0.00078159
0.000783439
0.000785167
0.000786818
0.000788435
0.000790055
0.000791711
0.000793427
0.000795224
0.000797118
0.000799122
0.000801246
0.0008035
0.000805891
0.000808427
0.000811114
0.000813957
0.000816961
0.00082013
0.000823466
0.000826971
0.000830642
0.000834475
0.000838464
0.000842599
0.000846864
0.000851241
0.000855702
0.000860218
0.000864749
0.000869251
0.000873669
0.000877939
0.000881998
0.000885749
0.000889171
0.000892061
0.000895729
0.000898447
0.000784195
0.000843653
0.000835885
0.000828739
0.000822134
0.000816002
0.000810289
0.000804946
0.000799934
0.000795218
0.000790769
0.000786561
0.000782573
0.000778785
0.000775179
0.000771741
0.000768457
0.000765316
0.000762307
0.00075942
0.000756648
0.000753983
0.000751418
0.000748948
0.000746568
0.000744271
0.000742055
0.000739916
0.00073785
0.000735855
0.000733931
0.000732077
0.000730297
0.000728594
0.000726978
0.000725461
0.000724061
0.000722806
0.000721729
0.000720874
0.000720295
0.000720052
0.000720217
0.000720866
0.000722078
0.000723932
0.00072649
0.000729781
0.000733777
0.000738365
0.000743337
0.000748415
0.000753324
0.00075787
0.000761976
0.00076566
0.000768971
0.000771956
0.00077465
0.000777083
0.000779287
0.000781298
0.000783151
0.000784887
0.000786548
0.000788177
0.000789811
0.000791481
0.000793213
0.000795029
0.000796943
0.00079897
0.00080112
0.000803404
0.000805829
0.000808402
0.000811132
0.000814023
0.000817081
0.000820311
0.000823714
0.000827294
0.000831049
0.000834975
0.000839067
0.000843314
0.000847703
0.000852213
0.000856819
0.000861488
0.000866183
0.000870855
0.000875449
0.000879899
0.000884138
0.000888065
0.000891656
0.000894698
0.000898527
0.000901649
0.000795276
0.000843653
0.000835886
0.00082874
0.000822135
0.000816005
0.000810292
0.00080495
0.000799939
0.000795224
0.000790776
0.000786569
0.000782582
0.000778794
0.00077519
0.000771753
0.00076847
0.00076533
0.000762322
0.000759437
0.000756667
0.000754004
0.000751441
0.000748972
0.000746592
0.000744297
0.000742082
0.000739943
0.000737879
0.000735885
0.000733962
0.00073211
0.00073033
0.000728628
0.000727012
0.000725495
0.000724097
0.000722842
0.000721766
0.000720911
0.000720333
0.000720091
0.000720258
0.00072091
0.000722129
0.000723993
0.000726567
0.000729881
0.000733906
0.000738526
0.000743524
0.000748611
0.0007535
0.000757993
0.00076202
0.000765612
0.000768837
0.000771752
0.000774395
0.000776797
0.000778986
0.000780992
0.000782848
0.000784591
0.000786263
0.000787904
0.00078955
0.000791235
0.000792984
0.000794818
0.000796754
0.000798804
0.000800982
0.000803296
0.000805756
0.000808369
0.000811143
0.000814085
0.000817201
0.000820495
0.00082397
0.00082763
0.000831475
0.000835501
0.000839704
0.000844073
0.000848596
0.000853251
0.000858015
0.000862854
0.000867728
0.000872588
0.000877377
0.000882025
0.000886462
0.00089058
0.000894353
0.000897558
0.000901554
0.000905051
0.000806528
0.000843654
0.000835887
0.000828742
0.000822137
0.000816007
0.000810295
0.000804954
0.000799943
0.000795229
0.000790781
0.000786576
0.000782589
0.000778803
0.000775199
0.000771764
0.000768482
0.000765344
0.000762337
0.000759453
0.000756683
0.000754021
0.000751459
0.000748992
0.000746614
0.000744321
0.000742108
0.000739971
0.000737907
0.000735915
0.000733993
0.000732142
0.000730363
0.000728661
0.000727046
0.00072553
0.000724132
0.000722878
0.000721802
0.000720949
0.000720371
0.000720131
0.000720299
0.000720954
0.000722179
0.000724053
0.000726643
0.000729981
0.000734036
0.000738689
0.000743716
0.000748815
0.000753687
0.000758128
0.000762075
0.000765574
0.000768708
0.000771547
0.000774135
0.000776502
0.000778673
0.000780673
0.000782531
0.000784281
0.000785962
0.000787614
0.000789274
0.000790974
0.000792739
0.000794592
0.000796549
0.000798624
0.000800829
0.000803175
0.000805671
0.000808326
0.000811147
0.000814142
0.000817318
0.000820681
0.000824233
0.000827979
0.00083192
0.000836053
0.000840375
0.000844876
0.000849543
0.000854357
0.000859292
0.000864315
0.000869385
0.000874452
0.000879455
0.00088432
0.000888974
0.000893302
0.000897274
0.000900658
0.00090483
0.000908674
0.00081795
0.000843654
0.000835888
0.000828742
0.000822138
0.000816008
0.000810296
0.000804955
0.000799945
0.000795232
0.000790787
0.000786582
0.000782597
0.000778812
0.000775209
0.000771775
0.000768494
0.000765357
0.000762352
0.000759469
0.000756701
0.00075404
0.00075148
0.000749015
0.000746638
0.000744346
0.000742133
0.000739998
0.000737936
0.000735945
0.000734024
0.000732175
0.000730397
0.000728697
0.000727083
0.000725568
0.000724171
0.000722917
0.000721842
0.000720989
0.000720412
0.000720172
0.000720341
0.000720999
0.000722229
0.000724113
0.000726718
0.000730079
0.000734164
0.000738852
0.00074391
0.000749025
0.000753884
0.000758277
0.000762144
0.000765546
0.000768585
0.000771343
0.000773871
0.000776199
0.000778348
0.00078034
0.000782198
0.000783955
0.000785645
0.000787309
0.000788982