/*--------------------------------*- C++ -*----------------------------------*\
| =========                 |                                                 |
| \\      /  F ield         | OpenFOAM: The Open Source CFD Toolbox           |
|  \\    /   O peration     | Version:  4.1                                   |
|   \\  /    A nd           | Web:      www.OpenFOAM.org                      |
|    \\/     M anipulation  |                                                 |
\*---------------------------------------------------------------------------*/
FoamFile
{
    version     2.0;
    format      ascii;
    class       surfaceScalarField;
    location    "0.11";
    object      phi;
}
// * * * * * * * * * * * * * * * * * * * * * * * * * * * * * * * * * * * * * //

dimensions      [0 3 -1 0 0 0 0];

internalField   nonuniform List<scalar> 
87025
(
0.0199669
3.31311e-05
0.0199115
5.53861e-05
0.0198454
6.609e-05
0.0197706
7.47918e-05
0.0196877
8.2915e-05
0.0195974
9.02672e-05
0.0195005
9.69055e-05
0.0193974
0.000103115
0.0192883
0.000109107
0.0191733
0.000114969
0.0190526
0.000120737
0.0189261
0.000126449
0.018794
0.000132143
0.0186561
0.000137852
0.0185125
0.000143603
0.0183631
0.000149413
0.0182078
0.000155301
0.0180465
0.000161281
0.0178792
0.000167366
0.0177056
0.000173564
0.0175257
0.000179871
0.0173395
0.000186278
0.0171467
0.000192765
0.0169474
0.000199301
0.0167416
0.000205838
0.0165292
0.000212314
0.0163106
0.000218638
0.0160859
0.000224693
0.0158556
0.000230343
0.0156201
0.000235438
0.0153803
0.000239803
0.0151371
0.000243256
0.0148914
0.00024563
0.0146447
0.00024679
0.014398
0.000246662
0.0141527
0.000245266
0.01391
0.000242748
0.0136706
0.0002394
0.0134349
0.000235658
0.0132029
0.000232057
0.0129737
0.000229147
0.0127464
0.000227364
0.0125194
0.000226908
0.0122918
0.000227672
0.0120625
0.000229278
0.0118313
0.000231222
0.0115982
0.000233071
0.0113636
0.000234615
0.0111277
0.0002359
0.0108905
0.000237138
0.010652
0.000238558
0.0104117
0.000240307
0.0101692
0.000242437
0.00992429
0.000244954
0.00967644
0.000247853
0.00942534
0.0002511
0.00917073
0.00025461
0.00891248
0.000258245
0.00865064
0.00026184
0.0083854
0.000265247
0.00811702
0.000268372
0.00784584
0.000271181
0.00757217
0.000273676
0.0072963
0.000275864
0.00701857
0.000277733
0.00673931
0.000279258
0.0064589
0.000280408
0.00617775
0.00028115
0.0058963
0.000281452
0.00561503
0.000281277
0.00533443
0.000280596
0.00505504
0.00027939
0.00477741
0.00027763
0.00450212
0.000275285
0.00422979
0.000272333
0.00396103
0.000268758
0.00369649
0.000264543
0.00343682
0.000259674
0.00318267
0.000254143
0.00293473
0.000247945
0.00269365
0.000241077
0.00246011
0.000233544
0.00223475
0.000225353
0.00201824
0.000216515
0.00181119
0.000207052
0.00161419
0.000196993
0.00142782
0.000186379
0.00125255
0.000175269
0.00108881
0.00016374
0.000936907
0.0001519
0.000797022
0.000139885
0.000669155
0.000127867
0.000553095
0.00011606
0.000448374
0.000104721
0.000354205
9.4169e-05
0.000269445
8.47601e-05
0.000192366
7.70782e-05
0.000120693
7.16738e-05
5.28874e-05
6.78053e-05
5.28874e-05
0.0200237
9.44414e-06
0.020053
2.61102e-05
0.0200817
3.73931e-05
0.0201099
4.65826e-05
0.0201372
5.55907e-05
0.020163
6.44368e-05
0.020187
7.2938e-05
0.0202089
8.12108e-05
0.0202286
8.94347e-05
0.0202458
9.76958e-05
0.0202606
0.000106022
0.0202726
0.000114439
0.0202817
0.000122979
0.0202879
0.000131671
0.020291
0.000140539
0.0202908
0.000149604
0.0202872
0.000158888
0.0202801
0.000168412
0.0202692
0.000178192
0.0202546
0.000188243
0.0202359
0.000198575
0.0202129
0.000209196
0.0201856
0.000220109
0.0201536
0.000231309
0.0201166
0.000242779
0.0200745
0.000254486
0.0200267
0.000266376
0.0199731
0.000278377
0.019913
0.000290392
0.0198461
0.0003023
0.019772
0.000313954
0.0196901
0.000325186
0.0195999
0.000335824
0.019501
0.000345704
0.0193929
0.000354697
0.0192755
0.000362732
0.0191484
0.000369822
0.0190117
0.000376084
0.0188656
0.000381744
0.0187106
0.000387113
0.0185472
0.000392534
0.0183762
0.000398313
0.0181985
0.00040467
0.0180144
0.000411742
0.017824
0.000419642
0.0176267
0.000428537
0.0174211
0.00043866
0.0172055
0.00045019
0.0169784
0.000463014
0.016739
0.00047652
0.016488
0.000489608
0.0162273
0.000501022
0.0159598
0.000509894
0.0156886
0.000516179
0.0154158
0.000520701
0.0151421
0.000524773
0.0148671
0.0005296
0.0145895
0.000535832
0.0143079
0.000543464
0.0140211
0.00055204
0.0137285
0.000560987
0.0134298
0.000569867
0.013125
0.000578457
0.0128142
0.000586693
0.0124973
0.000594565
0.0121745
0.000602062
0.0118458
0.000609148
0.0115112
0.000615763
0.0111708
0.000621831
0.0108248
0.000627274
0.0104734
0.000632019
0.0101168
0.000635993
0.00975529
0.000639124
0.00938924
0.000641336
0.00901901
0.000642555
0.00864506
0.000642714
0.00826785
0.000641749
0.00788792
0.000639604
0.00750584
0.00063623
0.0071222
0.000631582
0.00673765
0.000625626
0.00635285
0.00061834
0.0059685
0.000609713
0.00558526
0.000599748
0.00520385
0.000588466
0.00482494
0.000575904
0.00444919
0.000562125
0.00407724
0.000547218
0.00370967
0.000531305
0.003347
0.000514578
0.0029896
0.000497277
0.00263777
0.000479699
0.00229162
0.000462215
0.00195107
0.000445266
0.00161586
0.000429383
0.00128548
0.000415136
0.000959287
0.000403273
0.000636535
0.000394425
0.000315799
0.000388542
0.000368687
0.0200006
8.82703e-06
0.020001
2.56869e-05
0.0199985
3.99245e-05
0.0199928
5.22668e-05
0.0199845
6.39521e-05
0.0199736
7.53473e-05
0.0199601
8.63926e-05
0.0199442
9.71344e-05
0.0199259
0.000107717
0.0199053
0.00011824
0.0198826
0.000128744
0.0198578
0.000139255
0.019831
0.000149805
0.0198022
0.000160426
0.0197716
0.000171145
0.0197392
0.000181983
0.0197052
0.000192963
0.0196695
0.000204107
0.0196322
0.000215431
0.0195935
0.000226949
0.0195534
0.000238673
0.019512
0.000250615
0.0194693
0.000262781
0.0194255
0.000275173
0.0193805
0.000287786
0.0193343
0.000300604
0.0192871
0.000313602
0.0192388
0.000326742
0.0191892
0.000339971
0.0191383
0.000353227
0.0190858
0.000366437
0.0190314
0.00037952
0.0189749
0.000392396
0.0189156
0.000404991
0.018853
0.000417252
0.0187866
0.000429159
0.0187157
0.000440731
0.0186397
0.000452043
0.0185582
0.000463224
0.0184709
0.00047444
0.0183776
0.000485851
0.0182784
0.000497553
0.0181735
0.00050954
0.0180635
0.000521735
0.017949
0.000534135
0.0178305
0.000547043
0.0177079
0.000561244
0.0175802
0.00057793
0.0174449
0.00059828
0.0172987
0.000622779
0.0171376
0.000650632
0.0169589
0.00067971
0.0167617
0.000707174
0.0165473
0.000730565
0.0163192
0.000748748
0.0160818
0.000762232
0.0158387
0.000772719
0.0155923
0.000782215
0.0153435
0.000792225
0.0150921
0.0008034
0.0148375
0.000815663
0.0145788
0.000828586
0.0143155
0.000841743
0.0140473
0.000854871
0.013774
0.000867872
0.0134953
0.000880722
0.0132111
0.000893403
0.012921
0.000905869
0.0126247
0.000918055
0.0123221
0.000929878
0.0120129
0.000941254
0.0116968
0.000952096
0.0113736
0.000962316
0.0110431
0.000971825
0.0107051
0.000980529
0.0103595
0.000988335
0.0100061
0.000995156
0.00964481
0.00100091
0.00927554
0.0010055
0.00889827
0.00100886
0.00851298
0.00101091
0.00811973
0.00101159
0.00771857
0.00101087
0.00730964
0.00100869
0.00689308
0.00100503
0.00646911
0.000999874
0.00603799
0.000993243
0.00560004
0.000985167
0.00515563
0.000975716
0.0047052
0.00096501
0.00424925
0.000953223
0.00378836
0.000940594
0.00332313
0.000927447
0.0028542
0.000914194
0.00238224
0.000901343
0.00190793
0.000889445
0.00143201
0.000879193
0.000955471
0.000870963
0.000478092
0.00086592
0.000846779
0.0199997
9.0847e-06
0.0199984
2.70301e-05
0.0199946
4.37539e-05
0.0199876
5.92072e-05
0.0199776
7.39446e-05
0.0199647
8.83265e-05
0.0199486
0.000102409
0.0199296
0.000116217
0.0199074
0.000129837
0.0198823
0.000143361
0.0198542
0.000156843
0.0198232
0.000170316
0.0197892
0.00018381
0.0197522
0.000197356
0.0197124
0.00021098
0.0196697
0.000224703
0.0196241
0.000238548
0.0195757
0.000252532
0.0195244
0.00026667
0.0194704
0.000280971
0.0194136
0.000295446
0.0193541
0.000310099
0.019292
0.000324934
0.0192272
0.000339945
0.0191599
0.000355123
0.01909
0.00037045
0.0190177
0.000385896
0.0189431
0.000401427
0.018866
0.000416999
0.0187867
0.00043256
0.0187051
0.000448055
0.0186212
0.000463429
0.0185349
0.000478629
0.0184463
0.000493619
0.0183552
0.000508376
0.0182614
0.000522905
0.0181649
0.000537243
0.0180655
0.000551465
0.017963
0.000565683
0.0178575
0.000580025
0.0177487
0.000594594
0.0176369
0.000609403
0.0175221
0.000624322
0.0174047
0.000639127
0.0172851
0.000653687
0.0171639
0.000668308
0.0170411
0.000684049
0.0169162
0.000702781
0.0167878
0.000726736
0.0166529
0.000757597
0.0165081
0.000795453
0.0163496
0.000838227
0.0161747
0.000882028
0.0159829
0.000922429
0.0157756
0.000956074
0.015556
0.0009818
0.015328
0.00100072
0.0150949
0.00101533
0.0148588
0.00102828
0.0146208
0.00104145
0.0143808
0.00105561
0.0141386
0.00107077
0.0138938
0.00108656
0.013646
0.00110264
0.0133951
0.00111883
0.0131407
0.00113506
0.0128828
0.00115133
0.0126211
0.00116761
0.0123553
0.00118387
0.0120851
0.00120004
0.0118103
0.00121609
0.0115304
0.00123193
0.0112452
0.00124753
0.0109542
0.0012628
0.0106571
0.0012777
0.0103533
0.00129215
0.0100423
0.00130611
0.00972372
0.00131949
0.00939696
0.00133226
0.00906147
0.00134435
0.00871668
0.0013557
0.008362
0.00136627
0.00799686
0.00137601
0.00762068
0.00138487
0.0072329
0.0013928
0.00683301
0.00139976
0.00642056
0.0014057
0.00599517
0.00141055
0.00555661
0.00141428
0.00510477
0.00141685
0.00463976
0.00141823
0.00416189
0.00141846
0.00367173
0.00141761
0.00317012
0.0014158
0.00265818
0.00141329
0.00213729
0.00141034
0.0016091
0.00140737
0.00107565
0.00140442
0.000538107
0.00140346
0.00138489
0.0199992
9.86521e-06
0.0199967
2.95469e-05
0.0199919
4.85901e-05
0.0199843
6.68118e-05
0.0199738
8.44086e-05
0.0199605
0.000101628
0.0199443
0.000118573
0.0199253
0.000135278
0.0199033
0.000151805
0.0198784
0.000168227
0.0198507
0.000184604
0.01982
0.000200974
0.0197865
0.00021737
0.01975
0.000233823
0.0197106
0.000250361
0.0196683
0.000267009
0.0196231
0.000283789
0.0195749
0.000300721
0.0195237
0.000317821
0.0194696
0.000335103
0.0194125
0.000352578
0.0193523
0.000370254
0.0192891
0.000388133
0.0192228
0.000406214
0.0191535
0.000424487
0.019081
0.000442939
0.0190053
0.000461543
0.0189265
0.000480271
0.0188444
0.000499085
0.018759
0.000517943
0.0186703
0.000536798
0.0185781
0.000555606
0.0184824
0.000574326
0.0183831
0.000592927
0.0182801
0.000611393
0.0181733
0.000629728
0.0180625
0.000647958
0.0179479
0.000666137
0.0178292
0.000684342
0.0177066
0.000702659
0.01758
0.000721131
0.0174497
0.0007397
0.0173159
0.00075819
0.0171786
0.000776392
0.017038
0.000794319
0.0168937
0.000812567
0.0167452
0.000832603
0.0165912
0.000856715
0.0164305
0.000887433
0.0162616
0.000926514
0.0160832
0.000973875
0.0158944
0.00102704
0.0156949
0.00108155
0.015485
0.00113227
0.0152659
0.00117515
0.0150392
0.00120855
0.0148065
0.00123342
0.0145693
0.00125248
0.0143288
0.00126881
0.0140855
0.00128473
0.0138397
0.00130141
0.0135914
0.00131905
0.0133406
0.00133737
0.0130872
0.00135606
0.0128311
0.00137492
0.0125723
0.00139387
0.0123107
0.00141291
0.0120463
0.00143202
0.011779
0.00145119
0.0115087
0.00147038
0.0112352
0.00148957
0.0109584
0.00150871
0.0106781
0.00152778
0.0103942
0.00154677
0.0101062
0.00156565
0.00981395
0.00158442
0.009517
0.00160306
0.00921491
0.00162158
0.0089072
0.00163998
0.00859328
0.00165827
0.0082725
0.00167647
0.00794416
0.00169461
0.00760746
0.00171271
0.00726156
0.00173077
0.00690554
0.00174882
0.00653849
0.00176682
0.00615943
0.00178475
0.00576745
0.00180253
0.0053617
0.00182004
0.00494142
0.00183712
0.00450609
0.00185356
0.00405543
0.00186913
0.00358947
0.00188356
0.00310869
0.00189659
0.00261398
0.001908
0.00210673
0.00191758
0.00158882
0.00192529
0.0010626
0.00193064
0.000530369
0.00193569
0.00191526
0.019999
1.08946e-05
0.0199959
3.26315e-05
0.0199905
5.39826e-05
0.0199825
7.47969e-05
0.0199718
9.51256e-05
0.0199583
0.00011511
0.019942
0.000134846
0.0199229
0.000154377
0.019901
0.00017375
0.0198762
0.000193024
0.0198485
0.000212253
0.019818
0.000231477
0.0197847
0.00025073
0.0197485
0.000270044
0.0197094
0.000289446
0.0196674
0.000308964
0.0196226
0.000328621
0.0195749
0.000348439
0.0195243
0.000368439
0.0194707
0.000388637
0.0194143
0.000409046
0.0193548
0.000429679
0.0192924
0.000450542
0.019227
0.000471637
0.0191585
0.00049296
0.019087
0.000514503
0.0190123
0.000536249
0.0189343
0.000558178
0.0188532
0.000580265
0.0187686
0.000602478
0.0186806
0.000624785
0.0185891
0.000647154
0.0184939
0.00066956
0.0183948
0.000691982
0.0182918
0.000714411
0.0181847
0.000736851
0.0180733
0.000759324
0.0179576
0.000781867
0.0178374
0.000804538
0.0177126
0.000827388
0.0175834
0.000850417
0.0174495
0.000873519
0.0173112
0.000896496
0.0171684
0.000919205
0.0170209
0.00094189
0.0168678
0.000965584
0.0167081
0.000992328
0.0165399
0.0010249
0.0163614
0.00106596
0.0161711
0.00111679
0.0159687
0.00117629
0.015755
0.00124073
0.0155319
0.00130463
0.0153018
0.00136244
0.0150665
0.00141039
0.0148276
0.00144751
0.0145855
0.00147551
0.0143403
0.00149765
0.0140919
0.00151723
0.0138401
0.00153658
0.0135847
0.00155673
0.013326
0.00157781
0.0130638
0.0015995
0.0127984
0.00162151
0.0125297
0.00164365
0.0122577
0.00166588
0.0119824
0.00168817
0.0117039
0.00171052
0.0114222
0.0017329
0.0111373
0.00175528
0.0108492
0.00177762
0.010558
0.00179991
0.0102637
0.00182213
0.00996619
0.00184427
0.0096655
0.00186634
0.00936156
0.00188836
0.00905426
0.00191035
0.00874347
0.00193237
0.00842898
0.00195447
0.00811051
0.00197674
0.00778772
0.00199926
0.00746018
0.00202215
0.00712736
0.00204553
0.00678863
0.0020695
0.00644326
0.00209419
0.00609041
0.00211967
0.00572917
0.00214599
0.00535854
0.00217316
0.00497749
0.00220108
0.00458505
0.00222957
0.00418028
0.00225833
0.00376248
0.00228694
0.00333117
0.00231486
0.00288629
0.00234147
0.00242823
0.00236607
0.00195792
0.00238788
0.00147687
0.00240633
0.000987179
0.00242034
0.000491379
0.00243149
0.00240663
0.0199989
1.20317e-05
0.0199955
3.60234e-05
0.0199897
5.97513e-05
0.0199814
8.3113e-05
0.0199704
0.000106108
0.0199567
0.000128808
0.0199403
0.000151285
0.0199211
0.000173587
0.0198991
0.000195752
0.0198743
0.000217829
0.0198466
0.000239866
0.0198162
0.000261904
0.019783
0.000283977
0.0197469
0.000306116
0.019708
0.000328351
0.0196662
0.000350711
0.0196216
0.000373219
0.0195742
0.000395901
0.0195238
0.000418776
0.0194706
0.000441866
0.0194145
0.000465187
0.0193554
0.000488753
0.0192934
0.000512576
0.0192283
0.000536661
0.0191603
0.000561009
0.0190892
0.000585618
0.0190149
0.000610478
0.0189375
0.000635575
0.0188569
0.000660894
0.018773
0.000686416
0.0186856
0.000712119
0.0185948
0.000737985
0.0185004
0.000763998
0.0184022
0.000790148
0.0183002
0.000816433
0.0181942
0.000842862
0.018084
0.000869454
0.0179697
0.000896246
0.0178509
0.000923286
0.0177277
0.000950613
0.0175999
0.000978206
0.0174675
0.00100594
0.0173304
0.0010336
0.0171885
0.00106112
0.0170414
0.00108892
0.0168886
0.00111844
0.0167286
0.00115229
0.0165597
0.0011938
0.0163798
0.0012459
0.016187
0.00130954
0.0159808
0.00138256
0.0157617
0.00145974
0.0155322
0.00153419
0.015295
0.00159963
0.0150529
0.00165246
0.0148078
0.00169263
0.0145604
0.00172297
0.0143104
0.00174762
0.0140573
0.00177029
0.0138006
0.00179329
0.0135399
0.00181744
0.0132751
0.00184264
0.0130061
0.00186846
0.0127331
0.00189457
0.0124559
0.0019208
0.0121747
0.00194712
0.0118893
0.00197352
0.0115999
0.00199998
0.0113063
0.00202646
0.0110087
0.00205291
0.010707
0.00207929
0.0104013
0.00210556
0.0100918
0.00213169
0.00977839
0.00215767
0.00946125
0.00218349
0.00914044
0.00220916
0.00881607
0.00223473
0.00848821
0.00226023
0.00815692
0.00228575
0.00782226
0.0023114
0.00748423
0.00233729
0.00714279
0.0023636
0.00679782
0.00239049
0.00644916
0.00241817
0.00609651
0.00244684
0.0057395
0.00247668
0.00537764
0.00250786
0.0050103
0.00254049
0.00463681
0.00257457
0.00425638
0.00261
0.00386822
0.00264649
0.00347157
0.00268358
0.00306582
0.00272062
0.00265058
0.00275671
0.00222582
0.00279082
0.00179195
0.00282176
0.00134986
0.00284842
0.000900947
0.00286925
0.000447243
0.00288519
0.00285388
0.0199988
1.32279e-05
0.0199952
3.95967e-05
0.0199892
6.57621e-05
0.0199807
9.16576e-05
0.0199695
0.000117272
0.0199557
0.00014264
0.0199392
0.000167813
0.0199199
0.000192835
0.0198979
0.000217744
0.0198732
0.000242582
0.0198456
0.00026739
0.0198153
0.000292209
0.0197822
0.000317073
0.0197463
0.000342014
0.0197076
0.000367061
0.0196661
0.000392242
0.0196217
0.000417584
0.0195745
0.000443113
0.0195244
0.000468853
0.0194715
0.000494826
0.0194156
0.000521053
0.0193568
0.00054755
0.0192951
0.000574332
0.0192303
0.00060141
0.0191625
0.000628788
0.0190917
0.000656469
0.0190177
0.000684451
0.0189406
0.000712727
0.0188602
0.000741288
0.0187765
0.000770122
0.0186894
0.000799219
0.0185988
0.000828568
0.0185046
0.000858161
0.0184068
0.000887998
0.0183051
0.000918081
0.0181996
0.000948422
0.01809
0.000979043
0.0179762
0.00100997
0.0178583
0.00104127
0.0177359
0.00107295
0.0176091
0.00110501
0.0174778
0.00113729
0.0173418
0.00116959
0.017201
0.00120186
0.0170553
0.00123467
0.016904
0.00126975
0.0167461
0.00131019
0.01658
0.00135987
0.0164038
0.00142211
0.0162156
0.00149777
0.0160141
0.00158399
0.0157996
0.00167426
0.0155735
0.00176028
0.0153384
0.00183476
0.015097
0.00189388
0.0148514
0.00193814
0.014603
0.00197139
0.0143519
0.00199873
0.0140977
0.00202447
0.0138399
0.00205109
0.013578
0.00207934
0.0133118
0.00210889
0.0130411
0.00213918
0.0127658
0.00216982
0.012486
0.00220062
0.0122015
0.00223159
0.0119123
0.0022627
0.0116184
0.00229394
0.0113196
0.00232525
0.011016
0.00235657
0.0107074
0.00238783
0.010394
0.00241899
0.0100757
0.00244999
0.00975258
0.00248079
0.00942471
0.00251136
0.00909218
0.00254169
0.00875511
0.00257179
0.00841366
0.00260168
0.008068
0.00263141
0.00771833
0.00266107
0.00736486
0.00269076
0.00700781
0.00272064
0.0066474
0.0027509
0.00628383
0.00278174
0.00591726
0.0028134
0.00554781
0.00284613
0.00517551
0.00288016
0.00480031
0.00291569
0.00442207
0.00295282
0.00404052
0.00299154
0.00365533
0.00303168
0.0032661
0.00307282
0.00287241
0.00311431
0.00247392
0.0031552
0.00207043
0.00319431
0.00166199
0.0032302
0.00124893
0.00326149
0.000831898
0.00328628
0.000412049
0.00330504
0.00326593
0.0199988
1.4459e-05
0.0199951
4.32768e-05
0.0199889
7.19203e-05
0.0199802
0.000100349
0.019969
0.000128554
0.019955
0.000156555
0.0199385
0.00018439
0.0199192
0.000212097
0.0198972
0.000239713
0.0198725
0.000267274
0.0198451
0.00029482
0.0198149
0.000322388
0.019782
0.000350012
0.0197463
0.000377725
0.0197078
0.000405556
0.0196665
0.000433534
0.0196224
0.000461689
0.0195755
0.000490047
0.0195257
0.000518635
0.019473
0.000547477
0.0194175
0.000576598
0.019359
0.000606017
0.0192976
0.000635754
0.0192332
0.000665823
0.0191657
0.000696233
0.0190952
0.000726992
0.0190216
0.000758103
0.0189447
0.000789566
0.0188646
0.00082138
0.0187812
0.000853539
0.0186944
0.000886039
0.0186041
0.000918876
0.0185102
0.000952052
0.0184126
0.000985569
0.0183113
0.00101944
0.018206
0.00105367
0.0180968
0.00108828
0.0179834
0.00112332
0.0178659
0.00115882
0.017744
0.00119482
0.0176177
0.00123129
0.0174869
0.00126809
0.0173516
0.00130498
0.0172115
0.00134194
0.0170665
0.00137964
0.0169162
0.00142004
0.0167598
0.00146663
0.0165959
0.00152379
0.0164227
0.00159523
0.0162386
0.00168189
0.0160422
0.00178043
0.0158331
0.00188339
0.0156121
0.00198122
0.0153813
0.00206559
0.015143
0.00213216
0.0148995
0.00218165
0.0146523
0.00221864
0.0144019
0.00224908
0.0141484
0.00227798
0.0138913
0.00230817
0.0136302
0.0023404
0.0133649
0.00237428
0.013095
0.00240909
0.0128204
0.00244436
0.0125411
0.0024799
0.012257
0.0025157
0.0119679
0.00255177
0.0116738
0.00258807
0.0113745
0.00262456
0.0110699
0.00266115
0.01076
0.00269777
0.0104446
0.00273436
0.0101237
0.00277085
0.00979735
0.00280717
0.00946544
0.00284327
0.00912802
0.00287911
0.00878516
0.00291466
0.00843695
0.00294989
0.00808355
0.00298482
0.00772515
0.00301947
0.00736199
0.00305392
0.00699439
0.00308825
0.00662267
0.00312261
0.00624725
0.00315716
0.00586854
0.00319212
0.00548699
0.00322768
0.00510303
0.00326412
0.00471709
0.00330163
0.00432953
0.00334038
0.00394065
0.00338042
0.00355065
0.00342168
0.00315962
0.00346385
0.00276757
0.00350636
0.00237444
0.00354833
0.00198011
0.00358863
0.00158451
0.0036258
0.00118762
0.00365838
0.000789511
0.00368439
0.000390522
0.00370403
0.00365645
0.0199987
1.571e-05
0.019995
4.7017e-05
0.0199888
7.81635e-05
0.01998
0.000109127
0.0199686
0.000139905
0.0199547
0.000170512
0.0199381
0.000200978
0.0199189
0.000231337
0.0198969
0.000261625
0.0198723
0.000291876
0.019845
0.000322125
0.019815
0.00035241
0.0197823
0.000382764
0.0197468
0.00041322
0.0197085
0.000443809
0.0196675
0.000474561
0.0196237
0.000505505
0.019577
0.000536672
0.0195276
0.00056809
0.0194753
0.000599786
0.0194201
0.000631787
0.019362
0.000664118
0.0193009
0.000696801
0.0192369
0.000729853
0.0191699
0.00076329
0.0190997
0.000797124
0.0190265
0.000831365
0.01895
0.000866017
0.0188703
0.000901085
0.0187873
0.000936568
0.0187008
0.000972471
0.0186109
0.0010088
0.0185174
0.00104555
0.0184203
0.00108274
0.0183193
0.00112037
0.0182145
0.00115847
0.0181057
0.00119706
0.0179929
0.00123617
0.0178758
0.00127586
0.0177545
0.00131615
0.0176288
0.00135703
0.0174985
0.00139832
0.0173637
0.00143979
0.0172243
0.0014814
0.01708
0.00152392
0.0169305
0.00156952
0.0167751
0.00162203
0.0166126
0.0016863
0.0164414
0.00176642
0.0162599
0.00186343
0.0160666
0.00197368
0.0158611
0.00208889
0.0156439
0.00219843
0.0154165
0.00229296
0.0151811
0.00236757
0.0149398
0.00242298
0.0146941
0.00246427
0.014445
0.00249818
0.0141927
0.00253037
0.0139367
0.00256409
0.0136769
0.00260023
0.0134128
0.00263833
0.0131443
0.0026776
0.0128712
0.00271748
0.0125934
0.00275775
0.0123107
0.0027984
0.012023
0.00283944
0.0117302
0.00288085
0.0114322
0.00292257
0.0111288
0.00296453
0.01082
0.00300665
0.0105055
0.00304884
0.0101853
0.00309104
0.00985927
0.00313317
0.00952738
0.00317516
0.00918956
0.00321693
0.00884579
0.00325843
0.00849608
0.00329959
0.0081405
0.00334039
0.00777917
0.0033808
0.00741226
0.00342082
0.00704004
0.00346048
0.00666282
0.00349983
0.00628102
0.00353896
0.00589513
0.00357801
0.00550571
0.0036171
0.0051134
0.00365643
0.00471887
0.00369616
0.00432281
0.00373643
0.00392592
0.00377732
0.00352881
0.00381879
0.00313204
0.00386062
0.00273603
0.00390237
0.00234105
0.00394331
0.00194724
0.00398245
0.00155458
0.00401846
0.00116293
0.00405003
0.000772056
0.00407526
0.000381724
0.00409436
0.00403817
0.0199987
1.69711e-05
0.019995
5.07883e-05
0.0199887
8.44508e-05
0.0199799
0.000117948
0.0199685
0.000151284
0.0199545
0.000184474
0.019938
0.000217544
0.0199188
0.000250526
0.0198969
0.000283452
0.0198725
0.000316359
0.0198453
0.00034928
0.0198155
0.000382251
0.0197829
0.000415307
0.0197477
0.000448478
0.0197097
0.000481797
0.0196689
0.000515295
0.0196254
0.000549005
0.0195791
0.000582957
0.0195301
0.000617184
0.0194781
0.000651716
0.0194233
0.000686582
0.0193656
0.00072181
0.019305
0.000757425
0.0192414
0.000793451
0.0191748
0.000829907
0.0191051
0.00086681
0.0190323
0.000904172
0.0189563
0.000942007
0.0188771
0.000980321
0.0187945
0.00101912
0.0187086
0.00105842
0.0186192
0.00109822
0.0185262
0.00113854
0.0184295
0.00117938
0.0183291
0.00122076
0.0182249
0.00126271
0.0181167
0.00130524
0.0180045
0.0013484
0.0178881
0.00139225
0.0177674
0.00143681
0.0176424
0.00148206
0.0175129
0.00152782
0.0173788
0.00157384
0.0172402
0.00162007
0.0170967
0.00166736
0.0169482
0.00171805
0.0167939
0.00177635
0.0166327
0.00184752
0.016463
0.00193606
0.0162833
0.00204314
0.0160922
0.00216481
0.015889
0.00229205
0.0156742
0.00241323
0.0154492
0.00251802
0.0152158
0.00260092
0.0149762
0.00266257
0.014732
0.00270849
0.0144841
0.00274608
0.0142328
0.00278169
0.0139779
0.00281896
0.0137192
0.00285898
0.0134562
0.00290127
0.0131889
0.00294495
0.012917
0.0029894
0.0126404
0.00303436
0.0123589
0.00307982
0.0120726
0.00312579
0.0117812
0.00317227
0.0114846
0.00321919
0.0111826
0.00326648
0.0108752
0.00331406
0.0105622
0.00336185
0.0102435
0.00340977
0.00991891
0.00345773
0.00958843
0.00350565
0.00925192
0.00355344
0.00890932
0.00360103
0.00856059
0.00364833
0.00820571
0.00369527
0.00784473
0.00374178
0.00747775
0.00378781
0.00710491
0.00383331
0.00672647
0.00387827
0.00634275
0.00392268
0.00595419
0.00396657
0.00556131
0.00400998
0.00516475
0.00405299
0.00476525
0.00409566
0.00436362
0.00413807
0.0039607
0.00418023
0.00355737
0.00422212
0.00315444
0.00426355
0.00275263
0.00430418
0.0023525
0.00434343
0.00195444
0.00438051
0.00155858
0.00441431
0.00116484
0.00444377
0.000772896
0.00446721
0.000382244
0.00448502
0.00442042
0.0199987
1.82359e-05
0.019995
5.45711e-05
0.0199887
9.07522e-05
0.0199798
0.000126778
0.0199684
0.000162658
0.0199545
0.000198409
0.019938
0.000234057
0.0199189
0.000269633
0.0198972
0.000305169
0.0198728
0.000340699
0.0198459
0.00037626
0.0198162
0.000411886
0.0197839
0.000447612
0.0197489
0.000483469
0.0197112
0.00051949
0.0196708
0.000555709
0.0196277
0.000592158
0.0195817
0.000628873
0.019533
0.000665887
0.0194815
0.000703233
0.0194272
0.000740944
0.0193699
0.000779051
0.0193098
0.000817584
0.0192466
0.000856568
0.0191805
0.000896029
0.0191113
0.000935987
0.0190391
0.00097646
0.0189636
0.00101746
0.0188849
0.00105901
0.0188029
0.00110112
0.0187175
0.0011438
0.0186287
0.00118706
0.0185363
0.00123092
0.0184403
0.0012754
0.0183406
0.00132051
0.018237
0.00136627
0.0181295
0.00141272
0.018018
0.0014599
0.0179024
0.00150786
0.0177826
0.00155665
0.0176584
0.00160624
0.0175298
0.00165644
0.0173966
0.00170696
0.0172589
0.00175778
0.0171165
0.00180976
0.0169691
0.00186547
0.016816
0.00192942
0.0166562
0.00200734
0.0164882
0.00210411
0.0163102
0.00222109
0.016121
0.00235405
0.0159198
0.00249326
0.0157069
0.0026261
0.0154837
0.00274127
0.015252
0.00283262
0.0150138
0.00290072
0.0147708
0.00295146
0.014524
0.0029929
0.0142737
0.003032
0.0140198
0.00307288
0.013762
0.0031168
0.0134999
0.00316329
0.0132335
0.00321139
0.0129625
0.00326041
0.0126868
0.00331006
0.0124063
0.00336032
0.0121209
0.00341122
0.0118304
0.00346275
0.0115347
0.00351484
0.0112338
0.00356743
0.0109274
0.00362043
0.0106155
0.00367376
0.0102979
0.00372734
0.0099746
0.00378106
0.00964539
0.00383485
0.00931022
0.00388862
0.00896899
0.00394225
0.00862166
0.00399566
0.00826818
0.00404875
0.00790855
0.00410141
0.00754281
0.00415356
0.00717103
0.00420509
0.00679338
0.00425592
0.00641009
0.00430597
0.00602148
0.00435518
0.00562798
0.00440348
0.00523014
0.00445083
0.00482861
0.00449719
0.00442416
0.00454252
0.00401763
0.00458676
0.00360993
0.00462982
0.00320196
0.00467152
0.00279457
0.00471157
0.00238851
0.0047495
0.00198432
0.00478471
0.0015823
0.00481633
0.00118251
0.00484356
0.000784693
0.00486502
0.000388316
0.00488139
0.00480873
0.0199987
1.94996e-05
0.019995
5.8351e-05
0.0199887
9.70461e-05
0.0199799
0.000135591
0.0199685
0.000173998
0.0199546
0.000212288
0.0199382
0.000250488
0.0199192
0.000288629
0.0198976
0.000326744
0.0198735
0.000364869
0.0198467
0.000403039
0.0198173
0.000441289
0.0197852
0.000479654
0.0197505
0.000518168
0.0197132
0.000556863
0.0196731
0.000595775
0.0196303
0.000634938
0.0195848
0.000674389
0.0195365
0.000714164
0.0194855
0.0007543
0.0194316
0.000794833
0.0193748
0.000835798
0.0193152
0.000877227
0.0192526
0.000919152
0.019187
0.000961601
0.0191184
0.0010046
0.0190467
0.00104816
0.0189718
0.00109232
0.0188938
0.00113709
0.0188124
0.00118249
0.0187277
0.00122853
0.0186395
0.00127523
0.0185478
0.00132261
0.0184525
0.00137069
0.0183535
0.00141949
0.0182508
0.00146905
0.0181441
0.00151938
0.0180335
0.00157054
0.0179187
0.00162258
0.0177998
0.00167557
0.0176766
0.00172946
0.017549
0.00178405
0.0174169
0.00183904
0.0172803
0.00189438
0.0171391
0.001951
0.0169929
0.00201162
0.0168412
0.0020811
0.016683
0.0021656
0.0165167
0.00227043
0.0163406
0.00239713
0.0161534
0.00254127
0.0159542
0.00269244
0.0157433
0.00283702
0.0155218
0.00296272
0.0152917
0.00306274
0.015055
0.00313748
0.0148132
0.0031932
0.0145675
0.0032386
0.0143182
0.0032813
0.0140653
0.00332584
0.0138084
0.0033737
0.0135472
0.00342442
0.0132816
0.00347698
0.0130114
0.00353061
0.0127365
0.00358499
0.0124567
0.0036401
0.012172
0.00369595
0.0118822
0.00375256
0.0115872
0.00380985
0.0112868
0.00386776
0.0109811
0.00392619
0.0106698
0.00398506
0.0103529
0.00404427
0.0100302
0.00410373
0.00970169
0.00416335
0.00936728
0.00422303
0.00902689
0.00428264
0.00868047
0.00434209
0.00832797
0.00440124
0.00796939
0.00445999
0.00760475
0.0045182
0.00723408
0.00457575
0.00685751
0.0046325
0.00647518
0.0046883
0.00608735
0.00474301
0.00569432
0.0047965
0.00529653
0.00484862
0.0048945
0.00489922
0.00448887
0.00494815
0.00408037
0.00499526
0.00366983
0.00504037
0.00325809
0.00508326
0.00284602
0.00512364
0.00243438
0.00516114
0.00202381
0.00519528
0.00161474
0.0052254
0.00120735
0.00525095
0.000801555
0.00527081
0.000396931
0.00528601
0.00520566
0.0199987
2.07587e-05
0.019995
6.21167e-05
0.0199887
0.000103314
0.0199799
0.000144363
0.0199687
0.000185279
0.0199549
0.000226086
0.0199385
0.000266813
0.0199197
0.000307491
0.0198983
0.000348156
0.0198743
0.000388845
0.0198477
0.000429593
0.0198186
0.000470435
0.0197868
0.000511408
0.0197524
0.000552547
0.0197154
0.000593885
0.0196757
0.00063546
0.0196334
0.000677309
0.0195883
0.000719469
0.0195405
0.00076198
0.0194899
0.000804881
0.0194365
0.000848211
0.0193803
0.00089201
0.0193212
0.000936314
0.0192592
0.000981156
0.0191942
0.00102657
0.0191263
0.00107258
0.0190552
0.00111922
0.018981
0.00116651
0.0189036
0.00121448
0.018823
0.00126314
0.018739
0.00131252
0.0186516
0.00136263
0.0185607
0.00141351
0.0184662
0.00146516
0.0183681
0.00151763
0.0182662
0.00157094
0.0181604
0.00162512
0.0180507
0.00168023
0.017937
0.00173632
0.0178191
0.00179345
0.017697
0.00185159
0.0175705
0.00191053
0.0174396
0.00196994
0.0173042
0.00202975
0.0171643
0.00209095
0.0170195
0.0021564
0.0168694
0.00223127
0.0167128
0.00232218
0.0165483
0.00243488
0.0163743
0.00257113
0.0161893
0.00272633
0.0159923
0.00288942
0.0157835
0.00304583
0.015564
0.00318224
0.0153356
0.00329114
0.0151003
0.00337274
0.0148599
0.00343363
0.0146153