/*--------------------------------*- C++ -*----------------------------------*\
| =========                 |                                                 |
| \\      /  F ield         | OpenFOAM: The Open Source CFD Toolbox           |
|  \\    /   O peration     | Version:  4.1                                   |
|   \\  /    A nd           | Web:      www.OpenFOAM.org                      |
|    \\/     M anipulation  |                                                 |
\*---------------------------------------------------------------------------*/
FoamFile
{
    version     2.0;
    format      ascii;
    class       volScalarField;
    location    "0.05";
    object      k_0;
}
// * * * * * * * * * * * * * * * * * * * * * * * * * * * * * * * * * * * * * //

dimensions      [0 2 -2 0 0 0 0];

internalField   nonuniform List<scalar> 
43750
(
4.00076e-05
7.42155e-05
0.000101413
0.000116846
0.000121077
0.000120245
0.000112151
8.60239e-05
6.54753e-05
5.8819e-05
5.86508e-05
5.86093e-05
5.74276e-05
5.74742e-05
5.99418e-05
7.77412e-05
0.000190982
0.000739268
0.00133986
0.00145951
0.0014094
0.00124054
0.00118008
0.00119178
0.00132071
0.00159158
0.00174605
0.00179523
0.00179114
0.0017412
0.00168517
0.00165315
0.00163528
0.00162607
0.00162217
0.0016215
0.00162272
0.0016281
0.00163579
0.00164381
0.00165284
0.00166309
0.00167458
0.00168729
0.00170119
0.00171621
0.0017323
0.00174939
0.00176743
0.00178629
0.00180596
0.00182617
0.00184712
0.00186813
0.00189
0.00191108
0.00193337
0.00195373
0.00197564
0.00199467
0.0020149
0.00203193
0.00204917
0.00206296
0.00207606
0.00208499
0.00209251
0.00209457
0.002093
0.00208837
0.00207879
0.00206399
0.00204399
0.00201838
0.00198699
0.00194976
0.0019065
0.00185688
0.00180062
0.00173753
0.00166756
0.00159079
0.0015074
0.00141775
0.00132233
0.00122181
0.00111705
0.00100907
0.000899099
0.000788501
0.000678795
0.000571609
0.000468641
0.000371614
0.000282207
0.000202129
0.000132579
7.72148e-05
3.37563e-05
2.36489e-06
2.00429e-05
2.03631e-05
2.06695e-05
2.07355e-05
2.06881e-05
2.0451e-05
2.03279e-05
2.03695e-05
2.05535e-05
2.06093e-05
2.05713e-05
2.04874e-05
2.04934e-05
2.05795e-05
2.08373e-05
2.14876e-05
2.34793e-05
2.74447e-05
3.13909e-05
3.87023e-05
5.69989e-05
8.74787e-05
0.000113516
0.000131275
0.000141163
0.000143844
0.000141543
0.000127882
0.000110176
9.9099e-05
9.29763e-05
9.01457e-05
8.9227e-05
8.91633e-05
8.9391e-05
9.02741e-05
9.17978e-05
9.34194e-05
9.51536e-05
9.7024e-05
9.90526e-05
0.000101253
0.000103634
0.000106202
0.000108962
0.00011192
0.000115081
0.000118449
0.00012203
0.000125823
0.000129843
0.000134068
0.000138547
0.000143193
0.000148151
0.000153188
0.000158629
0.00016403
0.0001699
0.000175663
0.000181839
0.000187942
0.0001943
0.000200616
0.000207042
0.000213382
0.000219679
0.000225803
0.0002317
0.00023721
0.00024244
0.000247025
0.000251183
0.000254536
0.000256978
0.000258999
0.000259172
0.000258751
0.000257502
0.00025483
0.000250501
0.000244696
0.000237363
0.000228473
0.000218034
0.000206093
0.000192756
0.000178168
0.000162542
0.000146127
0.000129268
0.000112295
9.56865e-05
7.99797e-05
6.56987e-05
5.34783e-05
4.342e-05
3.28073e-05
9.59742e-06
8.18162e-07
2.00258e-05
1.99955e-05
1.98277e-05
1.95999e-05
1.93742e-05
1.85748e-05
1.76066e-05
1.74951e-05
1.75588e-05
1.74026e-05
1.59248e-05
1.31122e-05
1.26027e-05
1.30122e-05
1.42897e-05
1.47606e-05
1.46308e-05
1.32983e-05
1.08274e-05
1.0176e-05
1.04661e-05
1.23253e-05
1.52499e-05
1.66179e-05
1.6797e-05
1.61005e-05
1.27766e-05
8.76487e-06
6.21507e-06
4.73635e-06
3.9866e-06
3.69038e-06
3.61419e-06
3.61294e-06
3.63447e-06
3.71125e-06
3.82853e-06
3.94778e-06
4.07418e-06
4.21085e-06
4.35988e-06
4.52275e-06
4.70059e-06
4.89447e-06
5.10548e-06
5.33476e-06
5.58357e-06
5.85311e-06
6.14504e-06
6.46017e-06
6.80134e-06
7.16755e-06
7.56524e-06
7.98758e-06
8.45031e-06
8.93344e-06
9.46943e-06
1.00198e-05
1.06328e-05
1.12615e-05
1.19497e-05
1.26666e-05
1.34311e-05
1.42347e-05
1.50797e-05
1.59635e-05
1.6884e-05
1.78359e-05
1.88238e-05
1.98183e-05
2.08478e-05
2.18576e-05
2.2888e-05
2.38919e-05
2.48481e-05
2.58047e-05
2.66763e-05
2.74667e-05
2.82015e-05
2.88416e-05
2.93534e-05
2.97207e-05
2.99536e-05
2.99658e-05
2.98842e-05
2.96604e-05
2.92394e-05
2.86992e-05
2.80451e-05
2.73299e-05
2.65018e-05
2.56097e-05
2.44104e-05
2.25226e-05
1.96447e-05
1.52538e-05
1.10594e-05
5.9657e-06
1.71092e-06
1.55509e-07
2.04343e-05
2.12351e-05
2.17061e-05
2.1836e-05
2.18963e-05
2.19466e-05
2.19448e-05
2.18082e-05
2.13975e-05
2.11159e-05
2.09862e-05
2.09556e-05
2.09774e-05
2.10029e-05
2.1026e-05
2.10732e-05
2.111e-05
2.11295e-05
2.12263e-05
2.17657e-05
2.41667e-05
3.21327e-05
3.96902e-05
4.30478e-05
4.36324e-05
4.28665e-05
3.78274e-05
2.48618e-05
1.4654e-05
8.2535e-06
4.53107e-06
2.47955e-06
1.40435e-06
8.68386e-07
6.17447e-07
5.13134e-07
4.80472e-07
4.76719e-07
4.79827e-07
4.9252e-07
5.15746e-07
5.39642e-07
5.64961e-07
5.92283e-07
6.21934e-07
6.5414e-07
6.89116e-07
7.27056e-07
7.68226e-07
8.12768e-07
8.6113e-07
9.13199e-07
9.69968e-07
1.03049e-06
1.09711e-06
1.16706e-06
1.24497e-06
1.32575e-06
1.41575e-06
1.50953e-06
1.61186e-06
1.72048e-06
1.83623e-06
1.95974e-06
2.09052e-06
2.22887e-06
2.37457e-06
2.52703e-06
2.68755e-06
2.8513e-06
3.02347e-06
3.19565e-06
3.37307e-06
3.55066e-06
3.72318e-06
3.89601e-06
4.0638e-06
4.21971e-06
4.36498e-06
4.49737e-06
4.61253e-06
4.7062e-06
4.77694e-06
4.81945e-06
4.83608e-06
4.82882e-06
4.80479e-06
4.75771e-06
4.70135e-06
4.65372e-06
4.61072e-06
4.60774e-06
4.57295e-06
4.43333e-06
4.07712e-06
3.2781e-06
2.34397e-06
1.19297e-06
3.29019e-07
3.03338e-08
2.09367e-05
2.10883e-05
2.14282e-05
2.22884e-05
2.2744e-05
2.2662e-05
2.23009e-05
2.20203e-05
2.17207e-05
2.15251e-05
2.14248e-05
2.14009e-05
2.14167e-05
2.1514e-05
2.15891e-05
2.15866e-05
2.15125e-05
2.1488e-05
2.15541e-05
2.20298e-05
2.42976e-05
3.28634e-05
4.30056e-05
4.78653e-05
4.88969e-05
4.8258e-05
4.3426e-05
2.88871e-05
1.63285e-05
8.62375e-06
4.27951e-06
2.0048e-06
8.96631e-07
3.89612e-07
1.70758e-07
8.15631e-08
4.74167e-08
3.54552e-08
3.22164e-08
3.20288e-08
3.26092e-08
3.4431e-08
3.6672e-08
3.89917e-08
4.15108e-08
4.42788e-08
4.733e-08
5.06932e-08
5.4405e-08
5.84906e-08
6.30088e-08
6.79616e-08
7.34703e-08
7.94534e-08
8.61813e-08
9.33874e-08
1.01585e-07
1.10285e-07
1.20164e-07
1.30749e-07
1.42498e-07
1.55344e-07
1.6932e-07
1.84633e-07
2.01273e-07
2.19339e-07
2.38884e-07
2.59929e-07
2.82722e-07
3.06721e-07
3.32703e-07
3.59747e-07
3.88389e-07
4.18275e-07
4.48567e-07
4.79822e-07
5.11829e-07
5.43416e-07
5.74314e-07
6.04335e-07
6.32915e-07
6.59291e-07
6.82869e-07
7.03102e-07
7.1974e-07
7.3309e-07
7.4349e-07
7.52512e-07
7.59842e-07
7.74127e-07
7.88904e-07
8.23275e-07
8.64643e-07
8.66358e-07
8.34352e-07
7.09393e-07
5.0109e-07
2.49253e-07
6.63483e-08
6.10828e-09
2.06412e-05
2.11385e-05
2.13101e-05
2.13033e-05
2.12699e-05
2.12693e-05
2.14478e-05
2.17269e-05
2.17633e-05
2.16791e-05
2.14936e-05
2.14665e-05
2.15344e-05
2.1636e-05
2.16346e-05
2.15264e-05
2.12928e-05
2.12363e-05
2.13176e-05
2.19457e-05
2.49296e-05
3.51888e-05
4.53466e-05
4.99135e-05
5.07353e-05
4.98499e-05
4.39104e-05
2.8228e-05
1.58515e-05
8.26639e-06
4.0222e-06
1.83818e-06
7.926e-07
3.23897e-07
1.26198e-07
4.74342e-08
1.77182e-08
7.10074e-09
3.53056e-09
2.44122e-09
2.20969e-09
2.21844e-09
2.30854e-09
2.5071e-09
2.71734e-09
2.9456e-09
3.19941e-09
3.48332e-09
3.80196e-09
4.15876e-09
4.56081e-09
5.00937e-09
5.5187e-09
6.08176e-09
6.72945e-09
7.43589e-09
8.25838e-09
9.14991e-09
1.01835e-08
1.13201e-08
1.26057e-08
1.40505e-08
1.56575e-08
1.74624e-08
1.94752e-08
2.17165e-08
2.4203e-08
2.69547e-08
3.00165e-08
3.33324e-08
3.7018e-08
4.09891e-08
4.53017e-08
4.99553e-08
5.48375e-08
6.00127e-08
6.55068e-08
7.11665e-08
7.69144e-08
8.27334e-08
8.85468e-08
9.4229e-08
9.96952e-08
1.04912e-07
1.09798e-07
1.14386e-07
1.18613e-07
1.23065e-07
1.27298e-07
1.33913e-07
1.4067e-07
1.53177e-07
1.70089e-07
1.77826e-07
1.7559e-07
1.5652e-07
1.10762e-07
5.36486e-08
1.38338e-08
1.26377e-09
2.08367e-05
2.11861e-05
2.14112e-05
2.13736e-05
2.11391e-05
2.10663e-05
2.11502e-05
2.13966e-05
2.14984e-05
2.16222e-05
2.19428e-05
2.216e-05
2.21156e-05
2.204e-05
2.20547e-05
2.20649e-05
2.20851e-05
2.21677e-05
2.23952e-05
2.31056e-05
2.58704e-05
3.55431e-05
4.59237e-05
5.07053e-05
5.15895e-05
5.06866e-05
4.45512e-05
2.84687e-05
1.59111e-05
8.26311e-06
4.00993e-06
1.82749e-06
7.85313e-07
3.19322e-07
1.23205e-07
4.52292e-08
1.58626e-08
5.35984e-09
1.78716e-09
6.3232e-10
2.80289e-10
1.83751e-10
1.67602e-10
1.70161e-10
1.82041e-10
2.02313e-10
2.23807e-10
2.47758e-10
2.74979e-10
3.05941e-10
3.41474e-10
3.81782e-10
4.2851e-10
4.81002e-10
5.42801e-10
6.11292e-10
6.92966e-10
7.83184e-10
8.90011e-10
1.01043e-09
1.14927e-09
1.30946e-09
1.49165e-09
1.7011e-09
1.94065e-09
2.21411e-09
2.52481e-09
2.87781e-09
3.28103e-09
3.72925e-09
4.23983e-09
4.80774e-09
5.44011e-09
6.14388e-09
6.90625e-09
7.73625e-09
8.64509e-09
9.61612e-09
1.06368e-08
1.17068e-08
1.28156e-08
1.39471e-08
1.50916e-08
1.62418e-08
1.73789e-08
1.85188e-08
1.96376e-08
2.08912e-08
2.21355e-08
2.40353e-08
2.60546e-08
2.94319e-08
3.44131e-08
3.76169e-08
3.78166e-08
3.48346e-08
2.5069e-08
1.17996e-08
2.95669e-09
2.67286e-10
2.05977e-05
2.07004e-05
2.08637e-05
2.11661e-05
2.13845e-05
2.14748e-05
2.15212e-05
2.15399e-05
2.15624e-05
2.16775e-05
2.2099e-05
2.24453e-05
2.25679e-05
2.25934e-05
2.2589e-05
2.24717e-05
2.2307e-05
2.23285e-05
2.25627e-05
2.33318e-05
2.59264e-05
3.45066e-05
4.35728e-05
4.78368e-05
4.86519e-05
4.78483e-05
4.22916e-05
2.72501e-05
1.52517e-05
7.93251e-06
3.85353e-06
1.75736e-06
7.55293e-07
3.06896e-07
1.18244e-07
4.33154e-08
1.51198e-08
5.04082e-09
1.61058e-09
4.97015e-10
1.51847e-10
4.99099e-11
2.15707e-11
1.47377e-11
1.40554e-11
1.45763e-11
1.62568e-11
1.84543e-11
2.08527e-11
2.35923e-11
2.67861e-11
3.04616e-11
3.48101e-11
3.97617e-11
4.57284e-11
5.24296e-11
6.06135e-11
6.98059e-11
8.09153e-11
9.37213e-11
1.08744e-10
1.26501e-10
1.47132e-10
1.71399e-10
1.99851e-10
2.33147e-10
2.71868e-10
3.16986e-10
3.69887e-10
4.30187e-10
5.00506e-10
5.81079e-10
6.72993e-10
7.78213e-10
8.95646e-10
1.02681e-09
1.17443e-09
1.33725e-09
1.51385e-09
1.70463e-09
1.90853e-09
2.12413e-09
2.35048e-09
2.58664e-09
2.82966e-09
3.08453e-09
3.3449e-09
3.64989e-09
3.96114e-09
4.43958e-09
4.97084e-09
5.80414e-09
7.12169e-09
8.12738e-09
8.34183e-09
7.84706e-09
5.77519e-09
2.63814e-09
6.44141e-10
5.75635e-11
2.05613e-05
2.08821e-05
2.09093e-05
2.09904e-05
2.12163e-05
2.14405e-05
2.16885e-05
2.17828e-05
2.16971e-05
2.14392e-05
2.13391e-05
2.13187e-05
2.13131e-05
2.13254e-05
2.14069e-05
2.17132e-05
2.22237e-05
2.25885e-05
2.2913e-05
2.36177e-05
2.60858e-05
3.4569e-05
4.35594e-05
4.76532e-05
4.83727e-05
4.75172e-05
4.18207e-05
2.68253e-05
1.50319e-05
7.82477e-06
3.80507e-06
1.73728e-06
7.47648e-07
3.04268e-07
1.17421e-07
4.3073e-08
1.50508e-08
5.01959e-09
1.6009e-09
4.89334e-10
1.43872e-10
4.10677e-11
1.17523e-11
3.79766e-12
1.79334e-12
1.4072e-12
1.41464e-12
1.53234e-12
1.78096e-12
2.04982e-12
2.36022e-12
2.71856e-12
3.14915e-12
3.64296e-12
4.24905e-12
4.93582e-12
5.78879e-12
6.76115e-12
7.95178e-12
9.35155e-12
1.10151e-11
1.30187e-11
1.53881e-11
1.82198e-11
2.16025e-11
2.56494e-11
3.04712e-11
3.62332e-11
4.31656e-11
5.12645e-11
6.09321e-11
7.23254e-11
8.56299e-11
1.01269e-10
1.19228e-10
1.39794e-10
1.63539e-10
1.90503e-10
2.20625e-10
2.54072e-10
2.90847e-10
3.30978e-10
3.74464e-10
4.21347e-10
4.71228e-10
5.25564e-10
5.82777e-10
6.5255e-10
7.25032e-10
8.38141e-10
9.6863e-10
1.16404e-09
1.49257e-09
1.77373e-09
1.85792e-09
1.77255e-09
1.32945e-09
5.96501e-10
1.42475e-10
1.25878e-11
2.06382e-05
2.06908e-05
2.07228e-05
2.07025e-05
2.06664e-05
2.06779e-05
2.07709e-05
2.08136e-05
2.08978e-05
2.11186e-05
2.13829e-05
2.15812e-05
2.16744e-05
2.16844e-05
2.16243e-05
2.1541e-05
2.15362e-05
2.15762e-05
2.1761e-05
2.24943e-05
2.552e-05
3.62143e-05
4.77678e-05
5.30905e-05
5.41078e-05
5.3247e-05
4.72529e-05
3.06408e-05
1.71568e-05
8.92849e-06
4.34007e-06
1.98073e-06
8.52121e-07
3.46703e-07
1.33782e-07
4.90739e-08
1.71485e-08
5.71923e-09
1.8237e-09
5.5699e-10
1.63294e-10
4.61228e-11
1.26745e-11
3.47058e-12
1.02366e-12
4.10425e-13
2.77401e-13
2.65509e-13
2.79365e-13
3.2158e-13
3.70139e-13
4.22289e-13
4.82689e-13
5.51636e-13
6.3279e-13
7.25948e-13
8.36901e-13
9.64403e-13
1.11718e-12
1.29383e-12
1.50603e-12
1.75552e-12
2.05308e-12
2.40868e-12
2.83178e-12
3.34039e-12
3.94973e-12
4.69166e-12
5.60419e-12
6.69748e-12
8.03081e-12
9.63914e-12
1.15561e-11
1.38663e-11
1.6592e-11
1.97883e-11
2.35662e-11
2.79727e-11
3.30345e-11
3.8804e-11
4.53234e-11
5.26526e-11
6.08367e-11
6.99484e-11
7.9949e-11
9.12418e-11
1.03437e-10
1.18911e-10
1.35205e-10
1.61217e-10
1.92333e-10
2.37138e-10
3.16873e-10
3.91552e-10
4.1858e-10
4.03706e-10
3.07965e-10
1.3614e-10
3.19123e-11
2.7897e-12
2.08429e-05
2.07657e-05
2.08614e-05
2.08613e-05
2.08638e-05
2.09662e-05
2.12547e-05
2.12933e-05
2.12263e-05
2.11893e-05
2.12115e-05
2.13523e-05
2.16283e-05
2.17487e-05
2.17311e-05
2.15177e-05
2.13277e-05
2.13213e-05
2.14593e-05
2.22352e-05
2.55931e-05
3.71441e-05
4.91869e-05
5.48541e-05
5.60269e-05
5.52271e-05
4.93464e-05
3.23536e-05
1.81622e-05
9.48489e-06
4.62718e-06
2.11933e-06
9.15089e-07
3.73643e-07
1.44677e-07
5.32507e-08
1.867e-08
6.2472e-09
1.99854e-09
6.12313e-10
1.80022e-10
5.09338e-11
1.39335e-11
3.73578e-12
1.03599e-12
3.48497e-13
1.87064e-13
1.58586e-13
1.59651e-13
1.74812e-13
1.99268e-13
2.23081e-13
2.48149e-13
2.75793e-13
3.06116e-13
3.39177e-13
3.75887e-13
4.13996e-13
4.59319e-13
5.0412e-13
5.58069e-13
6.14357e-13
6.7475e-13
7.4662e-13
8.19217e-13
9.0376e-13
9.99446e-13
1.10315e-12
1.22867e-12
1.38313e-12
1.57042e-12
1.79644e-12
2.06786e-12
2.40075e-12
2.80119e-12
3.27796e-12
3.85172e-12
4.53546e-12
5.34052e-12
6.28261e-12
7.37886e-12
8.65353e-12
1.01297e-11
1.18422e-11
1.37962e-11
1.60986e-11
1.86483e-11
2.20218e-11
2.5608e-11
3.14947e-11
3.8789e-11
4.89196e-11
6.79774e-11
8.72543e-11
9.51997e-11
9.26388e-11
7.17463e-11
3.1325e-11
7.22609e-12
6.26089e-13
2.04156e-05
2.05926e-05
2.11269e-05
2.14945e-05
2.15651e-05
2.154e-05
2.13302e-05
2.10878e-05
2.10317e-05
2.10439e-05
2.10937e-05
2.12007e-05
2.14517e-05
2.17691e-05
2.19013e-05
2.18458e-05
2.17567e-05
2.17569e-05
2.18638e-05
2.24862e-05
2.52555e-05
3.53201e-05
4.6974e-05
5.27553e-05
5.40964e-05
5.34476e-05
4.81977e-05
3.2074e-05
1.80278e-05
9.43622e-06
4.61392e-06
2.1177e-06
9.16109e-07
3.74805e-07
1.4543e-07
5.36452e-08
1.88517e-08
6.32316e-09
2.02789e-09
6.22927e-10
1.83635e-10
5.20919e-11
1.42913e-11
3.84185e-12
1.05824e-12
3.47219e-13
1.78523e-13
1.47372e-13
1.47354e-13
1.59898e-13
1.82597e-13
2.03922e-13
2.26532e-13
2.50811e-13
2.7708e-13
3.04956e-13
3.35927e-13
3.67619e-13
4.02772e-13
4.38351e-13
4.75002e-13
5.15461e-13
5.51019e-13
5.933e-13
6.30124e-13
6.6628e-13
7.04839e-13
7.33315e-13
7.63582e-13
7.89067e-13
8.15492e-13
8.44367e-13
8.7742e-13
9.16825e-13
9.62023e-13
1.01263e-12
1.07239e-12
1.14308e-12
1.22648e-12
1.32843e-12
1.45512e-12
1.61556e-12
1.82306e-12
2.09513e-12
2.44085e-12
2.88897e-12
3.40913e-12
4.13653e-12
4.91523e-12
6.23461e-12
7.92747e-12
1.01958e-11
1.47101e-11
1.96012e-11
2.18273e-11
2.14037e-11
1.68016e-11
7.2623e-12
1.6526e-12
1.42598e-13
2.10171e-05
2.11431e-05
2.13082e-05
2.13288e-05
2.12959e-05
2.11277e-05
2.09732e-05
2.09369e-05
2.09483e-05
2.10208e-05
2.10909e-05
2.11154e-05
2.11387e-05
2.11762e-05
2.12051e-05
2.1224e-05
2.12506e-05
2.13134e-05
2.15216e-05
2.23466e-05
2.56788e-05
3.62454e-05
4.63816e-05
5.1246e-05
5.2289e-05
5.15883e-05
4.63453e-05
3.07553e-05
1.73662e-05
9.12559e-06
4.47871e-06
2.06312e-06
8.95572e-07
3.6754e-07
1.43013e-07
5.28898e-08
1.86307e-08
6.26318e-09
2.01296e-09
6.19604e-10
1.83011e-10
5.20109e-11
1.42929e-11
3.84793e-12
1.0602e-12
3.45855e-13
1.7561e-13
1.43777e-13
1.4357e-13
1.55839e-13
1.78744e-13
2.00628e-13
2.23546e-13
2.48513e-13
2.75479e-13
3.04909e-13
3.35745e-13
3.69487e-13
4.03579e-13
4.41862e-13
4.77843e-13
5.19098e-13
5.56597e-13
5.96041e-13
6.35452e-13
6.68424e-13
7.05498e-13
7.30546e-13
7.54833e-13
7.71038e-13
7.73328e-13
7.74216e-13
7.73906e-13
7.70117e-13
7.60409e-13
7.43823e-13
7.20855e-13
6.90494e-13
6.50899e-13
6.04912e-13
5.55692e-13
5.06583e-13
4.67424e-13
4.54794e-13
4.79928e-13
5.38856e-13
6.34852e-13
7.87245e-13
9.54357e-13
1.24884e-12
1.63941e-12
2.14693e-12
3.20441e-12
4.43506e-12
5.04083e-12
4.97693e-12
3.95327e-12
1.69717e-12
3.81868e-13
3.33886e-14
2.06921e-05
2.05968e-05
2.07302e-05
2.11144e-05
2.12998e-05
2.13237e-05
2.12674e-05
2.12085e-05
2.12081e-05
2.12525e-05
2.13438e-05
2.13983e-05
2.14329e-05
2.14365e-05
2.1362e-05
2.12893e-05
2.1282e-05
2.13122e-05
2.15045e-05
2.2377e-05
2.59639e-05
3.57246e-05
4.34763e-05
4.69615e-05
4.75695e-05
4.674e-05
4.12336e-05
2.66899e-05
1.51377e-05
7.98681e-06
3.93936e-06
1.82489e-06
7.96968e-07
3.29168e-07
1.28927e-07
4.79852e-08
1.70079e-08
5.75192e-09
1.85939e-09
5.75563e-10
1.70939e-10
4.88425e-11
1.34942e-11
3.65206e-12
1.01173e-12
3.31835e-13
1.69504e-13
1.39575e-13
1.39739e-13
1.52661e-13
1.75963e-13
1.98416e-13
2.22107e-13
2.48134e-13
2.76264e-13
3.0695e-13
3.40317e-13
3.75245e-13
4.14831e-13
4.51819e-13
4.98899e-13
5.35249e-13
5.88328e-13
6.24406e-13
6.74584e-13
7.1424e-13
7.506e-13
7.88664e-13
8.09568e-13
8.34186e-13
8.337e-13
8.28179e-13
8.15473e-13
7.97863e-13
7.76677e-13
7.4892e-13
7.13852e-13
6.68608e-13
6.09383e-13
5.37501e-13
4.55606e-13
3.6481e-13
2.72468e-13
1.94401e-13
1.44316e-13
1.24437e-13
1.31011e-13
1.52364e-13
1.87732e-13
2.53143e-13
3.42881e-13
4.56979e-13
7.02408e-13
1.01046e-12
1.1723e-12
1.16473e-12
9.35101e-13
3.99982e-13
8.95554e-14
8.47585e-15
2.08808e-05
2.0894e-05
2.09078e-05
2.11327e-05
2.17482e-05
2.21565e-05
2.23725e-05
2.23833e-05
2.2184e-05
2.16539e-05
2.13988e-05
2.13706e-05
2.14742e-05
2.18176e-05
2.1889e-05
2.17369e-05
2.15225e-05
2.15033e-05
2.16347e-05
2.24649e-05
2.61767e-05
3.527e-05
4.15265e-05
4.3941e-05
4.41188e-05
4.27619e-05
3.54535e-05
2.18186e-05
1.22344e-05
6.38493e-06
3.12143e-06
1.43558e-06
6.23332e-07
2.56288e-07
1.00043e-07
3.71737e-08
1.31734e-08
4.45994e-09
1.44489e-09
4.48679e-10
1.33804e-10
3.84287e-11
1.06872e-11
2.92054e-12
8.2452e-13
2.82739e-13
1.54622e-13
1.32815e-13
1.34526e-13
1.49771e-13
1.73139e-13
1.96042e-13
2.20533e-13
2.47597e-13
2.77187e-13
3.09765e-13
3.45217e-13
3.83576e-13
4.25003e-13
4.69802e-13
5.15033e-13
5.68755e-13
6.12155e-13
6.76458e-13
7.15339e-13
7.80515e-13
8.21719e-13
8.69915e-13
9.12301e-13
9.39087e-13
9.65082e-13
9.6323e-13
9.51794e-13
9.24427e-13
8.80881e-13
8.34809e-13
7.8349e-13
7.25055e-13
6.54517e-13
5.70309e-13
4.76027e-13
3.72924e-13
2.67564e-13
1.72457e-13
1.00739e-13
5.70199e-14
3.78986e-14
3.49348e-14
3.93871e-14
5.17277e-14
7.28218e-14
9.8672e-14
1.55354e-13
2.32166e-13
2.74879e-13
2.74719e-13
2.22829e-13
9.54723e-14
2.17527e-14
2.73989e-15
2.09134e-05
2.1141e-05
2.14928e-05
2.14989e-05
2.13787e-05
2.13022e-05
2.12961e-05
2.12874e-05
2.12822e-05
2.13e-05
2.14031e-05
2.17986e-05
2.20777e-05
2.20866e-05
2.19389e-05
2.15469e-05
2.13869e-05
2.139e-05
2.15773e-05
2.26289e-05
2.72319e-05
3.71463e-05
4.32526e-05
4.5319e-05
4.53331e-05
4.3592e-05
3.50926e-05
2.12759e-05
1.18315e-05
6.13178e-06
2.97862e-06
1.36195e-06
5.88252e-07
2.40726e-07
9.35725e-08
3.46259e-08
1.22217e-08
4.12199e-09
1.33062e-09
4.11815e-10
1.22435e-10
3.50679e-11
9.73069e-12
2.65605e-12
7.51851e-13
2.61523e-13
1.46509e-13
1.27664e-13
1.29972e-13
1.46161e-13
1.69832e-13
1.93196e-13
2.18593e-13
2.4674e-13
2.77666e-13
3.12242e-13
3.49701e-13
3.91591e-13
4.35476e-13
4.85803e-13
5.35036e-13
5.9482e-13
6.47954e-13
7.13741e-13
7.73382e-13
8.33931e-13
9.02786e-13
9.50452e-13
1.01503e-12
1.05237e-12
1.0923e-12
1.11326e-12
1.10986e-12
1.09485e-12
1.06189e-12
9.96536e-13
9.23114e-13
8.56614e-13
7.73868e-13
6.77433e-13
5.69186e-13
4.43531e-13
3.08748e-13
1.91432e-13
1.05656e-13
5.33414e-14
2.51426e-14
1.32165e-14
1.04648e-14
1.19169e-14
1.60015e-14
2.20096e-14
3.51556e-14
5.42329e-14
6.54146e-14
6.57521e-14
5.3935e-14
2.35141e-14
5.90079e-15
1.40756e-15
2.09879e-05
2.09891e-05
2.09402e-05
2.10176e-05
2.11194e-05
2.11264e-05
2.10687e-05
2.09954e-05
2.10082e-05
2.11766e-05
2.18302e-05
2.23457e-05
2.24413e-05
2.24254e-05
2.23112e-05
2.1866e-05
2.15518e-05
2.15208e-05
2.16606e-05
2.25488e-05
2.65376e-05
3.69637e-05
4.43758e-05
4.71427e-05
4.73022e-05
4.56111e-05
3.68279e-05
2.22115e-05
1.22842e-05
6.33706e-06
3.06645e-06
1.39751e-06
6.01914e-07
2.4572e-07
9.53144e-08
3.52071e-08
1.24076e-08
4.17913e-09
1.34753e-09
4.16638e-10
1.23763e-10
3.54203e-11
9.82035e-12
2.6771e-12
7.54874e-13
2.59226e-13
1.42684e-13
1.23464e-13
1.25701e-13
1.4185e-13
1.65969e-13
1.89975e-13
2.16057e-13
2.45358e-13
2.7782e-13
3.13878e-13
3.543e-13
3.97972e-13
4.47986e-13
4.98594e-13
5.60568e-13
6.15377e-13
6.9266e-13
7.46655e-13
8.39333e-13
8.91687e-13
9.85681e-13
1.04771e-12
1.11628e-12
1.18995e-12
1.22633e-12
1.27964e-12
1.29153e-12
1.28452e-12
1.26123e-12
1.20971e-12
1.1211e-12
1.00698e-12
9.18051e-13
8.07396e-13
6.81674e-13
5.52281e-13
4.06162e-13
2.55687e-13
1.35796e-13
6.24011e-14
2.66241e-14
1.12477e-14
5.22356e-15
3.88346e-15
4.35105e-15
5.55825e-15
8.53091e-15
1.33152e-14
1.62332e-14
1.64076e-14
1.36946e-14
6.39992e-15
2.16619e-15
1.09553e-15
2.06018e-05
2.09268e-05
2.12346e-05
2.13368e-05
2.12418e-05
2.11144e-05
2.1096e-05
2.11821e-05
2.16728e-05
2.20157e-05
2.19928e-05
2.18088e-05
2.17493e-05
2.18505e-05
2.21322e-05
2.21617e-05
2.20205e-05
2.19054e-05
2.19862e-05
2.27182e-05
2.62869e-05
3.65041e-05
4.4231e-05
4.71833e-05
4.74129e-05
4.58765e-05
3.75711e-05
2.2765e-05
1.25957e-05
6.49377e-06
3.13943e-06
1.4294e-06
6.15097e-07
2.50911e-07
9.72711e-08
3.59157e-08
1.26549e-08
4.26245e-09
1.37467e-09
4.2519e-10
1.26367e-10
3.6185e-11
1.00351e-11
2.73304e-12
7.66497e-13
2.59288e-13
1.39488e-13
1.1931e-13
1.21255e-13
1.3702e-13
1.61559e-13
1.86142e-13
2.1303e-13
2.43328e-13
2.77306e-13
3.15302e-13
3.57913e-13
4.05144e-13
4.57687e-13
5.15585e-13
5.78346e-13
6.49572e-13
7.19304e-13
8.08639e-13
8.76657e-13
9.88001e-13
1.04809e-12
1.16879e-12
1.23152e-12
1.32594e-12
1.40185e-12
1.44938e-12
1.5076e-12
1.50925e-12
1.49653e-12
1.4597e-12
1.37682e-12
1.26196e-12
1.08931e-12
9.66923e-13
8.36132e-13
6.67307e-13
5.02069e-13
3.4021e-13
1.92773e-13
8.97779e-14
3.56793e-14
1.31142e-14
5.14502e-15
2.47896e-15
1.92096e-15
2.0636e-15
2.64604e-15
3.85753e-15
4.62189e-15
4.68743e-15
4.0603e-15
2.30359e-15
1.27966e-15
1.02197e-15
2.15264e-05
2.19175e-05
2.19063e-05
2.20413e-05
2.23098e-05
2.22193e-05
2.17223e-05
2.12678e-05
2.11827e-05
2.12499e-05
2.14181e-05
2.1477e-05
2.15808e-05
2.1873e-05
2.2173e-05
2.22617e-05
2.22543e-05
2.22856e-05
2.24425e-05
2.32163e-05
2.66947e-05
3.591e-05
4.27417e-05
4.55114e-05
4.5777e-05
4.44022e-05
3.65981e-05
2.21987e-05
1.22844e-05
6.33478e-06
3.06361e-06
1.3954e-06
6.00714e-07
2.45162e-07
9.50971e-08
3.51368e-08
1.23903e-08
4.17713e-09
1.34853e-09
4.17576e-10
1.24256e-10
3.56264e-11
9.89318e-12
2.69733e-12
7.56166e-13
2.53774e-13
1.34549e-13
1.14338e-13
1.16206e-13
1.31871e-13
1.56732e-13
1.81685e-13
2.09386e-13
2.40533e-13
2.76005e-13
3.15843e-13
3.60704e-13
4.11462e-13
4.67442e-13
5.31248e-13
5.98989e-13
6.7868e-13
7.57498e-13
8.55138e-13
9.43429e-13
1.05523e-12
1.15486e-12
1.26585e-12
1.38091e-12
1.47367e-12
1.58986e-12
1.65914e-12
1.73947e-12
1.78185e-12
1.77766e-12
1.75399e-12
1.69583e-12
1.56859e-12
1.40827e-12
1.18168e-12
9.81299e-13
8.40297e-13
6.43444e-13
4.24071e-13
2.54283e-13
1.32271e-13
5.59463e-14
1.90558e-14
6.2062e-15
2.5234e-15
1.48817e-15
1.29516e-15
1.38157e-15
1.65708e-15
1.86488e-15
1.88757e-15
1.7418e-15
1.31681e-15
1.0676e-15
1.00464e-15
2.11636e-05
2.11048e-05
2.10683e-05
2.11146e-05
2.14195e-05
2.15731e-05
2.14011e-05
2.1141e-05
2.11109e-05
2.1192e-05
2.12837e-05
2.13115e-05
2.13393e-05
2.14257e-05
2.15821e-05
2.16243e-05
2.16251e-05
2.16614e-05
2.19139e-05
2.30928e-05
2.79767e-05
3.70158e-05
4.24217e-05
4.4168e-05
4.40886e-05
4.19303e-05
3.24485e-05
1.9353e-05
1.06602e-05
5.48048e-06
2.64348e-06
1.20149e-06
5.16436e-07
2.1056e-07
8.16414e-08
3.01702e-08
1.06467e-08
3.59397e-09
1.16239e-09
3.60785e-10
1.07665e-10
3.09746e-11
8.63607e-12
2.36607e-12
6.67689e-13
2.27061e-13
1.23511e-13
1.07166e-13
1.09875e-13
1.2662e-13
1.51645e-13
1.76585e-13
2.04948e-13
2.36954e-13
2.73767e-13
3.15379e-13
3.62621e-13
4.1635e-13
4.76818e-13
5.44575e-13
6.21198e-13
7.03629e-13
8.02225e-13
8.94202e-13
1.025e-12
1.1124e-12
1.28359e-12
1.36509e-12
1.54689e-12
1.63902e-12
1.78849e-12
1.9143e-12
1.98781e-12
2.10056e-12
2.12247e-12
2.10952e-12
2.06573e-12
1.96931e-12
1.80389e-12
1.51027e-12
1.27565e-12
1.00402e-12
7.86629e-13
5.8376e-13
3.52536e-13
1.74939e-13
7.50203e-14
2.79541e-14
9.25697e-15
3.08486e-15
1.52609e-15
1.15354e-15
1.1049e-15
1.15222e-15
1.20762e-15
1.21487e-15
1.18084e-15
1.07754e-15
1.01648e-15
1.00071e-15
2.05915e-05
2.08451e-05
2.14735e-05
2.19026e-05
2.19981e-05
2.19542e-05
2.17132e-05
2.15683e-05
2.15829e-05
2.1655e-05
2.16439e-05
2.15442e-05
2.14692e-05
2.1435e-05
2.14011e-05
2.13817e-05
2.13819e-05
2.14123e-05
2.1616e-05
2.26225e-05
2.69731e-05
3.62997e-05
4.19663e-05
4.37746e-05
4.36706e-05
4.13021e-05
3.11617e-05
1.82935e-05
9.97013e-06
5.08184e-06
2.43365e-06
1.09939e-06
4.70112e-07
1.90835e-07
7.37215e-08
2.71599e-08
9.56029e-09
3.2207e-09
1.04003e-09
3.22431e-10
9.61436e-11
2.76476e-11
7.70716e-12
2.11235e-12
5.97963e-13
2.05836e-13
1.14295e-13
1.00418e-13
1.0361e-13
1.206e-13
1.45865e-13
1.70857e-13
1.99591e-13
2.3256e-13
2.70294e-13
3.13954e-13
3.63282e-13
4.20114e-13
4.84368e-13
5.58112e-13
6.39889e-13
7.34198e-13
8.35453e-13
9.55506e-13
1.07339e-12
1.22668e-12
1.34942e-12
1.5427e-12
1.66017e-12
1.87605e-12
1.9949e-12
2.18764e-12
2.31937e-12
2.42055e-12
2.53563e-12
2.54154e-12
2.51695e-12
2.44345e-12
2.26226e-12
2.06331e-12
1.61659e-12
1.30732e-12
1.01317e-12
7.10854e-13
4.61044e-13
2.59632e-13
1.19255e-13
4.45105e-14
1.39952e-14
4.32189e-15
1.73452e-15
1.16413e-15
1.04666e-15
1.03976e-15
1.04983e-15
1.05231e-15
1.04436e-15
1.01912e-15
1.00405e-15
1.00002e-15
2.10822e-05
2.1065e-05
2.11839e-05
2.11415e-05
2.11294e-05
2.11943e-05
2.14557e-05
2.16897e-05
2.17664e-05
2.17535e-05
2.16271e-05
2.13848e-05
2.12095e-05
2.11033e-05
2.10471e-05
2.10338e-05
2.10396e-05
2.10961e-05
2.13914e-05
2.26813e-05
2.79458e-05
3.71361e-05
4.24483e-05
4.40731e-05
4.39308e-05
4.15068e-05
3.12778e-05
1.83564e-05
9.99712e-06
5.09096e-06
2.43579e-06
1.09951e-06
4.69868e-07
1.90646e-07
7.36243e-08
2.71192e-08
9.5455e-09
3.21594e-09
1.03867e-09
3.22089e-10
9.60686e-11
2.76326e-11
7.70361e-12
2.11004e-12
5.94166e-13
2.0103e-13
1.08854e-13
9.45613e-14
9.75756e-14
1.13996e-13
1.38777e-13
1.64849e-13
1.93111e-13
2.2717e-13
2.6566e-13
3.1106e-13
3.62573e-13
4.22278e-13
4.908e-13
5.69414e-13
6.58145e-13
7.61349e-13
8.72282e-13
1.00779e-12
1.13948e-12
1.31728e-12
1.45886e-12
1.68591e-12
1.83536e-12
2.07857e-12
2.26246e-12
2.47418e-12
2.68388e-12
2.82543e-12
3.00318e-12
3.07102e-12
3.06067e-12
3.01031e-12
2.88501e-12
2.60097e-12
2.29987e-12
1.6919e-12
1.30448e-12
9.74171e-13
6.15938e-13
3.38232e-13
1.60006e-13
6.65437e-14
2.32703e-14
7.1124e-15
2.35008e-15
1.24381e-15
1.04839e-15
1.0145e-15
1.0127e-15
1.0129e-15
1.01094e-15
1.00473e-15
1.001e-15
1e-15
2.06737e-05
2.14774e-05
2.1624e-05
2.15152e-05
2.1397e-05
2.14153e-05
2.16229e-05
2.18918e-05
2.19144e-05
2.18153e-05
2.17724e-05
2.18009e-05
2.17769e-05
2.16638e-05
2.14626e-05
2.1366e-05
2.13549e-05
2.14004e-05
2.17083e-05
2.31555e-05
2.91098e-05
3.84107e-05
4.34682e-05
4.49035e-05
4.47013e-05
4.21166e-05
3.15464e-05
1.85236e-05
1.01001e-05
5.14871e-06
2.46564e-06
1.11392e-06
4.76436e-07
1.93489e-07
7.47978e-08
2.7582e-08
9.72022e-09
3.27916e-09
1.0606e-09
3.29384e-10
9.8393e-11
2.83402e-11
7.90752e-12
2.16347e-12
6.05384e-13
2.00103e-13
1.04163e-13
8.8719e-14
9.11978e-14
1.07353e-13
1.30735e-13
1.57741e-13
1.86265e-13
2.20158e-13
2.60181e-13
3.06151e-13
3.60545e-13
4.22241e-13
4.94552e-13
5.78573e-13
6.74987e-13
7.83234e-13
9.13518e-13
1.04856e-12
1.22306e-12
1.3794e-12
1.62117e-12
1.77377e-12
2.09405e-12
2.25572e-12
2.602e-12
2.76946e-12
3.09464e-12
3.30414e-12
3.47557e-12
3.71907e-12
3.75162e-12
3.72195e-12
3.62226e-12
3.40427e-12
2.97331e-12
2.45857e-12
1.7333e-12
1.21621e-12
8.33385e-13
5.04584e-13
2.46824e-13
9.64305e-14
3.30731e-14
1.00921e-14
3.12525e-15
1.40651e-15
1.06691e-15
1.01293e-15
1.00408e-15
1.00331e-15
1.0027e-15
1.00117e-15
1.00025e-15
1e-15
2.07644e-05
2.14369e-05
2.17353e-05
2.1842e-05
2.18774e-05
2.18517e-05
2.18239e-05
2.18897e-05
2.20438e-05
2.21024e-05
2.20653e-05
2.18565e-05
2.18075e-05
2.1878e-05
2.18862e-05
2.17303e-05
2.16275e-05
2.16472e-05
2.18943e-05
2.31842e-05
2.8764e-05
3.93719e-05
4.53767e-05
4.7061e-05
4.68251e-05
4.38666e-05
3.2271e-05
1.88792e-05
1.02816e-05
5.23852e-06
2.50852e-06
1.13364e-06
4.85141e-07
1.97173e-07
7.62921e-08
2.81629e-08
9.93669e-09
3.35652e-09
1.08713e-09
3.38115e-10
1.0115e-10
2.91738e-11
8.14778e-12
2.2281e-12
6.19236e-13
1.99199e-13
9.91783e-14
8.25705e-14
8.44645e-14
9.99444e-14
1.23037e-13
1.48736e-13
1.79136e-13
2.11819e-13
2.53146e-13
2.99887e-13
3.56021e-13
4.20825e-13
4.96776e-13
5.83846e-13
6.88853e-13
8.07573e-13
9.4315e-13
1.10136e-12
1.28477e-12
1.48106e-12
1.71591e-12
1.96834e-12
2.23582e-12
2.55524e-12
2.8501e-12
3.20304e-12
3.49946e-12
3.88282e-12
4.12917e-12
4.37946e-12
4.58427e-12
4.5798e-12
4.51929e-12
4.34849e-12
4.01938e-12
3.36656e-12
2.43799e-12
1.71754e-12
1.14949e-12
6.64047e-13
3.33363e-13
1.48392e-13
5.45365e-14
1.6921e-14
4.89184e-15
1.77828e-15
1.12315e-15
1.01721e-15
1.00302e-15
1.00099e-15
1.00068e-15
1.00029e-15
1.00006e-15
1e-15
2.08659e-05
2.13434e-05
2.19364e-05
2.20451e-05
2.20032e-05
2.19247e-05
2.16999e-05
2.15027e-05
2.14582e-05
2.14819e-05
2.16792e-05
2.19917e-05
2.21147e-05
2.21644e-05
2.21645e-05
2.20382e-05
2.19374e-05
2.19517e-05
2.21503e-05
2.31955e-05
2.77968e-05
3.859e-05
4.53519e-05
4.75413e-05
4.74611e-05
4.49211e-05
3.38807e-05
1.98335e-05
1.07875e-05
5.49241e-06
2.62967e-06
1.1887e-06
5.09017e-07
2.07066e-07
8.02141e-08
2.96521e-08
1.04788e-08
3.5458e-09
1.15057e-09
3.58535e-10
1.07461e-10
3.10455e-11
8.67814e-12
2.36931e-12
6.5196e-13
2.03438e-13
9.5421e-14
7.6769e-14
7.79132e-14
9.03906e-14
1.17156e-13
1.37965e-13
1.70306e-13
2.03764e-13
2.43201e-13
2.92863e-13
3.48631e-13
4.17122e-13
4.95153e-13