/*--------------------------------*- C++ -*----------------------------------*\
| =========                 |                                                 |
| \\      /  F ield         | OpenFOAM: The Open Source CFD Toolbox           |
|  \\    /   O peration     | Version:  4.1                                   |
|   \\  /    A nd           | Web:      www.OpenFOAM.org                      |
|    \\/     M anipulation  |                                                 |
\*---------------------------------------------------------------------------*/
FoamFile
{
    version     2.0;
    format      ascii;
    class       volScalarField;
    location    "0.05";
    object      nut;
}
// * * * * * * * * * * * * * * * * * * * * * * * * * * * * * * * * * * * * * //

dimensions      [0 2 -1 0 0 0 0];

internalField   nonuniform List<scalar> 
43750
(
6.34398e-08
0
0
0
0
0
0
0
0
0
5.11778e-10
5.43164e-09
0
0
0
0
1.24336e-08
1.42698e-07
2.61437e-07
2.23859e-07
1.04337e-07
0
0
0
6.45119e-08
1.64585e-07
2.55043e-07
3.16362e-07
3.50582e-07
3.64506e-07
3.68882e-07
3.72016e-07
3.7558e-07
3.80077e-07
3.85459e-07
3.91565e-07
3.98255e-07
4.05825e-07
4.14073e-07
4.2277e-07
4.32023e-07
4.41887e-07
4.52394e-07
4.63572e-07
4.75448e-07
4.88051e-07
5.01407e-07
5.15543e-07
5.30492e-07
5.46276e-07
5.62937e-07
5.80478e-07
5.98978e-07
6.18374e-07
6.38851e-07
6.60182e-07
6.82768e-07
7.06112e-07
7.30894e-07
7.56358e-07
7.83326e-07
8.11003e-07
8.40108e-07
8.69943e-07
9.01107e-07
9.32842e-07
9.65721e-07
9.98888e-07
1.03306e-06
1.06876e-06
1.10576e-06
1.14408e-06
1.18374e-06
1.22466e-06
1.26682e-06
1.31029e-06
1.35508e-06
1.40115e-06
1.44842e-06
1.49684e-06
1.54636e-06
1.59694e-06
1.64855e-06
1.70118e-06
1.75483e-06
1.80953e-06
1.86538e-06
1.92251e-06
1.98114e-06
2.04153e-06
2.10404e-06
2.16897e-06
2.23632e-06
2.30505e-06
2.37107e-06
2.42247e-06
2.42305e-06
2.32225e-06
1.67166e-06
0
5.59846e-08
0
0
0
0
0
0
0
0
0
1.38798e-09
5.01547e-09
0
0
0
0
5.46076e-09
3.01434e-08
4.27016e-08
3.76786e-08
2.0027e-08
0
0
0
2.40202e-08
5.44994e-08
7.84967e-08
9.0179e-08
9.21521e-08
9.17586e-08
9.12448e-08
9.14264e-08
9.235e-08
9.37414e-08
9.5374e-08
9.7459e-08
1.00006e-07
1.02728e-07
1.05639e-07
1.08759e-07
1.1211e-07
1.15712e-07
1.19582e-07
1.23737e-07
1.28193e-07
1.3297e-07
1.38087e-07
1.43565e-07
1.49427e-07
1.55692e-07
1.62393e-07
1.69541e-07
1.77194e-07
1.85324e-07
1.94057e-07
2.03276e-07
2.13232e-07
2.23668e-07
2.34973e-07
2.46799e-07
2.59558e-07
2.72961e-07
2.87299e-07
3.02415e-07
3.18484e-07
3.35414e-07
3.53284e-07
3.72079e-07
3.9195e-07
4.12987e-07
4.3547e-07
4.59227e-07
4.846e-07
5.11389e-07
5.39662e-07
5.70166e-07
6.01568e-07
6.35507e-07
6.72073e-07
7.10854e-07
7.51827e-07
7.9558e-07
8.42424e-07
8.92749e-07
9.47043e-07
1.00594e-06
1.07027e-06
1.14113e-06
1.21995e-06
1.30854e-06
1.40943e-06
1.52527e-06
1.65941e-06
1.8142e-06
1.98486e-06
2.14378e-06
2.18493e-06
1.74308e-06
0
0
7.65043e-08
0
0
0
0
0
0
0
0
0
4.25163e-09
6.66313e-09
1.19635e-10
0
0
0
1.18484e-08
2.55189e-08
2.62895e-08
1.84684e-08
6.70971e-09
0
0
3.90824e-09
1.73639e-08
3.00157e-08
3.56054e-08
3.41995e-08
3.10929e-08
2.8273e-08
2.6582e-08
2.6061e-08
2.62615e-08
2.67604e-08
2.73845e-08
2.82628e-08
2.9349e-08
3.04991e-08
3.17367e-08
3.30791e-08
3.45407e-08
3.61347e-08
3.78734e-08
3.977e-08
4.18388e-08
4.40955e-08
4.65577e-08
4.9244e-08
5.21769e-08
5.53771e-08
5.88761e-08
6.26915e-08
6.6876e-08
7.14273e-08
7.64471e-08
8.18805e-08
8.79162e-08
9.4422e-08
1.01676e-07
1.09514e-07
1.18213e-07
1.27699e-07
1.38149e-07
1.49617e-07
1.62223e-07
1.76076e-07
1.913e-07
2.08026e-07
2.26499e-07
2.46785e-07
2.69324e-07
2.94052e-07
3.21549e-07
3.51855e-07
3.85211e-07
4.22459e-07
4.63449e-07
5.08765e-07
5.59296e-07
6.15407e-07
6.77502e-07
7.46135e-07
8.22163e-07
9.04945e-07
9.96624e-07
1.09638e-06
1.20192e-06
1.31167e-06
1.41997e-06
1.51796e-06
1.58804e-06
1.6089e-06
1.54723e-06
1.37354e-06
1.08891e-06
7.29566e-07
4.0707e-07
0
0
0
6.71672e-06
7.42678e-06
1.87289e-05
1.72996e-05
9.29014e-06
5.88546e-06
6.45531e-06
5.3087e-06
2.10879e-06
0
0
0
2.22156e-06
4.624e-06
5.4017e-06
5.45664e-06
3.99614e-06
1.42947e-06
0
0
2.94476e-07
1.89074e-06
3.5041e-06
4.69642e-06
5.32687e-06
5.44688e-06
5.023e-06
3.92908e-06
2.91587e-06
2.13426e-06
1.55437e-06
1.13586e-06
8.46703e-07
6.60273e-07
5.52323e-07
4.99506e-07
4.79451e-07
4.73622e-07
4.7105e-07
4.72867e-07
4.7923e-07
4.85221e-07
4.91132e-07
4.97147e-07
5.03312e-07
5.09619e-07
5.16047e-07
5.22556e-07
5.29125e-07
5.35683e-07
5.42253e-07
5.4867e-07
5.55099e-07
5.61131e-07
5.67269e-07
5.72644e-07
5.78259e-07
5.82762e-07
5.87432e-07
5.90947e-07
5.94137e-07
5.96423e-07
5.97847e-07
5.98405e-07
5.97918e-07
5.96338e-07
5.9355e-07
5.8937e-07
5.83859e-07
5.76474e-07
5.67785e-07
5.57037e-07
5.44793e-07
5.30697e-07
5.14491e-07
4.96708e-07
4.77145e-07
4.5563e-07
4.32502e-07
4.07919e-07
3.81981e-07
3.54852e-07
3.26849e-07
2.98176e-07
2.69307e-07
2.40665e-07
2.12747e-07
1.85703e-07
1.60073e-07
1.36311e-07
1.14422e-07
9.48529e-08
7.68758e-08
6.02712e-08
4.49572e-08
3.06134e-08
1.87271e-08
0
0
0
1.15461e-05
1.79499e-05
6.47611e-05
6.02459e-05
3.7177e-05
2.38142e-05
1.41389e-05
7.94689e-06
4.42627e-07
0
0
0
1.85975e-06
2.61442e-06
1.06367e-06
9.34153e-07
2.70479e-07
0
0
0
0
0
0
0
0
9.56644e-08
2.18676e-07
2.11819e-07
1.61495e-07
1.14405e-07
7.78107e-08
5.14911e-08
3.35591e-08
2.17074e-08
1.41397e-08
9.62338e-09
7.23127e-09
6.16674e-09
5.79964e-09
5.70691e-09
5.6835e-09
5.76443e-09
5.87256e-09
5.97758e-09
6.08831e-09
6.20709e-09
6.33469e-09
6.47127e-09
6.61727e-09
6.77223e-09
6.93739e-09
7.11057e-09
7.29563e-09
7.48576e-09
7.69085e-09
7.89554e-09
8.11829e-09
8.33522e-09
8.56838e-09
8.79618e-09
9.03125e-09
9.2683e-09
9.50641e-09
9.74895e-09
9.9918e-09
1.0232e-08
1.04645e-08
1.06844e-08
1.08952e-08
1.1085e-08
1.12636e-08
1.14065e-08
1.15136e-08
1.15707e-08
1.15606e-08
1.14864e-08
1.13422e-08
1.11145e-08
1.08029e-08
1.0409e-08
9.93229e-09
9.37317e-09
8.73584e-09
8.02703e-09
7.2572e-09
6.44065e-09
5.59184e-09
4.72911e-09
3.86307e-09
3.02344e-09
2.20025e-09
1.42137e-09
6.67e-10
0
0
0
0
0
0
0
7.69019e-06
7.77394e-06
2.66595e-05
4.52475e-05
2.64046e-05
6.48492e-06
4.46433e-06
2.90444e-06
0
0
0
0
5.65734e-06
5.56128e-06
3.03319e-06
2.2369e-06
1.92827e-06
1.77217e-06
2.32144e-06
1.7484e-06
0
0
0
0
0
0
0
0
0
0
1.01558e-09
9.0109e-10
6.7052e-10
4.84362e-10
3.21937e-10
2.00658e-10
1.23948e-10
7.9723e-11
5.71007e-11
4.81796e-11
4.65713e-11
4.74816e-11
4.93074e-11
5.23217e-11
5.54764e-11
5.88323e-11
6.24588e-11
6.63932e-11
7.06716e-11
7.53149e-11
8.03716e-11
8.58302e-11
9.17802e-11
9.81167e-11
1.05029e-10
1.12235e-10
1.20083e-10
1.28135e-10
1.36845e-10
1.45925e-10
1.55717e-10
1.66321e-10
1.77758e-10
1.9012e-10
2.03201e-10
2.1674e-10
2.30571e-10
2.44761e-10
2.59757e-10
2.74993e-10
2.89734e-10
3.01862e-10
3.10132e-10
3.13878e-10
3.12409e-10
3.05295e-10
2.91805e-10
2.71207e-10
2.43459e-10
2.088e-10
1.67427e-10
1.19603e-10
6.57709e-11
6.48724e-12
0
0
0
0
0
0
0
0
0
0
0
0
0
0
0
0
6.16339e-06
6.76138e-06
7.13751e-06
7.72782e-06
1.16411e-06
0
0
0
0
0
0
4.04646e-06
1.06956e-05
1.19251e-05
7.70979e-06
5.21245e-06
4.35554e-06
5.55159e-06
7.02952e-06
5.28219e-06
1.5356e-06
4.49255e-08
0
0
0
0
0
0
0
0
1.46272e-10
0
0
0
5.21649e-12
7.3088e-12
6.34131e-12
4.89835e-12
3.2831e-12
2.07059e-12
1.40863e-12
1.14551e-12
1.08346e-12
1.06972e-12
1.07628e-12
1.09737e-12
1.10957e-12
1.11495e-12
1.11341e-12
1.10322e-12
1.08247e-12
1.04732e-12
9.94968e-13
9.186e-13
8.148e-13
6.74261e-13
4.94638e-13
2.71007e-13
9.08838e-15
0
0
0
0
0
0
0
0
0
0
0
0
0
0
0
0
0
0
0
0
0
0
0
0
0
0
0
0
0
0
0
0
0
0
1.9885e-12
3.8708e-12
4.30726e-12
4.26962e-12
0
0
0
3.35436e-06
3.48644e-06
2.58268e-06
0
0
0
0
4.65469e-06
8.22348e-07
0
2.44112e-07
5.06295e-06
1.12273e-05
1.08772e-05
9.11324e-06
9.71883e-06
1.10823e-05
1.27691e-05
1.25051e-05
8.27507e-06
3.13268e-06
1.07345e-06
4.05785e-07
1.03267e-07
0
0
0
0
0
1.5036e-09
1.62401e-09
9.02942e-10
4.40951e-10
2.23556e-10
1.08435e-10
4.84985e-11
2.17759e-11
1.03977e-11
5.14931e-12
2.60006e-12
1.35645e-12
7.55286e-13
4.88754e-13
3.99709e-13
3.86966e-13
3.90235e-13
4.06663e-13
4.25489e-13
4.41468e-13
4.55056e-13
4.65943e-13
4.72751e-13
4.75143e-13
4.70603e-13
4.59453e-13
4.37993e-13
4.0747e-13
3.64373e-13
3.10154e-13
2.42931e-13
1.61263e-13
6.07695e-14
0
0
0
0
0
0
0
0
0
0
0
0
0
0
0
0
0
0
0
0
0
0
0
0
0
0
1.37468e-12
3.22764e-12
5.33461e-12
7.85373e-12
1.1014e-11
1.41665e-11
1.67886e-11
1.8263e-11
1.79479e-11
0
0
0
0
0
3.2326e-06
0
0
0
0
5.741e-06
3.06415e-06
0
0
1.29229e-06
4.32011e-06
5.29827e-06
5.17403e-06
4.84336e-06
4.61736e-06
5.59375e-06
6.47191e-06
4.78707e-06
1.41883e-06
4.85871e-07
2.59294e-07
1.21405e-07
1.99398e-08
0
0
0
0
0
0
0
0
0
0
0
3.58086e-13
3.48788e-12
3.11114e-12
2.07072e-12
1.23551e-12
6.98704e-13
3.86584e-13
2.24025e-13
1.55546e-13
1.38407e-13
1.38755e-13
1.43658e-13
1.53302e-13
1.61907e-13
1.70005e-13
1.77356e-13
1.84177e-13
1.8953e-13
1.93986e-13
1.95994e-13
1.96479e-13
1.93629e-13
1.87912e-13
1.77829e-13
1.62435e-13
1.40429e-13
1.09939e-13
6.95912e-14
1.82058e-14
0
0
0
0
0
0
0
0
0
0
0
0
0
0
0
0
0
0
0
0
0
0
0
0
0
0
0
0
0
0
0
0
0
0
0
0
0
0
0
0
0
3.01208e-06
1.17478e-05
1.06895e-05
3.24498e-06
0
0
0
2.05325e-06
3.49881e-06
2.64988e-06
6.94779e-07
4.82011e-07
1.29542e-06
0
0
0
0
9.4429e-09
8.13423e-08
1.01898e-07
9.01411e-08
5.6365e-08
2.90283e-08
1.37467e-08
6.03844e-09
2.44425e-09
9.75084e-10
4.08174e-10
1.71367e-10
6.95577e-11
2.88467e-11
1.28855e-11
6.10859e-12
3.01029e-12
1.53316e-12
7.95903e-13
4.15216e-13
2.1791e-13
1.18993e-13
7.56868e-14
6.23529e-14
6.09586e-14
6.22408e-14
6.61643e-14
6.99836e-14
7.32802e-14
7.63287e-14
7.89538e-14
8.11986e-14
8.27923e-14
8.37857e-14
8.37721e-14
8.27438e-14
8.01643e-14
7.59168e-14
6.95051e-14
6.06292e-14
4.88943e-14
3.38658e-14
1.50988e-14
0
0
0
0
0
0
0
0
0
0
0
0
0
0
0
0
0
0
0
0
0
0
0
0
0
0
0
0
0
0
0
0
0
0
6.71915e-06
1.29795e-05
2.31878e-05
2.71629e-05
0
0
8.17146e-06
1.4734e-05
1.2778e-05
7.18237e-06
2.08787e-06
0
1.56112e-06
4.4893e-06
4.86661e-06
3.26459e-06
0
0
5.84867e-08
0
0
0
7.1124e-08
7.159e-08
0
0
0
0
0
0
0
0
0
0
0
0
0
2.79529e-12
3.02877e-12
2.13501e-12
1.31105e-12
7.52428e-13
4.13195e-13
2.21049e-13
1.19133e-13
7.02263e-14
5.19901e-14
4.81671e-14
4.8435e-14
5.05553e-14
5.35961e-14
5.60194e-14
5.80447e-14
5.9759e-14
6.10818e-14
6.1924e-14
6.22634e-14
6.18055e-14
6.08559e-14
5.87343e-14
5.59119e-14
5.18917e-14
4.67029e-14
4.0477e-14
3.27772e-14
2.37763e-14
1.3299e-14
1.24878e-15
0
0
0
0
0
0
0
0
0
0
0
0
0
0
0
0
0
0
0
0
0
0
0
0
0
0
0
0
0
0
0
0
0
0
0
0
0
1.0824e-06
2.44156e-06
2.95119e-06
1.69443e-06
2.41942e-06
5.44642e-07
0
3.04928e-06
5.52764e-06
3.83904e-06
9.00785e-07
0
0
0
0
0
0
0
0
0
0
0
0
0
3.70522e-09
2.90367e-09
1.37785e-09
5.95731e-10
2.71697e-10
1.22436e-10
5.22179e-11
2.28398e-11
1.0885e-11
5.48738e-12
2.84613e-12
1.51021e-12
8.09e-13
4.31264e-13
2.28329e-13
1.22363e-13
7.13959e-14
5.19529e-14
4.77486e-14
4.8137e-14
5.03384e-14
5.37814e-14
5.65582e-14
5.9029e-14
6.11819e-14
6.2983e-14
6.43108e-14
6.52367e-14
6.54346e-14
6.50616e-14
6.37541e-14
6.14995e-14
5.84181e-14
5.39984e-14
4.8835e-14
4.23656e-14
3.48514e-14
2.63979e-14
1.68567e-14
6.5505e-15
0
0
0
0
0
0
0
0
0
0
0
0
0
0
0
0
0
0
0
0
0
0
0
0
0
0
0
0
0
0
0
7.5816e-06
1.48666e-05
3.58628e-05
4.96314e-05
2.88187e-05
9.54731e-06
9.73325e-07
0
0
0
0
0
0
5.42704e-07
0
0
0
0
0
0
0
0
0
0
0
0
0
0
0
0
0
0
0
0
0
0
0
3.13271e-12
3.01564e-12
2.08803e-12
1.28641e-12
7.46149e-13
4.1528e-13
2.25343e-13
1.22569e-13
7.20415e-14
5.25159e-14
4.84064e-14
4.90945e-14
5.16892e-14
5.57231e-14
5.91662e-14
6.23099e-14
6.52356e-14
6.78568e-14
7.01461e-14
7.18945e-14
7.31769e-14
7.36422e-14
7.3536e-14
7.22033e-14
7.01816e-14
6.68071e-14
6.24643e-14
5.70149e-14
5.02189e-14
4.25472e-14
3.35606e-14
2.37282e-14
1.30491e-14
1.75288e-15
0
0
0
0
0
0
0
0
0
0
0
0
0
0
0
0
0
0
0
0
0
0
0
0
0
0
0
0
0
3.41891e-06
6.48663e-06
2.57369e-05
4.53488e-05
3.02252e-05
1.27881e-05
3.00053e-06
0
0
0
0
0
0
2.61388e-06
3.91645e-07
0
0
0
0
0
0
0
0
0
0
0
0
0
0
0
9.37277e-10
6.08554e-10
2.64666e-10
1.30295e-10
6.48127e-11
2.98967e-11
1.44394e-11
7.7421e-12
4.30883e-12
2.40274e-12
1.34339e-12
7.47336e-13
4.09785e-13
2.21885e-13
1.21164e-13
7.16919e-14
5.26899e-14
4.89875e-14
5.0051e-14
5.31984e-14
5.78664e-14
6.20007e-14
6.59114e-14
6.96961e-14
7.32377e-14
7.65085e-14
7.94257e-14
8.17626e-14
8.37458e-14
8.452e-14
8.51466e-14
8.37153e-14
8.23946e-14
7.86853e-14
7.46775e-14
6.88568e-14
6.17348e-14
5.35506e-14
4.37721e-14
3.32052e-14
2.14422e-14
9.19153e-15
0
0
0
0
0
0
0
0
0
0
0
0
0
0
0
0
0
0
0
0
0
0
0
0
0
0
0
0
0
2.07653e-09
4.34931e-06
3.11551e-05
2.24194e-05
1.09606e-05
7.17106e-06
5.01894e-06
1.8919e-06
0
0
2.7394e-07
8.01807e-06
7.80401e-06
3.94289e-06
8.22867e-07
0
0
0
0
0
0
0
0
0
0
0
0
0
0
0
0
0
0
0
6.98104e-13
3.50373e-12
3.67316e-12
2.76661e-12
1.79362e-12
1.08747e-12
6.33133e-13
3.56874e-13
1.97106e-13
1.09789e-13
6.6961e-14
5.12812e-14
4.90211e-14
5.06984e-14
5.47436e-14
6.00158e-14
6.4858e-14
6.95853e-14
7.42823e-14
7.8852e-14
8.3263e-14
8.73941e-14
9.114e-14
9.44023e-14
9.70733e-14
9.86964e-14
9.98856e-14
9.89009e-14
9.82508e-14
9.44109e-14
9.09238e-14
8.46084e-14
7.73178e-14
6.84134e-14
5.77144e-14
4.59082e-14
3.25874e-14
1.8574e-14
4.14957e-15
0
0
0
0
0
0
0
0
0
0
0
0
0
0
0
0
0
0
0
0
0
0
0
0
0
0
0
0
0
2.20398e-05
2.22263e-05
1.02665e-05
8.84447e-06
6.49178e-06
4.3531e-06
5.7623e-06
8.57503e-06
9.58559e-06
9.19325e-06
7.35935e-06
4.32377e-06
1.80612e-06
0
0
0
0
0
0
0
0
0
0
0
0
0
0
2.78131e-10
3.88051e-10
1.73777e-10
8.53584e-11
4.27499e-11
1.98097e-11
9.85302e-12
5.558e-12
3.23519e-12
1.86713e-12
1.07302e-12
6.10717e-13
3.41675e-13
1.88726e-13
1.05665e-13
6.52441e-14
5.08653e-14
4.92686e-14
5.1394e-14
5.61145e-14
6.20567e-14
6.7641e-14
7.32481e-14
7.89212e-14
8.45722e-14
9.02295e-14
9.56672e-14
1.00978e-13
1.05715e-13
1.10275e-13
1.13611e-13
1.16778e-13
1.179e-13
1.18724e-13
1.17516e-13
1.1485e-13
1.11104e-13
1.04432e-13
9.70521e-14
8.6768e-14
7.51398e-14
6.15201e-14
4.62115e-14
2.99573e-14
1.30669e-14
0
0
0
0
0
0
0
0
0
0
0
0
0
0
0
0
0
0
0
0
0
0
0
0
0
5.87542e-07
3.90447e-06
1.36494e-05
1.17773e-05
2.96904e-06
0
0
6.51619e-06
1.13224e-05
1.4691e-05
1.71264e-05
1.49151e-05
1.00174e-05
5.22362e-06
2.82022e-06
1.51193e-06
0
0
0
0
0
0
0
0
0
0
0
0
0
0
6.61624e-11
1.73743e-10
5.26896e-11
2.92647e-11
1.93284e-11
1.06784e-11
6.47325e-12
4.35341e-12
2.81575e-12
1.72325e-12
1.02479e-12
5.95542e-13
3.37742e-13
1.88358e-13
1.06137e-13
6.5596e-14
5.10324e-14
4.95718e-14
5.20313e-14
5.72548e-14
6.39217e-14
7.03138e-14
7.68067e-14
8.35256e-14
9.03607e-14
9.72764e-14
1.04269e-13
1.11042e-13
1.17885e-13
1.23879e-13
1.30174e-13
1.34354e-13
1.39463e-13
1.40656e-13
1.43784e-13
1.417e-13
1.41084e-13
1.36189e-13
1.29827e-13
1.2172e-13
1.0981e-13
9.68615e-14
8.0696e-14
6.27201e-14
4.34389e-14
2.32057e-14
2.84558e-15
0
0
0
0
0
0
0
0
0
0
0
0
0
0
0
0
0
0
0
0
0
0
0
6.3943e-06
8.4061e-06
6.23645e-06
8.42634e-06
8.75887e-06
2.62402e-06
0
2.25861e-06
5.68301e-06
1.01385e-05
1.59805e-05
1.90361e-05
1.36317e-05
6.12912e-06
3.79008e-06
3.38916e-06
3.85988e-06
4.51778e-06
2.71089e-06
0
0
0
0
0
0
0
0
0
0
0
0
0
0
1.12596e-11
1.60197e-11
1.03709e-11
6.51141e-12
4.35135e-12
2.78703e-12
1.69823e-12
1.01115e-12
5.90465e-13
3.37016e-13
1.89166e-13
1.07052e-13
6.61173e-14
5.11885e-14
4.97498e-14
5.24934e-14
5.81502e-14
6.55589e-14
7.27773e-14
8.02178e-14
8.80093e-14
9.60987e-14
1.04431e-13
1.12977e-13
1.21597e-13
1.3024e-13
1.3874e-13
1.46829e-13
1.54691e-13
1.60848e-13
1.67427e-13
1.70003e-13
1.74762e-13
1.72919e-13
1.73814e-13
1.68e-13
1.62021e-13
1.52391e-13
1.3891e-13
1.23676e-13
1.04117e-13
8.25521e-14
5.91606e-14
3.43447e-14
9.5262e-15
0
0
0
0
0
0
0
0
0
0
0
0
0
0
0
0
0
0
0
0
0
0
1.09584e-06
0
0
7.25159e-06
1.39817e-05
1.12546e-05
9.71044e-06
7.59492e-06
3.13266e-06
3.88027e-06
6.40272e-06
6.86505e-06
3.37388e-06
2.16622e-06
2.79905e-06
4.46627e-06
8.53543e-06
7.52455e-06
3.53201e-06
0
0
0
0
0
0
0
0
0
0
0
9.70441e-10
4.49177e-10
1.32627e-10
5.25211e-11
2.5491e-11
1.17592e-11
6.27059e-12
3.99404e-12
2.5595e-12
1.58007e-12
9.55499e-13
5.66068e-13
3.27124e-13
1.85565e-13
1.05916e-13
6.56716e-14
5.08369e-14
4.95751e-14
5.26407e-14
5.87898e-14
6.69367e-14
7.49641e-14
8.33908e-14
9.22756e-14
1.01685e-13
1.11507e-13
1.21727e-13
1.32339e-13
1.43068e-13
1.54128e-13
1.64734e-13
1.75723e-13
1.85057e-13
1.94833e-13
2.01532e-13
2.08586e-13
2.12092e-13
2.14162e-13
2.13805e-13
2.089e-13
2.02644e-13
1.90369e-13
1.75794e-13
1.56417e-13
1.32605e-13
1.06132e-13
7.71572e-14
4.61565e-14
1.54646e-14
0
0
0
0
0
0
0
0
0
0
0
0
0
0
0
0
0
0
0
0
0
0
0
0
0
1.37412e-05
1.29048e-05
1.35896e-05
6.72802e-06
0
0
0
0
0
0
9.43097e-07
1.96043e-06
2.74699e-06
0
0
0
0
4.22673e-09
0
0
0
0
0
0
0
0
0
0
0
0
0
0
1.99145e-12
2.45997e-12
1.94488e-12
1.30842e-12
8.26845e-13
5.03105e-13
2.96211e-13
1.7054e-13
9.86484e-14
6.21004e-14
4.9064e-14
4.86863e-14
5.22607e-14
5.91779e-14
6.80347e-14
7.6801e-14
8.62141e-14
9.62357e-14
1.07001e-13
1.18384e-13
1.30407e-13
1.43065e-13
1.5622e-13
1.69765e-13
1.83713e-13
1.97337e-13
2.117e-13
2.23339e-13
2.37553e-13
2.44408e-13
2.57726e-13
2.59155e-13
2.66931e-13
2.63504e-13
2.61222e-13
2.53285e-13
2.38208e-13
2.21666e-13
1.96656e-13
1.67103e-13
1.33857e-13
9.71755e-14
5.83459e-14
1.94048e-14
0
0
0
0
0
0
0
0
0
0
0
0
0
0
0
0
0
0
0
0
2.63525e-06
0
0
0
0
5.80265e-06
6.88996e-06
2.01216e-06
1.88476e-06
3.63022e-06
3.63023e-06
1.40719e-06
0
0
0
0
0
0
0
0
0
0
0
0
0
0
0
0
0
0
7.62925e-10
4.91404e-10
1.39616e-10
4.20766e-11
1.58233e-11
6.0842e-12
3.25391e-12
2.39573e-12
1.71903e-12
1.14364e-12
7.30597e-13
4.51368e-13
2.69577e-13
1.57169e-13
9.20271e-14
5.88223e-14
4.73382e-14
4.76168e-14
5.16185e-14
5.91118e-14
6.86983e-14
7.82194e-14
8.85757e-14
9.97913e-14
1.11879e-13
1.24956e-13
1.38829e-13
1.5369e-13
1.69332e-13
1.85902e-13
2.02908e-13
2.20775e-13
2.3828e-13
2.56604e-13
2.72376e-13
2.89957e-13
3.01136e-13
3.16915e-13
3.21422e-13
3.31477e-13
3.28655e-13
3.27434e-13
3.16727e-13
2.99271e-13
2.77783e-13
2.45774e-13
2.08548e-13
1.66119e-13
1.18253e-13
6.9712e-14
2.04415e-14
0
0
0
0
0
0
0
0
0
0
0
0
0
0
0
0
0
0
0
9.30384e-06
9.91183e-06
1.10664e-05
9.46203e-06
5.98917e-06
2.88979e-06
3.36377e-07
6.2315e-06
1.11899e-05
1.11149e-05
1.15492e-05
1.1646e-05
3.6995e-06
0
0
0
0
0
0
0
0
0
0
0
0
0
0
0
0
0
0
0
0
0
0
0
5.85794e-13
1.40442e-12
1.3197e-12
9.73855e-13
6.56851e-13
4.19552e-13
2.56236e-13
1.51796e-13
8.9784e-14
5.74951e-14
4.60997e-14
4.64687e-14
5.07298e-14
5.85758e-14
6.87076e-14
7.92287e-14
9.03348e-14
1.02803e-13
1.16213e-13
1.30994e-13
1.46827e-13
1.63975e-13
1.82358e-13
2.01985e-13
2.22598e-13
2.44624e-13
2.66599e-13
2.9059e-13
3.11788e-13
3.36429e-13
3.53341e-13
3.77009e-13
3.88069e-13
4.04675e-13
4.1046e-13
4.13522e-13
4.10471e-13
3.96205e-13
3.78168e-13
3.46879e-13
3.05738e-13
2.57778e-13
2.02661e-13
1.40236e-13
7.81014e-14
1.69559e-14
0
0
0
0
0
0
0
0
0
0
0
0
0
0
0
0
0
0
3.80899e-06
1.63893e-06
4.09531e-06
4.10732e-06
2.28378e-06
3.11552e-06
3.64255e-06
6.45395e-06
9.33567e-06
9.52552e-06
1.05342e-05
1.55974e-05
1.50856e-05
3.75808e-06
5.76923e-07
0
0
0
0
0
0
0
0
0
0
0
0
0
0
0
0
3.3755e-11
0
0
0
0
3.25923e-13
1.09656e-12
1.11444e-12
8.5954e-13
5.99613e-13
3.93278e-13
2.45162e-13
1.47491e-13
8.81096e-14
5.63869e-14
4.4747e-14
4.50276e-14
4.94231e-14
5.76632e-14
6.80653e-14
7.95599e-14
9.15744e-14
1.05012e-13
1.1995e-13
1.36226e-13
1.54252e-13
1.73615e-13
1.94812e-13
2.17803e-13
2.42432e-13
2.68292e-13
2.96726e-13
3.24408e-13
3.56027e-13
3.8226e-13
4.16709e-13
4.35935e-13
4.71108e-13
4.8338e-13
5.09674e-13
5.12093e-13
5.22269e-13
5.14906e-13
4.9711e-13
4.76007e-13
4.3312e-13
3.7972e-13
3.16529e-13
2.43485e-13
1.61585e-13
8.08139e-14
7.31211e-15
0
0
0
0
0
0
0
0
0
0
0
0
0
0
0
0
0
1.05976e-06
3.83039e-06
5.8462e-06
1.50144e-06
2.53286e-06
5.50585e-06
5.42366e-06
1.89951e-06
9.86733e-07
2.47879e-06
7.01934e-06
1.6627e-05
1.48868e-05
7.09906e-06
3.02582e-06
3.09361e-07
0
0
0
0
0
0
0
0
0
0
0
0
0
0
0
0
0
0
0
0
0
0
5.64681e-13
6.26899e-13
5.01879e-13
3.52912e-13
2.28996e-13
1.41282e-13
8.56401e-14
5.48132e-14
4.30081e-14
4.31777e-14
4.76531e-14
5.6134e-14
6.70472e-14
7.89095e-14
9.22386e-14
1.06357e-13
1.22795e-13
1.40628e-13
1.60669e-13
1.82571e-13
2.06681e-13
2.32758e-13
2.61863e-13
2.92805e-13
3.25798e-13
3.61339e-13
3.99119e-13
4.36308e-13
4.75711e-13
5.13311e-13
5.48265e-13
5.84102e-13
6.10991e-13
6.36933e-13
6.49303e-13
6.60581e-13
6.50364e-13
6.30443e-13
5.9643e-13
5.38666e-13
4.68618e-13
3.84814e-13
2.88347e-13
1.80152e-13
7.43161e-14
0
0
0
0
0
0
0
0
0
0
0
0
0
0
0
0
0
0
0
0
1.1273e-06
5.76136e-06
1.17964e-05
1.05738e-05
2.91578e-06
0
0
2.36878e-06
5.55417e-06
9.01055e-06
7.88582e-06
4.21512e-06
1.6104e-06
0
0
0
0
0
3.61741e-08
4.29632e-08
0
0
0
0
0
0
0
0
1.11655e-10
5.33832e-12
0
0
0
0
3.13945e-13
6.24447e-13
5.88831e-13
4.63468e-13
3.30271e-13
2.18295e-13
1.36923e-13
8.38576e-14
5.35604e-14
4.12485e-14
4.10966e-14
4.55571e-14
5.35315e-14
6.60467e-14
7.71927e-14
9.18714e-14
1.07137e-13
1.24252e-13
1.44185e-13
1.65765e-13
1.90428e-13
2.17221e-13
2.47438e-13
2.79852e-13
3.16053e-13
3.56234e-13
3.98144e-13
4.42059e-13
4.94537e-13
5.37696e-13
5.96477e-13
6.33964e-13
6.99317e-13
7.25225e-13
7.80528e-13
7.97174e-13
8.29219e-13
8.34757e-13
8.25031e-13
8.02713e-13
7.49645e-13
6.72555e-13
5.77282e-13
4.61396e-13
3.29886e-13
1.92596e-13
5.96045e-14
0
0
0
0
0
0
0
0
0
0
0
0
0
0
0
0
0
4.98186e-06
2.85299e-06
2.69061e-06
3.91811e-06
4.62191e-06
0
0
0
0
0
3.68049e-07
2.88831e-06
3.49227e-06
2.44087e-06
1.37275e-06
0
0
0
0
0
0
0
0
0
0
0
0
0
0
0
0
0
0
0
0
0
0
0
1.99151e-13
3.12833e-13
2.71855e-13
1.95992e-13
1.28726e-13
8.08486e-14
5.18445e-14
3.92592e-14
3.85815e-14
4.31572e-14
5.06481e-14
6.29954e-14
7.64105e-14
8.93153e-14
1.07162e-13
1.24782e-13
1.45924e-13
1.69856e-13
1.9641e-13
2.26643e-13
2.59694e-13
2.97522e-13
3.38996e-13
3.82981e-13
4.35024e-13
4.90462e-13
5.44446e-13
6.12808e-13
6.73554e-13
7.43813e-13
7.99297e-13
8.81034e-13
9.22578e-13
9.90766e-13
1.02254e-12
1.06369e-12
1.055e-12
1.05504e-12
1.01687e-12
9.40647e-13
8.39271e-13
7.11639e-13
5.55312e-13
3.67771e-13
1.84683e-13
3.24276e-14
0
0
0
0
0
0
0
0
0
0
0
0
0
0
0
0
0
0
0
0
0
0
0
0
0
0
0
8.03924e-07
7.43116e-07
4.55243e-07
0
0
0
0
0
0
0
0
0
0
0
0
0
0
0
0
2.25124e-10
6.92485e-11
1.73877e-11
4.39218e-12
0
0
0
2.69209e-14
2.36062e-13
2.74616e-13
2.36364e-13
1.74438e-13
1.17518e-13
7.53474e-14
4.88302e-14
3.66001e-14
3.56972e-14
4.00096e-14
4.81648e-14
5.86763e-14
7.32823e-14
8.79272e-14
1.03882e-13
1.25025e-13
1.45882e-13
1.72039e-13
2.00827e-13
2.33846e-13
2.7083e-13
3.12226e-13
3.58791e-13
4.13016e-13
4.68037e-13
5.32557e-13
6.06171e-13
6.80977e-13
7.53583e-13
8.57935e-13
9.25983e-13
1.0221e-12
1.10661e-12
1.19882e-12
1.24474e-12
1.31722e-12
1.37285e-12
1.35603e-12
1.35756e-12
1.30012e-12
1.18417e-12
1.03738e-12
8.5979e-13
6.54381e-13
4.05446e-13
1.61461e-13
0
0
0
0
0
0
0
0
0
0
0
0
0
0
0
0
0
0
0
0
0
0
0
0
0
0
1.15359e-07
1.05759e-06
0
0
0
0
0
0
0
0
0
0
0
0
0
0
0
0
0
0
0
0
0
0
0
0
0
0
0
7.52666e-14
1.48969e-13
1.34596e-13
9.89448e-14
6.64562e-14
4.39707e-14
3.29373e-14
3.20706e-14
3.64025e-14
4.36753e-14
5.63595e-14
6.83216e-14
8.46698e-14
1.01826e-13
1.21162e-13
1.46088e-13
1.71276e-13
2.03551e-13
2.38096e-13
2.79345e-13
3.24867e-13
3.77144e-13
4.34918e-13
5.03575e-13
5.76951e-13
6.56183e-13
7.48469e-13
8.58423e-13
9.46671e-13
1.08414e-12
1.17799e-12
1.31432e-12
1.39844e-12
1.55406e-12
1.61776e-12
1.6873e-12
1.76789e-12
1.77021e-12
1.72959e-12
1.66928e-12
1.51764e-12
1.30889e-12
1.02901e-12
7.40408e-13
4.12789e-13
1.20378e-13
0
0
0
0
0
0
0
0
0
0
0
0
0
0
0
0
0
0
0
0
0
0
8.60624e-07
8.46106e-07
3.62123e-07
0
0
0
0
0
0
0
0
0
0
0
0
0
0
0
0
0
0
0
0
5.78313e-10
2.28212e-10
6.47791e-11
1.43644e-11
0
0
0
0
0
9.02779e-15
9.55606e-14
1.02223e-13
8.13681e-14
5.72051e-14
3.87104e-14
2.90152e-14
2.82146e-14
3.23441e-14
3.9353e-14
5.14685e-14
6.43709e-14
7.97411e-14
9.72013e-14
1.18599e-13
1.4166e-13
1.71241e-13
2.01838e-13
2.41212e-13
2.83544e-13
3.34335e-13
3.91557e-13
4.5667e-13
5.31062e-13
6.15101e-13
7.12198e-13
8.18432e-13
9.33391e-13
1.06409e-12
1.21734e-12
1.34284e-12
1.53358e-12
1.6728e-12
1.81771e-12
1.98824e-12
2.14864e-12
2.20034e-12
2.26359e-12
2.36366e-12
2.24424e-12
2.10865e-12
1.91327e-12
1.63797e-12
1.26502e-12
8.08099e-13
3.83355e-13
6.02681e-14
0
0
0
0
0
0
0
0
0
0
0
0
0
0
0
0
0
0
0
0
0
0
0
0
0
0
0
0
0
0
0
0
0
0
0
0
0
0
0
0
0
0
0
0
0
0
0
0
0
0
0
0
0
0
2.34037e-16
5.77158e-14
6.04358e-14
4.72911e-14
3.36483e-14
2.53229e-14
2.43354e-14
2.8126e-14
3.49582e-14
4.50417e-14
5.98512e-14
7.27562e-14
9.26091e-14
1.11615e-13
1.38109e-13
1.6545e-13
2.00799e-13
2.3876e-13
2.86249e-13
3.38886e-13
4.01428e-13
4.73647e-13
5.54681e-13
6.50116e-13
7.6039e-13
8.77692e-13
1.01924e-12
1.18672e-12
1.33014e-12
1.56449e-12
1.72615e-12
1.99929e-12
2.13865e-12
2.3947e-12
2.55224e-12
2.84164e-12
2.89661e-12
2.96701e-12
3.11448e-12
2.94529e-12
2.71963e-12
2.43474e-12
2.04746e-12
1.52116e-12
8.51541e-13
3.12053e-13
0
0
0
0
0
0
0
0
0
0
0
0
0
0
0
0
0
0
9.72638e-07
1.30009e-06
0
0
0
0
0
0
0
0
0
0
0
0
0
0
0
0
0
0
0
0
0
0
0
0
0
0
0
0
0
0
0
0
0
0
0
1.17261e-14
3.8651e-14
3.72423e-14
2.86885e-14
2.19057e-14
2.05195e-14
2.38939e-14
2.94628e-14
4.03414e-14
5.15667e-14
6.81319e-14
8.30994e-14
1.06466e-13
1.2833e-13
1.60498e-13
1.92983e-13
2.35937e-13
2.82333e-13
3.40763e-13
4.05275e-13
4.84163e-13
5.7341e-13
6.78595e-13
7.9456e-13
9.42302e-13
1.09895e-12
1.26951e-12
1.49501e-12
1.71289e-12
1.98586e-12
2.22684e-12
2.60937e-12
2.81643e-12
3.14672e-12
3.38815e-12
3.79697e-12
3.83161e-12
3.92872e-12
4.14561e-12
3.90974e-12
3.54954e-12
3.07456e-12
2.52652e-12
1.78673e-12
8.43397e-13
2.20548e-13
0
0
0
0
0
0
0
0
0
0
0
0
2.03665e-06
3.43252e-07
7.51532e-07
0
0
0
1.10935e-06
0
0
0
0
0
2.53538e-06
0
0
0
0
0
0
0
0
0
0
0
0
0
0
0
0
0
0
5.07202e-11
0
0
0
0
0
0
0
0
0
0
0
8.96828e-15
2.34924e-14
2.21539e-14
1.78922e-14
1.65669e-14
1.93556e-14
2.43327e-14
3.34053e-14
4.54586e-14
5.91358e-14
7.67718e-14
9.54645e-14
1.22048e-13
1.48571e-13
1.86605e-13
2.24832e-13
2.77709e-13
3.33519e-13
4.06097e-13
4.85171e-13
5.84517e-13
6.97431e-13
8.28996e-13
9.84607e-13
1.15901e-12
1.38018e-12
1.60779e-12
1.89464e-12
2.18769e-12
2.54371e-12
2.90465e-12
3.42758e-12
3.71786e-12
4.18753e-12
4.53141e-12
5.1074e-12
5.14475e-12
5.28329e-12
5.5379e-12
5.21417e-12
4.71448e-12
3.98916e-12
3.06206e-12
1.92093e-12
7.74905e-13
1.09116e-13
0
0
0
0
0
0
0
0
0
0
0
1.73772e-06
2.24289e-06
1.23029e-05
1.21967e-05
5.93897e-06
1.37849e-06
0
0
0
0
6.92895e-07
7.22569e-06
1.23396e-05
2.80525e-06
1.34845e-07
0
0
0
0
0
0
0
0
0
0
0
0
0
0
0
0
0
0
0
0
0
0
0
0
0
0
0
0
0
5.95558e-15
1.36028e-14
1.30999e-14
1.24825e-14
1.47781e-14
1.92704e-14
2.63162e-14
3.86987e-14
4.99242e-14
6.75646e-14
8.5014e-14
1.10101e-13
1.38272e-13
1.71843e-13
2.16261e-13
2.62275e-13
3.26463e-13
3.94761e-13
4.83265e-13
5.83194e-13
7.05205e-13
8.51364e-13
1.01437e-12
1.21991e-12
1.44696e-12
1.7343e-12
2.02222e-12
2.44789e-12
2.81773e-12
3.2971e-12
3.80481e-12
4.54751e-12
4.96121e-12
5.61849e-12
6.1311e-12
6.99483e-12
7.00828e-12
7.18611e-12
7.44384e-12
7.01234e-12
6.30349e-12
5.24358e-12
3.6629e-12
1.9479e-12
6.41606e-13
0
0
0
0
0
0
0
0
0
0
0
3.64506e-06
4.20332e-06
1.4641e-05
1.89194e-05
1.10901e-05
5.5255e-06
1.84885e-06
0
0
0
0
5.21526e-06
8.13077e-06
2.82477e-06
1.17554e-06
2.27112e-07
0
0
0
0
0
0
0
0
0
0
0
0
0
0
0
0
0
0
0
0
0
0
0
0
0
0
0
0
0
3.26495e-15
7.6326e-15
8.40305e-15
1.03937e-14
1.40195e-14
2.03378e-14
2.96432e-14
4.23721e-14
5.53867e-14
7.56521e-14
9.50093e-14
1.25592e-13
1.56314e-13
1.98454e-13
2.48636e-13
3.06723e-13
3.82004e-13
4.67526e-13
5.76342e-13
6.98332e-13
8.56657e-13
1.03504e-12
1.2529e-12
1.50875e-12
1.8072e-12
2.18824e-12
2.5822e-12
3.17253e-12
3.64523e-12
4.32042e-12
5.04529e-12
6.08795e-12
6.68631e-12
7.64857e-12
8.42798e-12
9.7009e-12
9.69619e-12
9.94751e-12
1.01536e-11
9.54799e-12
8.51585e-12
6.82423e-12
4.19741e-12
1.90881e-12
4.37782e-13
0
0
0
0
0
0
0
0
0
0
2.4139e-06
1.13646e-06
0
1.32321e-05
1.59109e-05
1.08695e-05
7.08647e-06
2.99138e-06
0
0
0
2.752e-07
4.76562e-06
2.09133e-06
9.51238e-07
2.39337e-07
0
0
0
0
0
0
6.78197e-08
9.87284e-08
3.13191e-08
0
0
0
0
0
0
0
0
0
0
0
0
0
0
0
0
0
0
0
0
0
1.48624e-15
4.39697e-15
6.35227e-15
9.31046e-15
1.44406e-14
2.15749e-14
3.34995e-14
4.46129e-14
6.23753e-14
8.20956e-14
1.07048e-13
1.40638e-13
1.76381e-13
2.28767e-13
2.83647e-13
3.57891e-13
4.4734e-13
5.48538e-13
6.87358e-13
8.35891e-13
1.03659e-12
1.26614e-12
1.54317e-12
1.87046e-12
2.28837e-12
2.73814e-12
3.32008e-12
4.10691e-12
4.7708e-12
5.71077e-12
6.74483e-12
8.23294e-12
9.15208e-12
1.04946e-11
1.17255e-11
1.36935e-11
1.3651e-11
1.39936e-11
1.41452e-11
1.31815e-11
1.15107e-11
8.61669e-12
4.64878e-12
1.72479e-12
1.64694e-13
0
0
0
0
0
0
0
0
0
0
0
0
0
9.67798e-06
5.92673e-06
2.54522e-06
0
0
0
0
0
1.10771e-06
3.06601e-07
1.05481e-07
0
0
0
0
0
0
0
0
0
0
0
0
0
0
0
0
0
0
0
0
0
0
0
0
0
0
0
0
0
0
0
0
4.64618e-16
2.84503e-15
5.26381e-15
8.61955e-15
1.49352e-14
2.31695e-14
3.50258e-14
4.77794e-14
6.78227e-14
8.89473e-14
1.20199e-13
1.55595e-13
1.99368e-13
2.58623e-13
3.25652e-13
4.12267e-13
5.20584e-13
6.51493e-13
8.08491e-13
1.01255e-12
1.24886e-12
1.54991e-12
1.90408e-12
2.33324e-12
2.87652e-12
3.48759e-12
4.27816e-12
5.34544e-12
6.31698e-12
7.53996e-12
9.18074e-12
1.10789e-11
1.28542e-11
1.4697e-11
1.66155e-11
1.96112e-11
1.95405e-11
1.98388e-11
2.02652e-11
1.88472e-11
1.55672e-11
9.97584e-12
4.84949e-12
1.33246e-12
0
0
0
0
0
0
0
0
0
1.04655e-05
1.02107e-05
7.12519e-06
7.61256e-06
3.67076e-06
0
0
0
0
0
0
0
5.2324e-07
2.56635e-07
1.70418e-09
0
0
0
0
0
0
0
0
0
0
0
0
0
0
0
0
0
0
0
0
0
0
0
0
0
0
0
0
0
0
0
0
0
0
1.99306e-15
4.375e-15
8.60254e-15
1.45957e-14
2.48885e-14
3.52844e-14
5.22198e-14
7.05538e-14
9.65596e-14
1.31167e-13
1.69155e-13
2.27051e-13
2.86876e-13
3.70041e-13
4.80072e-13
5.9014e-13
7.71362e-13
9.48058e-13
1.20795e-12
1.51315e-12
1.89608e-12
2.34723e-12
2.91972e-12
3.62217e-12
4.4532e-12
5.5448e-12
6.92442e-12
8.58749e-12
1.01042e-11
1.26789e-11
1.52126e-11
1.7736e-11
2.11378e-11
2.41121e-11
2.83962e-11
2.91902e-11
2.91189e-11
2.88284e-11
2.6844e-11
2.13721e-11
1.19565e-11
4.80478e-12
7.22874e-13
0
0
0
0
0
0
0
0
1.05328e-05
8.26596e-06
3.99045e-06
0
0
0
0
0
0
0
0
0
0
0
0
0
0
0
0
0
0
0
2.5982e-08
1.53732e-08
0
0
0
0
0
0
0
0
0
0
0
0
0
0
0
0
0
0
0
0
0
0
0
0
0
0
1.26196e-15
3.62668e-15
7.57092e-15
1.44432e-14
2.361e-14