/*--------------------------------*- C++ -*----------------------------------*\
| =========                 |                                                 |
| \\      /  F ield         | OpenFOAM: The Open Source CFD Toolbox           |
|  \\    /   O peration     | Version:  4.1                                   |
|   \\  /    A nd           | Web:      www.OpenFOAM.org                      |
|    \\/     M anipulation  |                                                 |
\*---------------------------------------------------------------------------*/
FoamFile
{
    version     2.0;
    format      ascii;
    class       volScalarField;
    location    "0.05";
    object      p;
}
// * * * * * * * * * * * * * * * * * * * * * * * * * * * * * * * * * * * * * //

dimensions      [0 2 -2 0 0 0 0];

internalField   nonuniform List<scalar> 
43750
(
-2658.72
-2721.18
-2728.69
-2718.87
-2705.07
-2691.94
-2680.96
-2672.58
-2666.55
-2662.58
-2660.34
-2659.5
-2659.8
-2661
-2662.91
-2665.34
-2668.13
-2671.18
-2674.36
-2677.6
-2680.83
-2683.99
-2687.04
-2689.94
-2692.64
-2695.13
-2697.38
-2699.39
-2701.13
-2702.61
-2703.82
-2704.77
-2705.44
-2705.84
-2705.98
-2705.86
-2705.48
-2704.85
-2703.99
-2702.89
-2701.56
-2700.02
-2698.27
-2696.32
-2694.18
-2691.85
-2689.36
-2686.7
-2683.89
-2680.94
-2677.85
-2674.63
-2671.3
-2667.86
-2664.32
-2660.69
-2656.97
-2653.19
-2649.34
-2645.43
-2641.48
-2637.48
-2633.46
-2629.41
-2625.35
-2621.28
-2617.22
-2613.16
-2609.12
-2605.11
-2601.13
-2597.2
-2593.31
-2589.48
-2585.71
-2582.02
-2578.4
-2574.87
-2571.44
-2568.1
-2564.87
-2561.76
-2558.77
-2555.91
-2553.18
-2550.58
-2548.14
-2545.84
-2543.7
-2541.72
-2539.91
-2538.26
-2536.79
-2535.49
-2534.37
-2533.44
-2532.69
-2532.12
-2531.75
-2531.56
-2818.74
-2776.49
-2747.71
-2723.99
-2704.88
-2689.87
-2678.56
-2670.25
-2664.51
-2660.86
-2658.92
-2658.37
-2658.93
-2660.34
-2662.41
-2664.97
-2667.88
-2671.03
-2674.31
-2677.64
-2680.94
-2684.16
-2687.24
-2690.16
-2692.88
-2695.38
-2697.64
-2699.65
-2701.41
-2702.89
-2704.11
-2705.05
-2705.72
-2706.12
-2706.25
-2706.13
-2705.74
-2705.11
-2704.24
-2703.13
-2701.79
-2700.24
-2698.48
-2696.53
-2694.38
-2692.05
-2689.54
-2686.88
-2684.06
-2681.1
-2678
-2674.77
-2671.43
-2667.98
-2664.43
-2660.8
-2657.07
-2653.28
-2649.42
-2645.51
-2641.55
-2637.55
-2633.51
-2629.46
-2625.39
-2621.32
-2617.24
-2613.18
-2609.13
-2605.12
-2601.13
-2597.19
-2593.29
-2589.45
-2585.68
-2581.98
-2578.35
-2574.82
-2571.38
-2568.04
-2564.8
-2561.68
-2558.69
-2555.81
-2553.08
-2550.48
-2548.03
-2545.73
-2543.58
-2541.6
-2539.78
-2538.13
-2536.65
-2535.35
-2534.23
-2533.29
-2532.54
-2531.97
-2531.6
-2531.41
-2943.02
-2826.32
-2759.91
-2722.98
-2699.66
-2683.9
-2672.93
-2665.34
-2660.35
-2657.41
-2656.12
-2656.12
-2657.15
-2658.97
-2661.39
-2664.25
-2667.41
-2670.76
-2674.2
-2677.67
-2681.08
-2684.39
-2687.56
-2690.55
-2693.32
-2695.86
-2698.16
-2700.19
-2701.96
-2703.46
-2704.68
-2705.62
-2706.28
-2706.68
-2706.8
-2706.66
-2706.27
-2705.62
-2704.73
-2703.61
-2702.26
-2700.69
-2698.91
-2696.94
-2694.77
-2692.42
-2689.9
-2687.22
-2684.39
-2681.41
-2678.29
-2675.05
-2671.69
-2668.23
-2664.66
-2661.01
-2657.27
-2653.46
-2649.59
-2645.66
-2641.68
-2637.67
-2633.62
-2629.55
-2625.47
-2621.38
-2617.29
-2613.22
-2609.16
-2605.13
-2601.13
-2597.17
-2593.27
-2589.41
-2585.63
-2581.92
-2578.28
-2574.74
-2571.28
-2567.93
-2564.69
-2561.56
-2558.55
-2555.67
-2552.92
-2550.32
-2547.86
-2545.55
-2543.39
-2541.4
-2539.58
-2537.92
-2536.44
-2535.13
-2534.01
-2533.07
-2532.31
-2531.75
-2531.37
-2531.18
-2902.96
-2794.02
-2741.99
-2709.24
-2687.82
-2673.52
-2663.98
-2657.82
-2654.14
-2652.36
-2652.05
-2652.89
-2654.63
-2657.03
-2659.95
-2663.22
-2666.74
-2670.39
-2674.09
-2677.77
-2681.36
-2684.82
-2688.1
-2691.17
-2694.02
-2696.61
-2698.95
-2701.01
-2702.8
-2704.31
-2705.53
-2706.47
-2707.13
-2707.51
-2707.63
-2707.47
-2707.05
-2706.39
-2705.48
-2704.33
-2702.95
-2701.36
-2699.56
-2697.56
-2695.36
-2692.99
-2690.45
-2687.74
-2684.88
-2681.87
-2678.73
-2675.46
-2672.08
-2668.59
-2665
-2661.32
-2657.56
-2653.73
-2649.83
-2645.88
-2641.88
-2637.84
-2633.78
-2629.69
-2625.58
-2621.47
-2617.37
-2613.27
-2609.19
-2605.14
-2601.12
-2597.15
-2593.22
-2589.35
-2585.55
-2581.81
-2578.16
-2574.6
-2571.13
-2567.76
-2564.5
-2561.35
-2558.33
-2555.44
-2552.68
-2550.06
-2547.58
-2545.26
-2543.1
-2541.1
-2539.26
-2537.6
-2536.11
-2534.79
-2533.66
-2532.72
-2531.96
-2531.39
-2531
-2530.81
-2724.46
-2728.09
-2703.69
-2682.93
-2668.18
-2658.12
-2651.64
-2647.83
-2646.04
-2645.81
-2646.79
-2648.72
-2651.37
-2654.56
-2658.13
-2661.96
-2665.94
-2669.98
-2674
-2677.94
-2681.75
-2685.39
-2688.81
-2692.01
-2694.95
-2697.62
-2700.01
-2702.12
-2703.93
-2705.45
-2706.68
-2707.62
-2708.27
-2708.64
-2708.73
-2708.55
-2708.11
-2707.41
-2706.47
-2705.29
-2703.88
-2702.26
-2700.42
-2698.38
-2696.16
-2693.75
-2691.17
-2688.42
-2685.53
-2682.49
-2679.31
-2676.01
-2672.6
-2669.07
-2665.45
-2661.74
-2657.95
-2654.09
-2650.16
-2646.18
-2642.15
-2638.08
-2633.98
-2629.87
-2625.73
-2621.6
-2617.46
-2613.34
-2609.23
-2605.15
-2601.11
-2597.11
-2593.16
-2589.26
-2585.43
-2581.68
-2578
-2574.42
-2570.92
-2567.53
-2564.25
-2561.09
-2558.04
-2555.13
-2552.35
-2549.71
-2547.22
-2544.89
-2542.71
-2540.69
-2538.84
-2537.17
-2535.67
-2534.35
-2533.21
-2532.26
-2531.49
-2530.92
-2530.53
-2530.34
-2763.87
-2688.91
-2664.89
-2652.1
-2644.04
-2639.16
-2636.59
-2635.8
-2636.39
-2638.1
-2640.66
-2643.9
-2647.63
-2651.73
-2656.07
-2660.55
-2665.08
-2669.58
-2673.99
-2678.26
-2682.33
-2686.19
-2689.79
-2693.12
-2696.17
-2698.93
-2701.38
-2703.53
-2705.37
-2706.9
-2708.13
-2709.07
-2709.7
-2710.05
-2710.11
-2709.9
-2709.43
-2708.7
-2707.71
-2706.49
-2705.05
-2703.38
-2701.5
-2699.41
-2697.14
-2694.69
-2692.07
-2689.28
-2686.34
-2683.26
-2680.04
-2676.7
-2673.24
-2669.68
-2666.01
-2662.26
-2658.43
-2654.53
-2650.57
-2646.55
-2642.48
-2638.38
-2634.24
-2630.09
-2625.92
-2621.75
-2617.58
-2613.42
-2609.28
-2605.17
-2601.1
-2597.06
-2593.08
-2589.16
-2585.3
-2581.51
-2577.81
-2574.19
-2570.67
-2567.25
-2563.94
-2560.75
-2557.68
-2554.75
-2551.94
-2549.29
-2546.77
-2544.42
-2542.22
-2540.19
-2538.32
-2536.63
-2535.12
-2533.79
-2532.64
-2531.68
-2530.91
-2530.33
-2529.94
-2529.74
-2543.88
-2600.27
-2612.6
-2615.58
-2616.74
-2617.98
-2619.82
-2622.37
-2625.6
-2629.44
-2633.77
-2638.49
-2643.49
-2648.64
-2653.87
-2659.1
-2664.26
-2669.28
-2674.13
-2678.76
-2683.13
-2687.23
-2691.03
-2694.52
-2697.69
-2700.54
-2703.06
-2705.25
-2707.12
-2708.67
-2709.9
-2710.82
-2711.43
-2711.75
-2711.79
-2711.54
-2711.02
-2710.24
-2709.21
-2707.94
-2706.44
-2704.72
-2702.79
-2700.65
-2698.33
-2695.82
-2693.14
-2690.31
-2687.31
-2684.18
-2680.91
-2677.52
-2674.01
-2670.4
-2666.69
-2662.89
-2659.01
-2655.06
-2651.05
-2646.99
-2642.88
-2638.73
-2634.55
-2630.36
-2626.15
-2621.93
-2617.72
-2613.52
-2609.35
-2605.2
-2601.08
-2597.01
-2592.99
-2589.02
-2585.13
-2581.31
-2577.57
-2573.92
-2570.36
-2566.91
-2563.57
-2560.35
-2557.25
-2554.28
-2551.45
-2548.77
-2546.23
-2543.85
-2541.63
-2539.58
-2537.69
-2535.99
-2534.46
-2533.11
-2531.95
-2530.98
-2530.2
-2529.61
-2529.22
-2529.03
-2556.32
-2560.31
-2571.55
-2581.19
-2589.26
-2596.1
-2602.3
-2608.29
-2614.3
-2620.4
-2626.61
-2632.89
-2639.2
-2645.48
-2651.67
-2657.71
-2663.56
-2669.16
-2674.49
-2679.51
-2684.21
-2688.57
-2692.59
-2696.24
-2699.54
-2702.49
-2705.07
-2707.31
-2709.21
-2710.76
-2711.99
-2712.89
-2713.48
-2713.76
-2713.75
-2713.45
-2712.89
-2712.05
-2710.97
-2709.64
-2708.07
-2706.29
-2704.3
-2702.1
-2699.71
-2697.14
-2694.4
-2691.5
-2688.45
-2685.25
-2681.93
-2678.48
-2674.91
-2671.24
-2667.47
-2663.62
-2659.69
-2655.68
-2651.62
-2647.5
-2643.34
-2639.14
-2634.91
-2630.67
-2626.41
-2622.15
-2617.89
-2613.64
-2609.42
-2605.22
-2601.06
-2596.94
-2592.88
-2588.87
-2584.93
-2581.07
-2577.29
-2573.6
-2570
-2566.51
-2563.14
-2559.88
-2556.74
-2553.74
-2550.88
-2548.16
-2545.6
-2543.19
-2540.94
-2538.86
-2536.96
-2535.23
-2533.68
-2532.32
-2531.15
-2530.16
-2529.37
-2528.78
-2528.38
-2528.18
-2489.27
-2504.16
-2529.84
-2549.06
-2563.39
-2574.99
-2585.01
-2594.15
-2602.78
-2611.12
-2619.26
-2627.2
-2634.93
-2642.42
-2649.63
-2656.53
-2663.1
-2669.31
-2675.15
-2680.59
-2685.64
-2690.27
-2694.5
-2698.33
-2701.76
-2704.8
-2707.45
-2709.73
-2711.64
-2713.2
-2714.41
-2715.28
-2715.83
-2716.07
-2716.01
-2715.66
-2715.03
-2714.13
-2712.97
-2711.58
-2709.94
-2708.09
-2706.02
-2703.75
-2701.29
-2698.65
-2695.84
-2692.87
-2689.74
-2686.48
-2683.08
-2679.57
-2675.93
-2672.2
-2668.37
-2664.45
-2660.45
-2656.39
-2652.26
-2648.09
-2643.86
-2639.61
-2635.32
-2631.02
-2626.7
-2622.39
-2618.07
-2613.77
-2609.5
-2605.25
-2601.03
-2596.87
-2592.75
-2588.69
-2584.71
-2580.8
-2576.97
-2573.23
-2569.59
-2566.06
-2562.64
-2559.34
-2556.16
-2553.12
-2550.22
-2547.47
-2544.87
-2542.43
-2540.15
-2538.05
-2536.11
-2534.36
-2532.79
-2531.41
-2530.22
-2529.22
-2528.42
-2527.82
-2527.42
-2527.22
-2400.7
-2472.56
-2498.67
-2521.21
-2539.92
-2555.35
-2568.64
-2580.6
-2591.71
-2602.2
-2612.2
-2621.77
-2630.92
-2639.62
-2647.88
-2655.68
-2663.01
-2669.85
-2676.2
-2682.07
-2687.47
-2692.38
-2696.83
-2700.83
-2704.38
-2707.5
-2710.21
-2712.52
-2714.44
-2715.99
-2717.18
-2718.01
-2718.52
-2718.7
-2718.57
-2718.15
-2717.45
-2716.48
-2715.24
-2713.76
-2712.05
-2710.11
-2707.96
-2705.61
-2703.07
-2700.35
-2697.45
-2694.4
-2691.2
-2687.86
-2684.38
-2680.79
-2677.08
-2673.27
-2669.37
-2665.38
-2661.31
-2657.18
-2652.99
-2648.74
-2644.45
-2640.13
-2635.78
-2631.41
-2627.04
-2622.66
-2618.28
-2613.92
-2609.58
-2605.27
-2601
-2596.78
-2592.6
-2588.49
-2584.45
-2580.49
-2576.6
-2572.81
-2569.12
-2565.54
-2562.07
-2558.72
-2555.51
-2552.42
-2549.48
-2546.69
-2544.05
-2541.57
-2539.26
-2537.12
-2535.16
-2533.38
-2531.79
-2530.38
-2529.18
-2528.16
-2527.35
-2526.74
-2526.33
-2526.12
-2323.68
-2404.15
-2463.86
-2496.99
-2519.72
-2537.82
-2553.5
-2567.77
-2581.07
-2593.62
-2605.5
-2616.73
-2627.33
-2637.29
-2646.61
-2655.31
-2663.39
-2670.86
-2677.74
-2684.04
-2689.77
-2694.96
-2699.62
-2703.77
-2707.44
-2710.64
-2713.39
-2715.72
-2717.63
-2719.16
-2720.3
-2721.09
-2721.53
-2721.65
-2721.45
-2720.94
-2720.16
-2719.09
-2717.77
-2716.2
-2714.39
-2712.36
-2710.12
-2707.67
-2705.04
-2702.23
-2699.24
-2696.1
-2692.81
-2689.38
-2685.83
-2682.15
-2678.36
-2674.47
-2670.48
-2666.41
-2662.27
-2658.06
-2653.79
-2649.47
-2645.1
-2640.71
-2636.29
-2631.85
-2627.4
-2622.95
-2618.51
-2614.08
-2609.68
-2605.3
-2600.97
-2596.68
-2592.44
-2588.27
-2584.16
-2580.14
-2576.2
-2572.35
-2568.6
-2564.97
-2561.44
-2558.04
-2554.77
-2551.64
-2548.65
-2545.81
-2543.13
-2540.61
-2538.26
-2536.09
-2534.09
-2532.28
-2530.66
-2529.24
-2528.01
-2526.98
-2526.15
-2525.53
-2525.11
-2524.9
-2387.41
-2436.59
-2459.15
-2483.33
-2504.26
-2522.83
-2539.94
-2556.06
-2571.35
-2585.83
-2599.5
-2612.35
-2624.37
-2635.57
-2645.96
-2655.55
-2664.38
-2672.48
-2679.86
-2686.56
-2692.62
-2698.07
-2702.92
-2707.21
-2710.97
-2714.22
-2717
-2719.33
-2721.22
-2722.71
-2723.8
-2724.52
-2724.89
-2724.92
-2724.63
-2724.03
-2723.15
-2721.98
-2720.56
-2718.88
-2716.97
-2714.84
-2712.49
-2709.95
-2707.21
-2704.29
-2701.21
-2697.97
-2694.58
-2691.06
-2687.41
-2683.63
-2679.75
-2675.77
-2671.7
-2667.54
-2663.31
-2659.01
-2654.66
-2650.26
-2645.82
-2641.34
-2636.84
-2632.33
-2627.8
-2623.28
-2618.76
-2614.26
-2609.78
-2605.33
-2600.92
-2596.56
-2592.26
-2588.02
-2583.85
-2579.75
-2575.75
-2571.84
-2568.03
-2564.33
-2560.75
-2557.29
-2553.96
-2550.77
-2547.73
-2544.84
-2542.11
-2539.55
-2537.16
-2534.94
-2532.91
-2531.07
-2529.42
-2527.97
-2526.71
-2525.66
-2524.82
-2524.19
-2523.76
-2523.55
-2389.34
-2419.48
-2451.38
-2472.17
-2490.69
-2508.94
-2527.14
-2545.01
-2562.29
-2578.75
-2594.27
-2608.78
-2622.25
-2634.68
-2646.11
-2656.58
-2666.12
-2674.8
-2682.66
-2689.74
-2696.09
-2701.75
-2706.76
-2711.17
-2715
-2718.29
-2721.08
-2723.38
-2725.24
-2726.66
-2727.68
-2728.32
-2728.6
-2728.53
-2728.13
-2727.43
-2726.43
-2725.15
-2723.61
-2721.82
-2719.79
-2717.54
-2715.08
-2712.42
-2709.57
-2706.54
-2703.35
-2700
-2696.51
-2692.88
-2689.12
-2685.25
-2681.27
-2677.19
-2673.02
-2668.77
-2664.44
-2660.06
-2655.61
-2651.12
-2646.59
-2642.03
-2637.44
-2632.84
-2628.23
-2623.62
-2619.03
-2614.44
-2609.89
-2605.36
-2600.88
-2596.44
-2592.06
-2587.74
-2583.5
-2579.33
-2575.26
-2571.27
-2567.4
-2563.63
-2559.98
-2556.46
-2553.07
-2549.82
-2546.72
-2543.78
-2541
-2538.39
-2535.95
-2533.69
-2531.62
-2529.74
-2528.05
-2526.57
-2525.29
-2524.22
-2523.36
-2522.71
-2522.28
-2522.06
-2426.17
-2451.58
-2456.01
-2464.22
-2478.07
-2495.59
-2514.9
-2534.72
-2554.15
-2572.69
-2590.1
-2606.26
-2621.15
-2634.78
-2647.21
-2658.51
-2668.73
-2677.95
-2686.23
-2693.64
-2700.24
-2706.09
-2711.22
-2715.71
-2719.58
-2722.88
-2725.64
-2727.9
-2729.69
-2731.03
-2731.96
-2732.5
-2732.66
-2732.47
-2731.96
-2731.12
-2730
-2728.59
-2726.92
-2725
-2722.85
-2720.47
-2717.88
-2715.1
-2712.13
-2708.98
-2705.67
-2702.2
-2698.59
-2694.85
-2690.98
-2686.99
-2682.9
-2678.72
-2674.44
-2670.09
-2665.66
-2661.18
-2656.63
-2652.05
-2647.42
-2642.76
-2638.09
-2633.39
-2628.69
-2624
-2619.31
-2614.64
-2610
-2605.39
-2600.82
-2596.3
-2591.84
-2587.44
-2583.11
-2578.87
-2574.72
-2570.66
-2566.71
-2562.87
-2559.15
-2555.56
-2552.1
-2548.79
-2545.63
-2542.62
-2539.78
-2537.12
-2534.63
-2532.32
-2530.2
-2528.28
-2526.56
-2525.05
-2523.74
-2522.64
-2521.77
-2521.1
-2520.66
-2520.44
-2632.21
-2498.02
-2455.48
-2449.83
-2460.97
-2479.95
-2502.01
-2524.7
-2546.8
-2567.71
-2587.15
-2605.01
-2621.31
-2636.1
-2649.47
-2661.52
-2672.34
-2682.03
-2690.68
-2698.37
-2705.16
-2711.14
-2716.35
-2720.87
-2724.74
-2728
-2730.71
-2732.9
-2734.59
-2735.83
-2736.64
-2737.05
-2737.08
-2736.76
-2736.1
-2735.13
-2733.86
-2732.31
-2730.5
-2728.44
-2726.14
-2723.62
-2720.9
-2717.98
-2714.87
-2711.59
-2708.15
-2704.56
-2700.82
-2696.95
-2692.96
-2688.86
-2684.66
-2680.36
-2675.97
-2671.51
-2666.97
-2662.38
-2657.73
-2653.04
-2648.31
-2643.55
-2638.77
-2633.98
-2629.19
-2624.4
-2619.61
-2614.85
-2610.11
-2605.41
-2600.75
-2596.14
-2591.59
-2587.11
-2582.7
-2578.37
-2574.13
-2569.99
-2565.96
-2562.04
-2558.24
-2554.58
-2551.05
-2547.67
-2544.44
-2541.37
-2538.47
-2535.74
-2533.19
-2530.84
-2528.67
-2526.71
-2524.94
-2523.39
-2522.06
-2520.93
-2520.03
-2519.36
-2518.9
-2518.68
-2592.1
-2463.16
-2420.28
-2419.4
-2436.92
-2461.64
-2488.59
-2515.34
-2540.73
-2564.26
-2585.79
-2605.33
-2622.97
-2638.83
-2653.04
-2665.75
-2677.09
-2687.16
-2696.1
-2703.98
-2710.9
-2716.95
-2722.19
-2726.69
-2730.51
-2733.7
-2736.32
-2738.39
-2739.96
-2741.07
-2741.73
-2741.99
-2741.87
-2741.39
-2740.58
-2739.45
-2738.02
-2736.31
-2734.34
-2732.12
-2729.67
-2727
-2724.12
-2721.06
-2717.8
-2714.38
-2710.8
-2707.07
-2703.2
-2699.2
-2695.08
-2690.86
-2686.53
-2682.1
-2677.6
-2673.01
-2668.36
-2663.65
-2658.89
-2654.09
-2649.25
-2644.39
-2639.5
-2634.61
-2629.71
-2624.82
-2619.93
-2615.07
-2610.23
-2605.43
-2600.68
-2595.97
-2591.33
-2586.75
-2582.25
-2577.83
-2573.5
-2569.27
-2565.15
-2561.15
-2557.27
-2553.52
-2549.92
-2546.46
-2543.15
-2540.01
-2537.04
-2534.25
-2531.65
-2529.23
-2527.01
-2525
-2523.2
-2521.61
-2520.24
-2519.09
-2518.16
-2517.47
-2517
-2516.77
-2362.16
-2333.67
-2343.44
-2370.76
-2405.1
-2440.89
-2475.31
-2507.27
-2536.43
-2562.76
-2586.4
-2607.55
-2626.41
-2643.2
-2658.12
-2671.36
-2683.09
-2693.44
-2702.56
-2710.55
-2717.53
-2723.57
-2728.77
-2733.2
-2736.92
-2740
-2742.47
-2744.4
-2745.81
-2746.75
-2747.24
-2747.33
-2747.03
-2746.37
-2745.38
-2744.07
-2742.46
-2740.58
-2738.44
-2736.05
-2733.43
-2730.6
-2727.56
-2724.33
-2720.92
-2717.35
-2713.62
-2709.74
-2705.73
-2701.59
-2697.33
-2692.97
-2688.51
-2683.95
-2679.32
-2674.61
-2669.84
-2665.01
-2660.13
-2655.21
-2650.25
-2645.27
-2640.28
-2635.27
-2630.26
-2625.26
-2620.27
-2615.3
-2610.36
-2605.45
-2600.59
-2595.79
-2591.04
-2586.36
-2581.76
-2577.24
-2572.82
-2568.5
-2564.29
-2560.19
-2556.22
-2552.39
-2548.7
-2545.16
-2541.77
-2538.56
-2535.52
-2532.66
-2529.98
-2527.51
-2525.23
-2523.17
-2521.32
-2519.69
-2518.28
-2517.1
-2516.15
-2515.44
-2514.96
-2514.72
-2052.67
-2159.66
-2244.62
-2314.26
-2372.16
-2421.58
-2464.51
-2502.07
-2535.02
-2564.01
-2589.55
-2612.06
-2631.92
-2649.44
-2664.88
-2678.49
-2690.46
-2700.96
-2710.14
-2718.14
-2725.08
-2731.04
-2736.13
-2740.43
-2743.99
-2746.9
-2749.19
-2750.93
-2752.14
-2752.88
-2753.18
-2753.06
-2752.56
-2751.7
-2750.51
-2749
-2747.2
-2745.12
-2742.79
-2740.22
-2737.42
-2734.41
-2731.2
-2727.8
-2724.22
-2720.49
-2716.6
-2712.56
-2708.4
-2704.11
-2699.71
-2695.2
-2690.6
-2685.91
-2681.14
-2676.29
-2671.39
-2666.43
-2661.43
-2656.38
-2651.3
-2646.2
-2641.09
-2635.96
-2630.84
-2625.72
-2620.61
-2615.53
-2610.48
-2605.46
-2600.5
-2595.58
-2590.73
-2585.94
-2581.24
-2576.62
-2572.09
-2567.67
-2563.36
-2559.17
-2555.1
-2551.18
-2547.39
-2543.77
-2540.3
-2537
-2533.88
-2530.94
-2528.2
-2525.66
-2523.32
-2521.2
-2519.3
-2517.62
-2516.18
-2514.96
-2513.99
-2513.26
-2512.76
-2512.52
-1841.64
-2034.49
-2172.01
-2271.26
-2347.53
-2408.71
-2459.07
-2501.4
-2537.52
-2568.66
-2595.67
-2619.21
-2639.76
-2657.75
-2673.49
-2687.26
-2699.3
-2709.79
-2718.92
-2726.81
-2733.6
-2739.39
-2744.3
-2748.38
-2751.74
-2754.41
-2756.48
-2757.98
-2758.96
-2759.47
-2759.53
-2759.19
-2758.46
-2757.37
-2755.96
-2754.23
-2752.22
-2749.94
-2747.4
-2744.63
-2741.64
-2738.43
-2735.04
-2731.45
-2727.7
-2723.79
-2719.73
-2715.54
-2711.21
-2706.76
-2702.2
-2697.55
-2692.79
-2687.96
-2683.04
-2678.06
-2673.02
-2667.93
-2662.79
-2657.61
-2652.41
-2647.18
-2641.94
-2636.69
-2631.44
-2626.2
-2620.97
-2615.77
-2610.6
-2605.47
-2600.39
-2595.36
-2590.39
-2585.5
-2580.68
-2575.95
-2571.32
-2566.79
-2562.37
-2558.08
-2553.91
-2549.88
-2546
-2542.28
-2538.72
-2535.34
-2532.13
-2529.12
-2526.3
-2523.69
-2521.28
-2519.1
-2517.15
-2515.42
-2513.93
-2512.68
-2511.68
-2510.92
-2510.42
-2510.16
-1664.31
-1945.43
-2124.68
-2248.05
-2337.94
-2406.64
-2461.66
-2507
-2545.07
-2577.47
-2605.3
-2629.35
-2650.19
-2668.31
-2684.06
-2697.77
-2709.68
-2720
-2728.91
-2736.57
-2743.11
-2748.64
-2753.27
-2757.08
-2760.15
-2762.55
-2764.34
-2765.56
-2766.28
-2766.51
-2766.31
-2765.7
-2764.72
-2763.39
-2761.73
-2759.77
-2757.52
-2755.02
-2752.26
-2749.27
-2746.07
-2742.67
-2739.07
-2735.3
-2731.36
-2727.26
-2723.03
-2718.65
-2714.16
-2709.54
-2704.82
-2700
-2695.1
-2690.11
-2685.04
-2679.92
-2674.73
-2669.49
-2664.22
-2658.9
-2653.56
-2648.2
-2642.82
-2637.44
-2632.07
-2626.7
-2621.35
-2616.02
-2610.73
-2605.47
-2600.27
-2595.12
-2590.03
-2585.02
-2580.08
-2575.24
-2570.49
-2565.85
-2561.32
-2556.91
-2552.64
-2548.51
-2544.53
-2540.7
-2537.05
-2533.57
-2530.27
-2527.17
-2524.27
-2521.58
-2519.11
-2516.86
-2514.85
-2513.07
-2511.53
-2510.25
-2509.21
-2508.43
-2507.91
-2507.65
-1725.64
-1985.34
-2150
-2263.41
-2349.69
-2418.32
-2473.9
-2519.78
-2558.23
-2590.83
-2618.7
-2642.67
-2663.34
-2681.22
-2696.69
-2710.08
-2721.65
-2731.61
-2740.16
-2747.46
-2753.63
-2758.8
-2763.06
-2766.52
-2769.25
-2771.31
-2772.77
-2773.67
-2774.07
-2774
-2773.5
-2772.6
-2771.34
-2769.74
-2767.81
-2765.6
-2763.1
-2760.35
-2757.36
-2754.15
-2750.72
-2747.1
-2743.3
-2739.32
-2735.18
-2730.89
-2726.47
-2721.91
-2717.23
-2712.45
-2707.55
-2702.57
-2697.5
-2692.35
-2687.13
-2681.85
-2676.51
-2671.13
-2665.7
-2660.24
-2654.76
-2649.26
-2643.75
-2638.23
-2632.72
-2627.21
-2621.73
-2616.27
-2610.85
-2605.47
-2600.13
-2594.86
-2589.64
-2584.5
-2579.45
-2574.48
-2569.61
-2564.85
-2560.2
-2555.68
-2551.29
-2547.05
-2542.96
-2539.03
-2535.27
-2531.69
-2528.3
-2525.11
-2522.12
-2519.35
-2516.8
-2514.48
-2512.4
-2510.57
-2508.98
-2507.65
-2506.59
-2505.78
-2505.24
-2504.97
-1944.54
-2075.36
-2196.68
-2298.04
-2378.54
-2442.99
-2495.9
-2540.05
-2577.29
-2608.96
-2636.04
-2659.29
-2679.3
-2696.55
-2711.41
-2724.21
-2735.21
-2744.64
-2752.67
-2759.46
-2765.16
-2769.87
-2773.69
-2776.72
-2779.03
-2780.69
-2781.76
-2782.3
-2782.34
-2781.93
-2781.1
-2779.89
-2778.31
-2776.41
-2774.21
-2771.71
-2768.95
-2765.94
-2762.7
-2759.24
-2755.58
-2751.73
-2747.71
-2743.51
-2739.17
-2734.68
-2730.05
-2725.3
-2720.44
-2715.47
-2710.4
-2705.24
-2700
-2694.68
-2689.3
-2683.86
-2678.36
-2672.82
-2667.24
-2661.64
-2656.01
-2650.36
-2644.7
-2639.04
-2633.39
-2627.75
-2622.12
-2616.53
-2610.97
-2605.45
-2599.98
-2594.57
-2589.23
-2583.96
-2578.77
-2573.68
-2568.68
-2563.79
-2559.02
-2554.38
-2549.87
-2545.51
-2541.3
-2537.26
-2533.39
-2529.7
-2526.21
-2522.92
-2519.84
-2516.98
-2514.35
-2511.96
-2509.81
-2507.91
-2506.28
-2504.9
-2503.8
-2502.96
-2502.41
-2502.13
-2141.74
-2214.35
-2289.12
-2360.68
-2424.09
-2479.24
-2526.61
-2567.16
-2601.88
-2631.64
-2657.18
-2679.13
-2698.01
-2714.25
-2728.19
-2740.15
-2750.37
-2759.07
-2766.42
-2772.57
-2777.66
-2781.8
-2785.09
-2787.62
-2789.45
-2790.66
-2791.3
-2791.42
-2791.07
-2790.28
-2789.09
-2787.53
-2785.63
-2783.41
-2780.89
-2778.1
-2775.06
-2771.77
-2768.27
-2764.55
-2760.64
-2756.55
-2752.3
-2747.88
-2743.31
-2738.61
-2733.78
-2728.83
-2723.77
-2718.61
-2713.35
-2708.01
-2702.59
-2697.1
-2691.55
-2685.94
-2680.28
-2674.58
-2668.84
-2663.08
-2657.29
-2651.49
-2645.69
-2639.88
-2634.08
-2628.29
-2622.53
-2616.79
-2611.09
-2605.43
-2599.82
-2594.27
-2588.79
-2583.38
-2578.06
-2572.83
-2567.7
-2562.68
-2557.78
-2553
-2548.37
-2543.88
-2539.55
-2535.39
-2531.4
-2527.6
-2524
-2520.61
-2517.43
-2514.48
-2511.76
-2509.28
-2507.06
-2505.1
-2503.41
-2501.98
-2500.84
-2499.98
-2499.4
-2499.11
-2261.23
-2324.93
-2377.26
-2428.16
-2477.65
-2523.34
-2564.22
-2600.17
-2631.46
-2658.55
-2681.93
-2702.07
-2719.38
-2734.24
-2746.97
-2757.83
-2767.05
-2774.84
-2781.35
-2786.74
-2791.12
-2794.6
-2797.27
-2799.22
-2800.51
-2801.21
-2801.37
-2801.03
-2800.25
-2799.05
-2797.47
-2795.53
-2793.27
-2790.71
-2787.86
-2784.76
-2781.41
-2777.84
-2774.05
-2770.07
-2765.9
-2761.56
-2757.06
-2752.4
-2747.61
-2742.69
-2737.64
-2732.48
-2727.22
-2721.86
-2716.41
-2710.88
-2705.28
-2699.6
-2693.87
-2688.09
-2682.26
-2676.39
-2670.49
-2664.57
-2658.62
-2652.67
-2646.7
-2640.74
-2634.79
-2628.85
-2622.94
-2617.05
-2611.2
-2605.4
-2599.64
-2593.95
-2588.32
-2582.77
-2577.31
-2571.94
-2566.67
-2561.51
-2556.47
-2551.56
-2546.79
-2542.17
-2537.71
-2533.42
-2529.31
-2525.39
-2521.67
-2518.17
-2514.88
-2511.83
-2509.02
-2506.46
-2504.16
-2502.13
-2500.37
-2498.9
-2497.71
-2496.81
-2496.22
-2495.92
-2546.53
-2470.49
-2468.79
-2498.16
-2534.98
-2572.08
-2606.66
-2637.77
-2665.22
-2689.16
-2709.9
-2727.8
-2743.19
-2756.37
-2767.61
-2777.14
-2785.18
-2791.89
-2797.43
-2801.92
-2805.48
-2808.21
-2810.19
-2811.49
-2812.17
-2812.31
-2811.94
-2811.1
-2809.85
-2808.2
-2806.2
-2803.87
-2801.22
-2798.3
-2795.11
-2791.67
-2788
-2784.12
-2780.04
-2775.78
-2771.34
-2766.73
-2761.98
-2757.08
-2752.05
-2746.9
-2741.63
-2736.25
-2730.78
-2725.21
-2719.56
-2713.84
-2708.04
-2702.19
-2696.27
-2690.31
-2684.31
-2678.27
-2672.2
-2666.1
-2659.99
-2653.87
-2647.75
-2641.63
-2635.52
-2629.42
-2623.35
-2617.31
-2611.31
-2605.35
-2599.45
-2593.6
-2587.83
-2582.13
-2576.52
-2571
-2565.58
-2560.27
-2555.09
-2550.04
-2545.13
-2540.37
-2535.77
-2531.35
-2527.11
-2523.06
-2519.22
-2515.6
-2512.2
-2509.04
-2506.13
-2503.48
-2501.09
-2498.99
-2497.16
-2495.63
-2494.4
-2493.47
-2492.85
-2492.54
-2466.32
-2492.96
-2528.42
-2559.81
-2592.07
-2623.49
-2652.72
-2679.11
-2702.5
-2722.97
-2740.75
-2756.07
-2769.22
-2780.43
-2789.94
-2797.94
-2804.61
-2810.1
-2814.53
-2818.03
-2820.68
-2822.57
-2823.78
-2824.37
-2824.4
-2823.92
-2822.97
-2821.6
-2819.85
-2817.73
-2815.27
-2812.52
-2809.47
-2806.16
-2802.61
-2798.82
-2794.82
-2790.62
-2786.24
-2781.67
-2776.95
-2772.07
-2767.06
-2761.9
-2756.63
-2751.23
-2745.74
-2740.14
-2734.44
-2728.67
-2722.81
-2716.88
-2710.89
-2704.84
-2698.74
-2692.6
-2686.41
-2680.19
-2673.95
-2667.68
-2661.4
-2655.11
-2648.82
-2642.53
-2636.26
-2630
-2623.77
-2617.57
-2611.41
-2605.3
-2599.24
-2593.24
-2587.3
-2581.45
-2575.68
-2570.01
-2564.44
-2558.98
-2553.65
-2548.45
-2543.39
-2538.48
-2533.74
-2529.18
-2524.8
-2520.62
-2516.65
-2512.9
-2509.38
-2506.11
-2503.09
-2500.34
-2497.86
-2495.67
-2493.78
-2492.19
-2490.91
-2489.94
-2489.3
-2488.97
-2549.65
-2565.03
-2592.28
-2621.63
-2650.03
-2676.89
-2701.43
-2723.36
-2742.66
-2759.47
-2774.02
-2786.51
-2797.17
-2806.21
-2813.79
-2820.09
-2825.25
-2829.38
-2832.59
-2834.98
-2836.63
-2837.61
-2837.98
-2837.8
-2837.13
-2835.99
-2834.44
-2832.5
-2830.21
-2827.59
-2824.67
-2821.46
-2817.99
-2814.28
-2810.34
-2806.19
-2801.85
-2797.32
-2792.61
-2787.74
-2782.73
-2777.57
-2772.28
-2766.86
-2761.33
-2755.69
-2749.96
-2744.13
-2738.21
-2732.22
-2726.15
-2720.01
-2713.82
-2707.57
-2701.28
-2694.94
-2688.57
-2682.17
-2675.74
-2669.3
-2662.84
-2656.38
-2649.92
-2643.46
-2637.02
-2630.6
-2624.2
-2617.83
-2611.51
-2605.23
-2599.01
-2592.85
-2586.75
-2580.74
-2574.81
-2568.98
-2563.25
-2557.63
-2552.14
-2546.78
-2541.57
-2536.51
-2531.62
-2526.9
-2522.38
-2518.06
-2513.95
-2510.06
-2506.42
-2503.02
-2499.89
-2497.03
-2494.46
-2492.19
-2490.22
-2488.56
-2487.23
-2486.22
-2485.55
-2485.21
-2555.05
-2631.93
-2654.12
-2682.59
-2709.44
-2732.76
-2752.91
-2770.32
-2785.35
-2798.28
-2809.36
-2818.79
-2826.76
-2833.42
-2838.92
-2843.37
-2846.89
-2849.56
-2851.47
-2852.68
-2853.26
-2853.26
-2852.74
-2851.75
-2850.32
-2848.5
-2846.3
-2843.76
-2840.91
-2837.76
-2834.35
-2830.67
-2826.76
-2822.64
-2818.3
-2813.77
-2809.07
-2804.19
-2799.16
-2793.98
-2788.66
-2783.21
-2777.64
-2771.95
-2766.16
-2760.27
-2754.29
-2748.22
-2742.07
-2735.85
-2729.57
-2723.22
-2716.82
-2710.37
-2703.87
-2697.34
-2690.78
-2684.19
-2677.57
-2670.95
-2664.31
-2657.67
-2651.04
-2644.41
-2637.79
-2631.2
-2624.63
-2618.1
-2611.6
-2605.16
-2598.76
-2592.43
-2586.18
-2579.99
-2573.9
-2567.9
-2562.01
-2556.23
-2550.57
-2545.05
-2539.67
-2534.45
-2529.4
-2524.53
-2519.85
-2515.38
-2511.12
-2507.1
-2503.31
-2499.79
-2496.54
-2493.57
-2490.89
-2488.52
-2486.47
-2484.74
-2483.35
-2482.3
-2481.6
-2481.24
-2633.99
-2647.89
-2709.36
-2746.86
-2772.44
-2791.69
-2807
-2819.58
-2830.08
-2838.9
-2846.32
-2852.52
-2857.65
-2861.81
-2865.1
-2867.61
-2869.4
-2870.53
-2871.05
-2871.01
-2870.47
-2869.45
-2867.99
-2866.15
-2863.93
-2861.38
-2858.51
-2855.35
-2851.91
-2848.22
-2844.29
-2840.13
-2835.77
-2831.21
-2826.46
-2821.54
-2816.47
-2811.24
-2805.86
-2800.36
-2794.73
-2788.98
-2783.12
-2777.16
-2771.1
-2764.95
-2758.71
-2752.4
-2746.02
-2739.57
-2733.06
-2726.5
-2719.88
-2713.22
-2706.53
-2699.79
-2693.03
-2686.25
-2679.45
-2672.64
-2665.82
-2658.99
-2652.18
-2645.37
-2638.58
-2631.8
-2625.06
-2618.35
-2611.69
-2605.07
-2598.5
-2592
-2585.57
-2579.22
-2572.95
-2566.78
-2560.71
-2554.76
-2548.93
-2543.24
-2537.7
-2532.31
-2527.09
-2522.05
-2517.21
-2512.58
-2508.17
-2503.99
-2500.07
-2496.4
-2493.02
-2489.93
-2487.14
-2484.67
-2482.53
-2480.73
-2479.27
-2478.18
-2477.44
-2477.07
-2586.08
-2736.14
-2791.88
-2822.58
-2841.74
-2854.66
-2863.96
-2871.01
-2876.54
-2880.97
-2884.53
-2887.34
-2889.5
-2891.06
-2892.07
-2892.55
-2892.55
-2892.08
-2891.18
-2889.85
-2888.14
-2886.07
-2883.66
-2880.93
-2877.9
-2874.6
-2871.03
-2867.22
-2863.18
-2858.92
-2854.46
-2849.81
-2844.97
-2839.97
-2834.8
-2829.48
-2824.03
-2818.43
-2812.71
-2806.87
-2800.92
-2794.87
-2788.72
-2782.47
-2776.14
-2769.72
-2763.23
-2756.67
-2750.05
-2743.37
-2736.63
-2729.84
-2723.01
-2716.14
-2709.23
-2702.3
-2695.34
-2688.36
-2681.36
-2674.36
-2667.35
-2660.34
-2653.34
-2646.34
-2639.37
-2632.42
-2625.5
-2618.61
-2611.76
-2604.97
-2598.22
-2591.55
-2584.94
-2578.4
-2571.96
-2565.61
-2559.37
-2553.24
-2547.23
-2541.36
-2535.64
-2530.08
-2524.68
-2519.47
-2514.46
-2509.66
-2505.09
-2500.75
-2496.67
-2492.86
-2489.34
-2486.12
-2483.21
-2480.63
-2478.39
-2476.51
-2474.99
-2473.84
-2473.07
-2472.69
-2835.17
-2872.2
-2895.55
-2909.37
-2917.12
-2921.14
-2923.08
-2923.88
-2924.06
-2923.88
-2923.44
-2922.8
-2921.95
-2920.88
-2919.56
-2918
-2916.18
-2914.08
-2911.72
-2909.09
-2906.19
-2903.04
-2899.64
-2896
-2892.15
-2888.08
-2883.8
-2879.33
-2874.67
-2869.84
-2864.83
-2859.67
-2854.35
-2848.9
-2843.3
-2837.57
-2831.73
-2825.76
-2819.69
-2813.51
-2807.24
-2800.87
-2794.42
-2787.88
-2781.27
-2774.58
-2767.83
-2761.02
-2754.15
-2747.23
-2740.26
-2733.24
-2726.19
-2719.1
-2711.99
-2704.84
-2697.68
-2690.5
-2683.3
-2676.1
-2668.9
-2661.7
-2654.51
-2647.33
-2640.17
-2633.04
-2625.93
-2618.86
-2611.83
-2604.85
-2597.93
-2591.07
-2584.28
-2577.56
-2570.93
-2564.4
-2557.97
-2551.66
-2545.47
-2539.42
-2533.51
-2527.76
-2522.19
-2516.8
-2511.6
-2506.63
-2501.88
-2497.38
-2493.13
-2489.17
-2485.5
-2482.13
-2479.1
-2476.4
-2474.06
-2472.09
-2470.5
-2469.29
-2468.49
-2468.08
-3039.88
-3015.36
-3008.57
-3003.11
-2996.52
-2989.79
-2983.38
-2977.42
-2971.99
-2967.08
-2962.61
-2958.49
-2954.63
-2950.93
-2947.31
-2943.7
-2940.07
-2936.35
-2932.53
-2928.58
-2924.5
-2920.26
-2915.86
-2911.32
-2906.62
-2901.77
-2896.77
-2891.63
-2886.35
-2880.93
-2875.37
-2869.69
-2863.89
-2857.97
-2851.94
-2845.8
-2839.55
-2833.21
-2826.78
-2820.26
-2813.65
-2806.97
-2800.21
-2793.38
-2786.48
-2779.53
-2772.51
-2765.44
-2758.32
-2751.16
-2743.95
-2736.7
-2729.43
-2722.12
-2714.78
-2707.43
-2700.06
-2692.67
-2685.28
-2677.88
-2670.48
-2663.09
-2655.71
-2648.34
-2640.99
-2633.66
-2626.37
-2619.11
-2611.9
-2604.73
-2597.62
-2590.57
-2583.59
-2576.69
-2569.87
-2563.15
-2556.53
-2550.03
-2543.65
-2537.4
-2531.31
-2525.37
-2519.6
-2514.02
-2508.64
-2503.48
-2498.54
-2493.86
-2489.45
-2485.31
-2481.48
-2477.97
-2474.8
-2471.98
-2469.52
-2467.46
-2465.79
-2464.52
-2463.68
-2463.25
-3204.04
-3155.68
-3121.29
-3095.54
-3075.27
-3058.1
-3043.22
-3030.41
-3019.36
-3009.77
-3001.38
-2993.9
-2987.14
-2980.9
-2975.04
-2969.45
-2964.04
-2958.73
-2953.47
-2948.22
-2942.95
-2937.63
-2932.25
-2926.79
-2921.25
-2915.62
-2909.9
-2904.08
-2898.17
-2892.16
-2886.05
-2879.85
-2873.55
-2867.16
-2860.69
-2854.13
-2847.49
-2840.76
-2833.97
-2827.1
-2820.16
-2813.15
-2806.08
-2798.96
-2791.77
-2784.54
-2777.25
-2769.92
-2762.55
-2755.14
-2747.69
-2740.21
-2732.71
-2725.18
-2717.62
-2710.05
-2702.47
-2694.88
-2687.28
-2679.68
-2672.08
-2664.49
-2656.91
-2649.35
-2641.81
-2634.29
-2626.81
-2619.36
-2611.95
-2604.6
-2597.29
-2590.05
-2582.88
-2575.79
-2568.78
-2561.86
-2555.05
-2548.35
-2541.77
-2535.33
-2529.03
-2522.89
-2516.93
-2511.15
-2505.57
-2500.21