/*--------------------------------*- C++ -*----------------------------------*\
| =========                 |                                                 |
| \\      /  F ield         | OpenFOAM: The Open Source CFD Toolbox           |
|  \\    /   O peration     | Version:  4.1                                   |
|   \\  /    A nd           | Web:      www.OpenFOAM.org                      |
|    \\/     M anipulation  |                                                 |
\*---------------------------------------------------------------------------*/
FoamFile
{
    version     2.0;
    format      ascii;
    class       surfaceScalarField;
    location    "0.05";
    object      phi;
}
// * * * * * * * * * * * * * * * * * * * * * * * * * * * * * * * * * * * * * //

dimensions      [0 3 -1 0 0 0 0];

internalField   nonuniform List<scalar> 
87025
(
0.0201869
3.37926e-05
0.020124
6.28611e-05
0.0200557
6.83547e-05
0.02
5.57392e-05
0.0199621
3.78939e-05
0.0199521
9.9693e-06
0.0199505
1.60643e-06
0.0199261
2.43714e-05
0.0198728
5.3316e-05
0.0198147
5.81322e-05
0.0197742
4.04218e-05
0.0197499
2.43752e-05
0.019721
2.88568e-05
0.0196695
5.14838e-05
0.0195953
7.41849e-05
0.019515
8.03655e-05
0.0194461
6.88854e-05
0.0193944
5.16919e-05
0.0193499
4.44923e-05
0.0192935
5.63739e-05
0.0192087
8.48705e-05
0.01909
0.000118658
0.0189441
0.00014588
0.0187834
0.000160742
0.0186189
0.000164455
0.0184571
0.000161862
0.0182994
0.000157654
0.0181449
0.000154545
0.0179916
0.000153249
0.0178382
0.000153406
0.0176838
0.000154433
0.0175279
0.000155895
0.0173703
0.000157559
0.017211
0.000159331
0.0170498
0.000161187
0.0168867
0.000163125
0.0167215
0.000165149
0.0165543
0.000167262
0.0163848
0.000169465
0.016213
0.000171761
0.0160389
0.000174149
0.0158623
0.000176629
0.0156831
0.000179204
0.0155012
0.000181871
0.0153166
0.000184633
0.0151291
0.000187487
0.0149386
0.000190435
0.0147452
0.000193476
0.0145486
0.000196608
0.0143487
0.000199831
0.0141456
0.000203144
0.013939
0.000206544
0.013729
0.000210031
0.0135154
0.000213601
0.0132982
0.000217251
0.0130772
0.00022098
0.0128524
0.000224782
0.0126237
0.000228653
0.0123911
0.00023259
0.0121546
0.000236587
0.0119139
0.000240637
0.0116692
0.000244734
0.0114203
0.00024887
0.0111673
0.000253037
0.0109101
0.000257224
0.0106486
0.000261425
0.010383
0.000265617
0.0101133
0.000269751
0.00983937
0.000273894
0.00956136
0.000278013
0.00927928
0.000282081
0.0089932
0.000286079
0.0087032
0.000289995
0.00840939
0.000293816
0.00811186
0.000297524
0.00781076
0.000301102
0.00750623
0.000304534
0.00719842
0.000307805
0.00688752
0.0003109
0.00657371
0.000313806
0.0062572
0.00031651
0.0059382
0.000319002
0.00561693
0.000321274
0.00529361
0.000323321
0.00496847
0.000325139
0.00464174
0.000326729
0.00431364
0.000328096
0.0039844
0.000329246
0.0036542
0.000330192
0.00332326
0.000330946
0.00299173
0.000331528
0.00265977
0.000331957
0.00232752
0.000332256
0.00199507
0.000332446
0.00166252
0.000332551
0.00132992
0.000332594
0.000997326
0.000332597
0.00066476
0.000332566
0.000332204
0.000332556
0.000332204
0.0201273
2.30745e-05
0.0201066
8.35893e-05
0.0201155
5.94763e-05
0.0201141
5.71369e-05
0.0200891
6.28637e-05
0.0200527
4.63535e-05
0.0200306
2.36743e-05
0.0200287
2.6325e-05
0.0200249
5.70623e-05
0.0199969
8.61801e-05
0.0199465
9.08123e-05
0.0198961
7.48186e-05
0.0198651
5.97965e-05
0.0198527
6.39316e-05
0.0198377
8.91127e-05
0.0197965
0.000121618
0.0197243
0.000141117
0.019639
0.000136969
0.0195672
0.000116301
0.0195255
9.80026e-05
0.0195111
9.93241e-05
0.0195047
0.000125026
0.0194836
0.000167036
0.0194322
0.000212076
0.019347
0.000249682
0.0192332
0.000275663
0.0190998
0.000291017
0.0189553
0.00029911
0.0188052
0.000303347
0.0186525
0.000306064
0.0184985
0.000308465
0.0183434
0.000311007
0.0181871
0.000313798
0.0180296
0.00031683
0.0178707
0.000320077
0.0177103
0.000323523
0.0175483
0.00032716
0.0173846
0.000330988
0.0172191
0.000335006
0.0170516
0.000339217
0.0168821
0.000343621
0.0167105
0.000348221
0.0165367
0.000353019
0.0163606
0.000358015
0.016182
0.000363212
0.0160009
0.00036861
0.0158171
0.000374209
0.0156306
0.000380012
0.0154412
0.000386017
0.0152488
0.000392226
0.0150533
0.000398636
0.0148546
0.000405248
0.0146525
0.000412061
0.0144471
0.000419071
0.014238
0.000426278
0.0140253
0.000433677
0.0138089
0.000441266
0.0135885
0.000449039
0.0133641
0.000456993
0.0131355
0.000465121
0.0129028
0.000473418
0.0126656
0.000481875
0.012424
0.000490481
0.0121778
0.000499223
0.011927
0.00050809
0.0116713
0.000517066
0.0114108
0.000526135
0.0111453
0.000535284
0.0108747
0.000544508
0.0105989
0.000553785
0.0103179
0.000563089
0.0100316
0.000572397
0.00973986
0.000581686
0.00944274
0.000590935
0.00914015
0.000600116
0.00883205
0.000609203
0.00851841
0.000618169
0.00819924
0.000626983
0.00787452
0.000635618
0.00754428
0.000644043
0.00720856
0.00065223
0.00686741
0.000660151
0.00652091
0.000667776
0.00616915
0.000675079
0.00581226
0.000682035
0.00545036
0.000688622
0.00508364
0.000694818
0.00471228
0.000700605
0.00433651
0.000705969
0.00395656
0.000710897
0.0035727
0.000715379
0.00318525
0.000719411
0.00279452
0.000722987
0.00240086
0.000726107
0.00200464
0.000728768
0.00160626
0.000730973
0.00120613
0.000732727
0.000804671
0.000734029
0.000402206
0.00073502
0.00073441
0.0202556
7.91653e-05
0.0202777
6.14961e-05
0.0202054
0.000131778
0.0200945
0.000167965
0.0200062
0.000151204
0.0199393
0.000113253
0.0198857
7.72822e-05
0.0198541
5.7876e-05
0.0198534
5.78171e-05
0.0198705
6.91063e-05
0.0198777
8.35488e-05
0.0198541
9.84354e-05
0.0197983
0.000115599
0.0197245
0.000137755
0.0196506
0.00016299
0.0195896
0.000182571
0.0195453
0.000185419
0.0195145
0.000167818
0.0194901
0.000140734
0.019463
0.000125059
0.0194244
0.000137927
0.0193673
0.000182095
0.0192883
0.000246097
0.0191875
0.000312867
0.0190683
0.000368905
0.0189354
0.00040852
0.0187936
0.000432822
0.0186464
0.000446271
0.0184962
0.000453582
0.0183441
0.000458172
0.0181906
0.000461949
0.0180359
0.000465752
0.0178798
0.000469853
0.0177223
0.000474293
0.0175634
0.000479056
0.0174028
0.000484119
0.0172405
0.00048947
0.0170763
0.000495106
0.0169103
0.000501025
0.0167423
0.000507231
0.0165722
0.000513724
0.0163999
0.000520508
0.0162254
0.000527586
0.0160484
0.000534958
0.015869
0.000542628
0.015687
0.000550597
0.0155024
0.000558867
0.0153149
0.000567437
0.0151246
0.00057631
0.0149314
0.000585484
0.0147351
0.00059496
0.0145356
0.000604737
0.0143328
0.000614813
0.0141267
0.000625185
0.0139171
0.000635852
0.013704
0.000646809
0.0134872
0.000658052
0.0132667
0.000669576
0.0130423
0.000681375
0.012814
0.00069344
0.0125816
0.000705764
0.0123452
0.000718336
0.0121045
0.000731143
0.0118595
0.00074417
0.0116102
0.000757403
0.0113565
0.000770826
0.0110982
0.000784422
0.0108353
0.000798171
0.0105678
0.000812054
0.0102955
0.000826046
0.0100185
0.000840125
0.0097366
0.000854261
0.00944985
0.000868428
0.00915819
0.000882594
0.00886158
0.000896727
0.00855999
0.000910793
0.00825341
0.000924755
0.00794182
0.000938575
0.00762522
0.000952215
0.00730363
0.000965634
0.00697707
0.000978791
0.00664557
0.000991643
0.0063092
0.00100415
0.00596802
0.00101626
0.00562211
0.00102794
0.00527159
0.00103914
0.00491658
0.00104983
0.00455724
0.00105995
0.00419374
0.00106947
0.00382629
0.00107835
0.00345512
0.00108655
0.00308049
0.00109404
0.0027027
0.00110078
0.00232207
0.00110674
0.00193893
0.00111191
0.00155365
0.00111624
0.00116665
0.00111974
0.000778318
0.00112236
0.000389049
0.00112429
0.00112346
0.020004
0.000108123
0.0200024
6.30513e-05
0.0199957
0.000138525
0.0199759
0.000187769
0.0199489
0.000178198
0.0199172
0.000144941
0.0198813
0.000113162
0.019851
8.82079e-05
0.0198369
7.18782e-05
0.0198329
7.30743e-05
0.0198209
9.56008e-05
0.0197927
0.000126611
0.0197588
0.000149517
0.0197333
0.000163271
0.0197157
0.000180527
0.0196917
0.000206646
0.0196474
0.000229724
0.0195819
0.000233297
0.0195058
0.000216793
0.0194309
0.000200003
0.0193609
0.000207929
0.0192907
0.00025226
0.0192116
0.000325225
0.019117
0.000407459
0.0190054
0.000480534
0.0188791
0.000534755
0.0187423
0.000569614
0.0185987
0.000589886
0.0184509
0.000601419
0.0183003
0.000608744
0.0181477
0.000614535
0.0179934
0.000620052
0.0178375
0.000625769
0.01768
0.000631821
0.0175208
0.000638234
0.0173599
0.00064501
0.0171972
0.00065215
0.0170327
0.000659659
0.0168662
0.000667542
0.0166976
0.000675802
0.0165269
0.000684446
0.0163539
0.000693476
0.0161786
0.000702897
0.0160008
0.00071271
0.0158205
0.00072292
0.0156376
0.000733527
0.0154519
0.000744534
0.0152634
0.000755943
0.015072
0.000767753
0.0148775
0.000779965
0.0146799
0.000792578
0.014479
0.000805592
0.0142748
0.000819004
0.0140672
0.000832811
0.0138561
0.000847011
0.0136413
0.000861597
0.0134228
0.000876564
0.0132004
0.000891905
0.0129742
0.000907612
0.012744
0.000923674
0.0125096
0.00094008
0.0122712
0.000956817
0.0120284
0.000973868
0.0117814
0.000991217
0.01153
0.00100884
0.0112741
0.00102673
0.0110136
0.00104485
0.0107486
0.00106318
0.010479
0.00108169
0.0102047
0.00110035
0.00992566
0.00111914
0.00964191
0.00113802
0.00935339
0.00115694
0.00906011
0.00117588
0.00876205
0.00119479
0.00845921
0.00121362
0.00815163
0.00123234
0.00783932
0.00125089
0.00752231
0.00126922
0.00720067
0.00128728
0.00687444
0.00130502
0.00654371
0.00132237
0.00620856
0.0013393
0.0058691
0.00135573
0.00552544
0.0013716
0.00517771
0.00138687
0.00482606
0.00140147
0.00447067
0.00141534
0.00411171
0.00142843
0.0037494
0.00144066
0.00338394
0.001452
0.00301559
0.00146239
0.00264461
0.00147176
0.00227127
0.00148008
0.00189588
0.0014873
0.00151873
0.00149339
0.00114017
0.0014983
0.000760538
0.00150199
0.000380145
0.00150468
0.0015036
0.0202097
0.000169578
0.0202036
6.92019e-05
0.0201944
0.000147637
0.0201622
0.000219982
0.0201126
0.000227854
0.0200653
0.000192236
0.020029
0.000149486
0.0199902
0.00012691
0.0199418
0.000120317
0.0198939
0.000120995
0.0198601
0.000129343
0.01984
0.000146771
0.0198192
0.000170293
0.019783
0.00019947
0.0197256
0.000237893
0.0196518
0.000280506
0.0195727
0.000308798
0.0194997
0.000306296
0.0194387
0.000277823
0.0193878
0.000250844
0.0193393
0.000256467
0.0192832
0.000308409
0.0192115
0.000396923
0.0191204
0.000498505
0.0190105
0.000590475
0.018885
0.000660227
0.0187484
0.000706202
0.0186047
0.000733628
0.0184566
0.000749505
0.0183058
0.000759528
0.0181531
0.000767214
0.0179989
0.000774315
0.0178431
0.000781544
0.0176858
0.000789138
0.0175268
0.00079716
0.0173662
0.000805627
0.0172038
0.000814547
0.0170396
0.000823927
0.0168733
0.000833774
0.016705
0.000844094
0.0165346
0.000854893
0.0163619
0.000866177
0.0161868
0.000877948
0.0160093
0.000890212
0.0158293
0.000902972
0.0156466
0.00091623
0.0154611
0.000929989
0.0152728
0.000944251
0.0150815
0.000959016
0.0148872
0.000974285
0.0146897
0.000990058
0.014489
0.00100633
0.0142849
0.00102311
0.0140773
0.00104038
0.0138662
0.00105814
0.0136514
0.00107639
0.0134329
0.00109512
0.0132104
0.00111432
0.0129841
0.00113398
0.0127537
0.00115408
0.0125191
0.00117462
0.0122804
0.00119557
0.0120373
0.00121693
0.0117899
0.00123865
0.011538
0.00126074
0.0112816
0.00128314
0.0110206
0.00130585
0.0107549
0.00132883
0.0104846
0.00135203
0.0102095
0.00137544
0.00992963
0.001399
0.00964497
0.00142268
0.00935549
0.00144642
0.00906119
0.00147018
0.00876207
0.00149391
0.00845813
0.00151756
0.00814942
0.00154105
0.00783597
0.00156434
0.00751782
0.00158736
0.00719505
0.00161005
0.00686774
0.00163233
0.00653597
0.00165414
0.00619985
0.00167541
0.00585952
0.00169606
0.00551511
0.00171602
0.00516676
0.00173521
0.00481466
0.00175357
0.00445899
0.00177101
0.00409995
0.00178747
0.00373775
0.00180286
0.00337263
0.00181712
0.00300484
0.00183018
0.00263462
0.00184198
0.00226225
0.00185245
0.00188802
0.00186153
0.00151222
0.00186919
0.00113515
0.00187537
0.000757124
0.00188001
0.000378421
0.00188338
0.00188202
0.019965
3.63353e-05
0.0199318
0.000102406
0.0199128
0.000166643
0.019916
0.000216766
0.0199451
0.0001988
0.0199892
0.000148143
0.0200035
0.00013515
0.0199768
0.000153622
0.0199306
0.000166558
0.0198891
0.000162441
0.0198592
0.000159262
0.0198332
0.000172762
0.0197986
0.000204868
0.0197452
0.000252918
0.0196731
0.000309977
0.0195945
0.000359157
0.0195266
0.000376681
0.0194807
0.000352143
0.0194543
0.000304254
0.0194327
0.000272492
0.0193983
0.00029081
0.0193398
0.00036691
0.0192548
0.000481925
0.0191476
0.000605709
0.0190247
0.000713381
0.0188917
0.000793267
0.0187521
0.000845717
0.0186083
0.00087752
0.0184612
0.0008966
0.0183116
0.000909129
0.0181599
0.000918885
0.0180064
0.000927794
0.0178513
0.000936698
0.0176945
0.000945924
0.017536
0.000955597
0.0173759
0.00096577
0.017214
0.00097647
0.0170502
0.000987717
0.0168844
0.000999521
0.0167166
0.00101189
0.0165467
0.00102484
0.0163745
0.00103837
0.0161999
0.00105249
0.0160229
0.0010672
0.0158434
0.00108251
0.0156612
0.00109842
0.0154763
0.00111493
0.0152885
0.00113204
0.0150977
0.00114976
0.0149039
0.00116809
0.014707
0.00118702
0.0145068
0.00120656
0.0143032
0.0012267
0.0140961
0.00124744
0.0138855
0.00126878
0.0136712
0.0012907
0.0134531
0.0013132
0.0132311
0.00133627
0.0130052
0.0013599
0.0127752
0.00138406
0.0125411
0.00140876
0.0123027
0.00143395
0.01206
0.00145964
0.0118129
0.00148578
0.0115613
0.00151235
0.0113051
0.00153932
0.0110443
0.00156666
0.0107788
0.00159432
0.0105085
0.00162228
0.0102335
0.00165047
0.00995363
0.00167887
0.0096689
0.00170741
0.00937928
0.00173603
0.00908477
0.00176469
0.00878537
0.00179332
0.00848109
0.00182184
0.00817195
0.00185019
0.00785799
0.0018783
0.00753927
0.00190609
0.00721584
0.00193347
0.0068878
0.00196038
0.00655523
0.00198671
0.00621825
0.00201239
0.00587699
0.00203732
0.00553159
0.00206142
0.00518222
0.00208459
0.00482905
0.00210674
0.00447228
0.00212779
0.00411212
0.00214763
0.00374878
0.0021662
0.00338252
0.00218339
0.00301357
0.00219913
0.00264222
0.00221333
0.00226872
0.00222594
0.00189338
0.00223688
0.00151648
0.00224609
0.00113833
0.00225352
0.000759247
0.0022591
0.000379485
0.00226315
0.00226151
0.0201945
0.000143707
0.0201393
0.000157569
0.0200853
0.000220703
0.0200429
0.000259128
0.0200203
0.000221382
0.0200069
0.000161561
0.0199986
0.000143466
0.0199868
0.00016545
0.019958
0.00019538
0.0198997
0.000220712
0.0198168
0.000242124
0.0197351
0.000254475
0.0196823
0.000257657
0.0196639
0.0002713
0.0196591
0.000314848
0.0196412
0.000377047
0.0195996
0.000418238
0.0195436
0.00040813
0.0194894
0.000358504
0.0194447
0.000317204
0.0194034
0.000332046
0.0193517
0.000418661
0.0192775
0.000556055
0.0191774
0.000705907
0.019055
0.000835693
0.0189179
0.000930364
0.0187728
0.000990883
0.0186239
0.00102642
0.0184733
0.00104715
0.0183218
0.00106068
0.0181693
0.00107141
0.0180156
0.00108145
0.0178607
0.00109165
0.0177043
0.00110232
0.0175463
0.00111355
0.0173867
0.00112538
0.0172253
0.00113784
0.0170621
0.00115094
0.0168969
0.00116469
0.0167297
0.00117911
0.0165603
0.00119421
0.0163887
0.00120998
0.0162148
0.00122644
0.0160384
0.00124359
0.0158595
0.00126144
0.0156779
0.00127999
0.0154936
0.00129925
0.0153064
0.00131921
0.0151163
0.00133989
0.0149231
0.00136127
0.0147268
0.00138337
0.0145271
0.00140617
0.0143242
0.00142968
0.0141177
0.0014539
0.0139077
0.00147881
0.013694
0.00150441
0.0134765
0.00153069
0.0132551
0.00155765
0.0130297
0.00158525
0.0128003
0.0016135
0.0125667
0.00164237
0.0123288
0.00167183
0.0120866
0.00170186
0.0118399
0.00173244
0.0115887
0.00176353
0.011333
0.0017951
0.0110725
0.00182711
0.0108073
0.0018595
0.0105373
0.00189225
0.0102625
0.00192529
0.00998283
0.00195857
0.0096982
0.00199203
0.00940864
0.0020256
0.00911411
0.00205922
0.00881462
0.00209281
0.00851017
0.00212629
0.00820079
0.00215957
0.00788651
0.00219258
0.00756737
0.00222522
0.00724344
0.0022574
0.00691481
0.00228901
0.00658155
0.00231996
0.00624379
0.00235015
0.00590165
0.00237946
0.00555528
0.00240779
0.00520484
0.00243503
0.00485051
0.00246107
0.00449248
0.00248581
0.00413097
0.00250914
0.00376621
0.00253096
0.00339844
0.00255116
0.00302792
0.00256965
0.00265492
0.00258633
0.00227973
0.00260113
0.00190263
0.00261397
0.00152394
0.00262478
0.00114396
0.0026335
0.000763017
0.00264004
0.000381376
0.00264479
0.00264289
0.0201413
0.00027614
0.0201595
0.000139278
0.0201686
0.000211629
0.0201393
0.000288438
0.0201039
0.000256774
0.0200801
0.000185337
0.0200677
0.000155892
0.0200492
0.000184
0.0200094
0.000235145
0.0199526
0.000277503
0.0198964
0.000298341
0.0198533
0.000297578
0.019823
0.000287983
0.0198007
0.000293543
0.0197833
0.000332231
0.019768
0.000392389
0.0197485
0.00043774
0.0197163
0.000440332
0.0196652
0.00040959
0.0195944
0.000388013
0.0195074
0.00041903
0.0194085
0.000517588
0.0192998
0.000664726
0.0191817
0.000823996
0.0190544
0.000963047
0.0189188
0.00106589
0.018777
0.00113268
0.018631
0.0011725
0.0184821
0.00119598
0.0183315
0.00121132
0.0181795
0.00122343
0.0180262
0.00123472
0.0178716
0.00124621
0.0177157
0.00125826
0.0175583
0.00127098
0.0173992
0.00128442
0.0172385
0.0012986
0.0170759
0.00131352
0.0169114
0.00132921
0.0167448
0.00134566
0.0165761
0.00136289
0.0164052
0.0013809
0.016232
0.00139969
0.0160563
0.00141928
0.015878
0.00143967
0.0156972
0.00146086
0.0155136
0.00148286
0.0153271
0.00150567
0.0151377
0.0015293
0.0149452
0.00155374
0.0147496
0.001579
0.0145507
0.00160507
0.0143484
0.00163196
0.0141426
0.00165965
0.0139333
0.00168815
0.0137203
0.00171744
0.0135035
0.00174752
0.0132827
0.00177836
0.013058
0.00180997
0.0128292
0.00184231
0.0125962
0.00187537
0.0123589
0.00190912
0.0121172
0.00194354
0.0118711
0.00197859
0.0116204
0.00201424
0.011365
0.00205044
0.011105
0.00208715
0.0108402
0.00212433
0.0105705
0.00216192
0.0102959
0.00219986
0.0100164
0.00223808
0.00973194
0.00227652
0.00944243
0.00231511
0.00914788
0.00235376
0.0088483
0.00239239
0.00854368
0.00243091
0.00823403
0.00246922
0.00791939
0.00250722
0.00759981
0.00254481
0.00727533
0.00258187
0.00694604
0.0026183
0.00661203
0.00265398
0.00627341
0.00268877
0.0059303
0.00272257
0.00558284
0.00275524
0.0052312
0.00278667
0.00487556
0.00281671
0.00451612
0.00284526
0.00415308
0.00287217
0.0037867
0.00289735
0.0034172
0.00292065
0.00304486
0.00294199
0.00266995
0.00296124
0.00229277
0.00297832
0.00191361
0.00299313
0.0015328
0.00300559
0.00115065
0.00301565
0.0007675
0.00302319
0.000383625
0.00302866
0.00302651
0.0200905
0.00018203
0.0200763
0.000153424
0.0200734
0.000214542
0.0201122
0.000249612
0.020138
0.000231044
0.0201311
0.000192231
0.0200924
0.000194547
0.0200303
0.000246077
0.0199568
0.000308647
0.0198869
0.000347451
0.0198335
0.000351741
0.0198023
0.000328776
0.0197883
0.000302023
0.0197765
0.000305268
0.0197522
0.000356553
0.0197089
0.000435711
0.0196525
0.000494138
0.0195949
0.000497967
0.0195437
0.000460763
0.0194969
0.000434833
0.0194445
0.000471377
0.0193763
0.000585786
0.0192874
0.000753613
0.019179
0.000932382
0.0190555
0.00108655
0.0189216
0.00119979
0.0187811
0.00127325
0.0186363
0.00131724
0.0184889
0.00134339
0.0183396
0.0013606
0.0181889
0.00137421
0.0180367
0.00138689
0.0178831
0.00139978
0.0177281
0.00141329
0.0175715
0.00142756
0.0174133
0.00144264
0.0172533
0.00145856
0.0170915
0.00147532
0.0169278
0.00149294
0.016762
0.00151143
0.0165941
0.00153079
0.016424
0.00155103
0.0162516
0.00157215
0.0160767
0.00159417
0.0158992
0.00161709
0.0157192
0.00164092
0.0155364
0.00166566
0.0153507
0.00169132
0.0151621
0.0017179
0.0149705
0.0017454
0.0147757
0.00177382
0.0145776
0.00180316
0.0143761
0.00183342
0.0141711
0.0018646
0.0139626
0.00189669
0.0137504
0.00192969
0.0135343
0.00196357
0.0133143
0.00199833
0.0130904
0.00203395
0.0128623
0.00207041
0.01263
0.00210769
0.0123933
0.00214576
0.0121523
0.00218459
0.0119067
0.00222414
0.0116566
0.00226438
0.0114018
0.00230526
0.0111422
0.00234674
0.0108778
0.00238875
0.0106084
0.00243123
0.0103342
0.00247413
0.0100549
0.00251737
0.00977052
0.00256088
0.00948107
0.00260456
0.00918651
0.00264832
0.00888682
0.00269208
0.00858199
0.00273574
0.00827204
0.00277917
0.007957
0.00282227
0.00763689
0.00286491
0.00731178
0.00290698
0.00698175
0.00294834
0.00664686
0.00298886
0.00630725
0.00302839
0.00596302
0.0030668
0.00561431
0.00310394
0.00526131
0.00313968
0.00490417
0.00317385
0.0045431
0.00320632
0.00417832
0.00323695
0.00381007
0.0032656
0.0034386
0.00329213
0.00306418
0.00331641
0.00268709
0.00333833
0.00230764
0.00335777
0.00192614
0.00337463
0.0015429
0.00338882
0.00115828
0.00340028
0.000772612
0.00340886
0.000386189
0.00341508
0.0034127
0.0198018
-3.02029e-05
0.0199132
4.208e-05
0.0199574
0.000170347
0.0199655
0.000241474
0.019964
0.000232515
0.0199409
0.00021539
0.0199016
0.000233797
0.0198739
0.00027384
0.0198721
0.000310402
0.019879
0.000340535
0.0198655
0.000365299
0.0198227
0.000371544
0.0197698
0.000354953
0.019729
0.000345996
0.0197015
0.000384134
0.0196713
0.000465902
0.0196265
0.000538866
0.0195724
0.000552062
0.0195235
0.000509674
0.0194873
0.000471044
0.0194564
0.000502268
0.0194139
0.000628266
0.019345
0.000822551
0.0192446
0.00103282
0.0191174
0.00121375
0.0189729
0.00134428
0.0188202
0.00142598
0.0186651
0.00147225
0.0185106
0.00149795
0.018357
0.00151413
0.0182041
0.00152714
0.0180511
0.00153988
0.0178975
0.0015534
0.0177429
0.00156795
0.0175869
0.00158354
0.0174294
0.00160015
0.0172702
0.00161774
0.0171092
0.0016363
0.0169463
0.00165583
0.0167814
0.00167633
0.0166144
0.00169781
0.0164451
0.00172027
0.0162736
0.00174372
0.0160996
0.00176816
0.0159231
0.00179361
0.0157439
0.00182007
0.015562
0.00184755
0.0153773
0.00187605
0.0151896
0.00190557
0.0149989
0.00193613
0.014805
0.00196771
0.0146078
0.00200033
0.0144073
0.00203398
0.0142032
0.00206865
0.0139956
0.00210434
0.0137842
0.00214104
0.0135691
0.00217874
0.01335
0.00221743
0.0131268
0.00225708
0.0128995
0.00229769
0.012668
0.00233921
0.0124321
0.00238163
0.0121918
0.00242491
0.011947
0.00246901
0.0116974
0.00251389
0.0114432
0.0025595
0.0111842
0.00260578
0.0109202
0.00265269
0.0106513
0.00270014
0.0103774
0.00274807
0.0100983
0.00279641
0.00981417
0.00284505
0.00952481
0.00289391
0.00923024
0.0029429
0.00893044
0.00299189
0.00862539
0.00304078
0.0083151
0.00308945
0.0079996
0.00313777
0.00767892
0.0031856
0.0073531
0.0032328
0.00702222
0.00327922
0.00668636
0.00332472
0.00634562
0.00336913
0.00600012
0.0034123
0.00565001
0.00345405
0.00529544
0.00349424
0.00493661
0.00353269
0.0045737
0.00356923
0.00420695
0.00360371
0.00383658
0.00363596
0.00346287
0.00366584
0.00308608
0.00369319
0.00270652
0.00371789
0.00232449
0.00373979
0.00194033
0.0037588
0.00155435
0.00377479
0.00116692
0.00378771
0.000778402
0.00379738
0.000389093
0.00380439
0.00380179
0.0202823
0.000197983
0.0200987
0.000225662
0.0200297
0.000239336
0.0200259
0.000245218
0.0200298
0.000228686
0.020014
0.000231169
0.0199862
0.000261623
0.019964
0.000296031
0.0199482
0.000326192
0.0199228
0.000365893
0.0198763
0.000411855
0.019813
0.000434781
0.0197458
0.000422152
0.0196858
0.000406038
0.0196375
0.000432463
0.0195994
0.000503924
0.0195687
0.000569654
0.0195423
0.00057844
0.0195172
0.000534718
0.0194888
0.000499507
0.0194501
0.00054096
0.0193939
0.000684423
0.0193151
0.000901332
0.0192128
0.00113516
0.0190904
0.00133612
0.0189542
0.00148056
0.01881
0.00157011
0.0186624
0.00161989
0.0185135
0.00164685
0.0183641
0.00166355
0.0182141
0.00167711
0.0180633
0.00169069
0.0179114
0.00170534
0.0177581
0.00172124
0.0176033
0.00173834
0.0174468
0.00175657
0.0172887
0.00177589
0.0171287
0.00179628
0.0169668
0.00181773
0.0168029
0.00184025
0.0166369
0.00186384
0.0164686
0.00188852
0.016298
0.00191429
0.016125
0.00194115
0.0159495
0.00196912
0.0157714
0.00199821
0.0155905
0.00202841
0.0154068
0.00205975
0.0152202
0.00209222
0.0150305
0.00212583
0.0148376
0.00216058
0.0146415
0.00219647
0.014442
0.0022335
0.0142389
0.00227167
0.0140323
0.00231097
0.0138219
0.0023514
0.0136077
0.00239293
0.0133896
0.00243556
0.0131674
0.00247928
0.0129411
0.00252404
0.0127104
0.00256984
0.0124754
0.00261664
0.0122359
0.00266441
0.0119918
0.0027131
0.011743
0.00276267
0.0114895
0.00281306
0.0112311
0.00286422
0.0109677
0.00291608
0.0106992
0.00296857
0.0104257
0.00302162
0.010147
0.00307513
0.009863
0.00312901
0.00957376
0.00318315
0.0092792
0.00323746
0.00897929
0.0032918
0.00867401
0.00334606
0.00836337
0.00340009
0.00804738
0.00345376
0.00772607
0.00350691
0.00739947
0.00355939
0.00706766
0.00361103
0.00673071
0.00366167
0.00638872
0.00371112
0.00604182
0.0037592
0.00569013
0.00380574
0.00533383
0.00385054
0.00497309
0.00389342
0.00460812
0.0039342
0.00423915
0.00397268
0.00386641
0.0040087
0.00349018
0.00404207
0.00311074
0.00407263
0.00272839
0.00410023
0.00234347
0.00412472
0.0019563
0.00414597
0.00156724
0.00416385
0.00117666
0.00417829
0.000784922
0.00418912
0.000392362
0.00419695
0.00419415
0.0197072
4.41595e-05
0.0198564
7.65481e-05
0.0199288
0.000166887
0.019971
0.000203042
0.0199859
0.000213783
0.0199751
0.000241942
0.0199489
0.000287787
0.0199167
0.000328291
0.0198816
0.00036123
0.019851
0.000396566
0.0198347
0.000428096
0.0198342
0.000435324
0.0198362
0.000420185
0.0198187
0.000423535
0.0197675
0.000483671
0.019686
0.000585422
0.0195913
0.000664279
0.0195036
0.00066621
0.0194357
0.000602629
0.0193884
0.000546769
0.0193515
0.000577888
0.0193096
0.000726272
0.0192501
0.000960853
0.0191672
0.00121806
0.0190621
0.00144119
0.01894
0.00160272
0.0188065
0.00170359
0.0186662
0.00176011
0.0185222
0.00179091
0.0183758
0.00180991
0.0182278
0.0018251
0.0180784
0.0018401
0.0179276
0.00185613
0.0177754
0.00187348
0.0176216
0.00189212
0.0174662
0.00191197
0.0173091
0.00193301
0.0171502
0.00195521
0.0169893
0.00197857
0.0168265
0.0020031
0.0166615
0.0020288
0.0164944
0.00205568
0.0163249
0.00208376
0.016153
0.00211303
0.0159786
0.00214351
0.0158016
0.00217522
0.0156219
0.00220815
0.0154393
0.00224232
0.0152538
0.00227773
0.0150652
0.00231439
0.0148735
0.00235231
0.0146785
0.00239147
0.0144801
0.00243189
0.0142782
0.00247357
0.0140727
0.00251649
0.0138635
0.00256064
0.0136504
0.00260603
0.0134333
0.00265262
0.0132122
0.00270041
0.0129869
0.00274937
0.0127572
0.00279948
0.0125232
0.0028507
0.0122846
0.00290299
0.0120414
0.00295631
0.0117934
0.00301062
0.0115406
0.00306585
0.0112829
0.00312195
0.0110201
0.00317885
0.0107522
0.00323646
0.0104792
0.0032947
0.0102008
0.00335348
0.00991712
0.0034127
0.00962803
0.00347224
0.0093335
0.00353199
0.0090335
0.0035918
0.008728
0.00365156
0.00841699
0.0037111
0.00810048
0.00377027
0.00777849
0.0038289
0.00745105
0.00388683
0.00711823
0.00394386
0.00678009
0.0039998
0.00643674
0.00405447
0.00608829
0.00410766
0.00573487
0.00415916
0.00537664
0.00420876
0.0050138
0.00425627
0.00464654
0.00430146
0.0042751
0.00434413
0.00389972
0.00438408
0.00352068
0.00442111
0.00313828
0.00445503
0.00275284
0.00448568
0.00236468
0.00451288
0.00197416
0.00453648
0.00158165
0.00455636
0.00118754
0.00457241
0.000792211
0.00458444
0.000396017
0.00459315
0.00459017
0.0201537
0.000153337
0.0201062
0.000124084
0.0200918
0.000181291
0.0200471
0.000247735
0.0199833
0.000277552
0.0199397
0.000285545
0.0199354
0.000292141
0.0199437
0.000319995
0.019931
0.000373871
0.0198888
0.000438792
0.0198329
0.000483985
0.0197829
0.000485308
0.0197475
0.000455656
0.019724
0.000447014
0.0197023
0.000505305
0.0196704
0.000617323
0.019621
0.000713763
0.0195545
0.000732638
0.0194786
0.000678568
0.0194031
0.000622304
0.0193342
0.000646728
0.0192707
0.000789762
0.0192049
0.0010267
0.0191279
0.00129509
0.0190345
0.00153457
0.0189245
0.00171266
0.0188011
0.00182698
0.0186683
0.00189295
0.0185294
0.00192983
0.0183866
0.00195269
0.0182412
0.0019705
0.0180938
0.0019875
0.0179446
0.00200528
0.0177938
0.00202429
0.0176414
0.00204458
0.0174872
0.00206613
0.0173313
0.00208893
0.0171735
0.00211296
0.0170139
0.00213824
0.0168522
0.00216477
0.0166884
0.00219257
0.0165225
0.00222165
0.0163542
0.00225202
0.0161835
0.0022837
0.0160103
0.00231668
0.0158346
0.002351
0.0156561
0.00238665
0.0154747
0.00242364
0.0152905
0.00246199
0.0151032
0.0025017
0.0149127
0.00254278
0.0147189
0.00258522
0.0145218
0.00262903
0.0143212
0.00267422
0.0141169
0.00272076
0.0139089
0.00276866
0.013697
0.00281791
0.0134811
0.00286849
0.0132611
0.00292038
0.013037
0.00297356
0.0128084
0.003028
0.0125755
0.00308367
0.0123379
0.00314054
0.0120957
0.00319855
0.0118486
0.00325765
0.0115967
0.00331779
0.0113398
0.0033789
0.0110777
0.0034409
0.0108105
0.00350371
0.0105379
0.00356725
0.01026
0.00363141
0.00997662
0.00369607
0.00968773
0.00376113
0.00939328
0.00382644
0.00909321
0.00389188
0.00878749
0.00395728
0.00847611
0.00402248
0.00815905
0.00408732
0.00783635
0.00415161
0.00750802
0.00421516
0.00717411
0.00427777
0.00683469
0.00433922
0.00648985
0.00439931
0.00613971
0.0044578
0.0057844
0.00451447
0.00542407
0.00456909
0.00505891
0.00462142
0.00468914
0.00467123
0.00431498
0.00471829
0.00393668
0.00476237
0.00355455
0.00480324
0.00316887
0.00484071
0.00277999
0.00487456
0.00238824
0.00490462
0.00199401
0.00493072
0.00159767
0.0049527
0.00119963
0.00497045
0.000800315
0.00498376
0.000400081
0.00499338
0.00499025
0.0199238
0.000413426
0.0198683
0.000179498
0.0198709
0.000178691
0.0199089
0.000209822
0.0199248
0.000261598
0.0199013
0.000309042
0.0198697
0.000323733
0.0198651
0.000324639
0.0198809
0.00035802
0.0198879
0.000431832
0.0198669
0.000504971
0.0198237
0.000528545
0.0197751
0.000504182
0.0197316
0.00049056
0.0196938
0.000543053
0.0196588
0.000652336
0.0196231
0.000749448
0.0195836
0.000772154
0.0195364
0.000725753
0.019478
0.000680772
0.0194073
0.000717391
0.0193267
0.00087037
0.0192389
0.00111455
0.0191443
0.00138965
0.0190416
0.00163727
0.0189294
0.00182487
0.0188076
0.00194871
0.0186778
0.00202282
0.0185417
0.0020659
0.0184012
0.00209318
0.0182576
0.0021141
0.0181117
0.00213343
0.0179638
0.00215313
0.0178142
0.00217387
0.017663
0.00219584
0.01751
0.00221908
0.0173553
0.00224362
0.0171988
0.00226947
0.0170404
0.00229666
0.01688
0.00232518
0.0167175
0.00235507
0.0165528
0.00238633
0.0163859
0.00241899
0.0162165
0.00245305
0.0160447
0.00248853
0.0158702
0.00252544
0.0156931
0.0025638
0.0155131
0.00260362
0.0153302
0.0026449
0.0151442
0.00268765
0.0149551
0.00273188
0.0147628
0.0027776
0.014567
0.00282481
0.0143677
0.0028735
0.0141648
0.00292368
0.0139581
0.00297534
0.0137476
0.00302846
0.013533
0.00308304
0.0133143
0.00313905
0.0130914