/*--------------------------------*- C++ -*----------------------------------*\
| =========                 |                                                 |
| \\      /  F ield         | OpenFOAM: The Open Source CFD Toolbox           |
|  \\    /   O peration     | Version:  4.1                                   |
|   \\  /    A nd           | Web:      www.OpenFOAM.org                      |
|    \\/     M anipulation  |                                                 |
\*---------------------------------------------------------------------------*/
FoamFile
{
    version     2.0;
    format      ascii;
    class       surfaceScalarField;
    location    "0.05";
    object      phi_0;
}
// * * * * * * * * * * * * * * * * * * * * * * * * * * * * * * * * * * * * * //

dimensions      [0 3 -1 0 0 0 0];

internalField   nonuniform List<scalar> 
87025
(
0.0201205
-0.000103295
0.0201061
1.44524e-05
0.020054
5.20987e-05
0.0200043
4.96761e-05
0.0199686
3.56816e-05
0.0199594
9.24334e-06
0.0199577
1.70182e-06
0.019933
2.46845e-05
0.0198793
5.36544e-05
0.019821
5.83453e-05
0.0197804
4.05443e-05
0.0197559
2.45065e-05
0.0197269
2.90408e-05
0.0196752
5.16739e-05
0.0196009
7.42995e-05
0.0195206
8.03651e-05
0.0194518
6.8801e-05
0.0194002
5.15931e-05
0.0193557
4.44396e-05
0.0192993
5.63879e-05
0.0192144
8.49211e-05
0.0190957
0.000118693
0.0189499
0.000145863
0.0187892
0.000160666
0.0186249
0.000164339
0.0184631
0.000161729
0.0183056
0.000157522
0.0181512
0.000154423
0.017998
0.000153137
0.0178447
0.000153302
0.0176904
0.000154336
0.0175346
0.000155803
0.0173771
0.000157472
0.0172179
0.00015925
0.0170568
0.000161111
0.0168937
0.000163055
0.0167286
0.000165085
0.0165614
0.000167204
0.016392
0.000169415
0.0162203
0.000171717
0.0160462
0.000174111
0.0158696
0.000176598
0.0156904
0.000179179
0.0155086
0.000181853
0.0153239
0.000184621
0.0151365
0.000187482
0.014946
0.000190436
0.0147525
0.000193483
0.0145559
0.000196621
0.0143561
0.000199851
0.0141529
0.000203169
0.0139463
0.000206576
0.0137362
0.000210068
0.0135226
0.000213644
0.0133053
0.0002173
0.0130843
0.000221034
0.0128594
0.000224841
0.0126307
0.000228718
0.0123981
0.00023266
0.0121614
0.000236662
0.0119207
0.000240718
0.0116759
0.000244821
0.0114269
0.000248962
0.0111738
0.000253133
0.0109164
0.000257326
0.0106549
0.000261531
0.0103892
0.000265729
0.0101193
0.000269868
0.00984529
0.000274015
0.00956715
0.00027814
0.00928494
0.000282212
0.00899872
0.000286215
0.00870858
0.000290136
0.00841462
0.000293962
0.00811695
0.000297674
0.00781569
0.000301257
0.007511
0.000304694
0.00720303
0.00030797
0.00689196
0.00031107
0.00657798
0.00031398
0.00626129
0.000316689
0.0059421
0.000319185
0.00562064
0.000321462
0.00529713
0.000323513
0.00497179
0.000325335
0.00464486
0.000326929
0.00431656
0.0003283
0.00398711
0.000329454
0.00365671
0.000330403
0.00332554
0.000331162
0.0029938
0.000331747
0.00266162
0.000332179
0.00232914
0.00033248
0.00199646
0.000332673
0.00166368
0.000332781
0.00133086
0.000332825
0.000998029
0.00033283
0.000665229
0.0003328
0.000332439
0.00033279
0.000332439
0.0201477
-5.76109e-05
0.0201168
4.53267e-05
0.0201253
4.359e-05
0.0201232
5.1867e-05
0.0200975
6.13699e-05
0.0200605
4.62298e-05
0.0200381
2.41079e-05
0.0200357
2.70079e-05
0.0200316
5.78065e-05
0.0200032
8.67807e-05
0.0199525
9.12015e-05
0.0199019
7.50631e-05
0.019871
6.00053e-05
0.0198585
6.41634e-05
0.0198434
8.93457e-05
0.019802
0.000121774
0.0197297
0.000141126
0.0196445
0.000136826
0.0195728
0.00011608
0.0195314
9.78028e-05
0.0195171
9.92077e-05
0.0195108
0.00012499
0.0194897
0.000167034
0.0194383
0.000212053
0.019353
0.000249607
0.0192392
0.000275531
0.0191059
0.000290843
0.0189614
0.000298913
0.0188114
0.000303142
0.0186588
0.000305861
0.0185049
0.000308269
0.0183499
0.000310821
0.0181937
0.000313622
0.0180363
0.000316665
0.0178775
0.000319924
0.0177172
0.000323382
0.0175552
0.000327032
0.0173916
0.000330873
0.0172261
0.000334905
0.0170587
0.000339128
0.0168892
0.000343546
0.0167177
0.00034816
0.0165439
0.00035297
0.0163678
0.00035798
0.0161892
0.000363189
0.0160081
0.0003686
0.0158243
0.000374212
0.0156377
0.000380027
0.0154483
0.000386045
0.0152559
0.000392265
0.0150604
0.000398688
0.0148617
0.000405312
0.0146596
0.000412136
0.0144541
0.000419158
0.014245
0.000426376
0.0140322
0.000433787
0.0138157
0.000441387
0.0135952
0.000449171
0.0133708
0.000457135
0.0131422
0.000465274
0.0129093
0.000473582
0.0126721
0.000482049
0.0124304
0.000490665
0.0121841
0.000499418
0.0119331
0.000508295
0.0116774
0.000517281
0.0114167
0.00052636
0.0111511
0.000535519
0.0108803
0.000544753
0.0106044
0.00055404
0.0103233
0.000563353
0.0100368
0.00057267
0.00974501
0.000581969
0.00944774
0.000591227
0.009145
0.000600418
0.00883674
0.000609514
0.00852295
0.000618489
0.0082036
0.000627312
0.00787872
0.000635955
0.00754831
0.000644389
0.00721241
0.000652585
0.00687109
0.000660513
0.0065244
0.000668146
0.00617246
0.000675457
0.00581537
0.000682421
0.00545328
0.000689015
0.00508637
0.000695218
0.00471481
0.000701012
0.00433883
0.000706382
0.00395868
0.000711316
0.00357462
0.000715804
0.00318696
0.00071984
0.00279602
0.000723421
0.00240215
0.000726545
0.00200572
0.00072921
0.00160712
0.000731417
0.00120678
0.000733174
0.000805102
0.000734478
0.000402422
0.000735471
0.000734861
0.020338
0.000102664
0.0203195
6.38299e-05
0.0202253
0.000137767
0.0201068
0.000170347
0.0200155
0.000152696
0.0199473
0.000114422
0.0198931
7.83671e-05
0.0198611
5.89342e-05
0.0198601
5.88029e-05
0.0198769
6.99712e-05
0.0198839
8.42641e-05
0.0198599
9.9006e-05
0.0198039
0.000116049
0.01973
0.000138103
0.0196561
0.000163221
0.0195952
0.000182652
0.019551
0.000185324
0.0195203
0.000167575
0.0194959
0.000140436
0.0194689
0.000124812
0.0194303
0.000137793
0.0193732
0.000182059
0.0192942
0.000246095
0.0191934
0.00031283
0.0190742
0.000368792
0.0189414
0.000408326
0.0187997
0.000432565
0.0186526
0.000445978
0.0185025
0.000453276
0.0183505
0.000457866
0.0181971
0.000461654
0.0180425
0.000465471
0.0178865
0.000469588
0.0177291
0.000474046
0.0175702
0.000478826
0.0174097
0.000483908
0.0172474
0.000489278
0.0170834
0.000494934
0.0169174
0.000500873
0.0167494
0.000507098
0.0165794
0.000513612
0.0164071
0.000520416
0.0162326
0.000527513
0.0160556
0.000534906
0.0158762
0.000542595
0.0156943
0.000550583
0.0155096
0.000558872
0.0153222
0.000567461
0.0151319
0.000576352
0.0149386
0.000585545
0.0147422
0.000595039
0.0145427
0.000604834
0.0143399
0.000614927
0.0141338
0.000625317
0.0139241
0.000636001
0.0137109
0.000646975
0.0134941
0.000658235
0.0132735
0.000669776
0.013049
0.00068159
0.0128206
0.000693672
0.0125882
0.000706012
0.0123517
0.000718599
0.0121109
0.000731422
0.0118659
0.000744465
0.0116164
0.000757713
0.0113626
0.000771151
0.0111042
0.000784762
0.0108412
0.000798526
0.0105735
0.000812423
0.0103011
0.000826431
0.0100239
0.000840523
0.00974192
0.000854674
0.00945504
0.000868855
0.00916323
0.000883035
0.00886647
0.000897182
0.00856472
0.000911261
0.00825797
0.000925236
0.00794621
0.00093907
0.00762945
0.000952723
0.00730768
0.000966155
0.00698094
0.000979324
0.00664927
0.000992188
0.00631271
0.0010047
0.00597134
0.00101683
0.00562524
0.00102852
0.00527452
0.00103973
0.00491932
0.00105043
0.00455977
0.00106056
0.00419607
0.00107008
0.00382841
0.00107897
0.00345704
0.00108718
0.0030822
0.00109467
0.0027042
0.00110142
0.00232335
0.00110739
0.00194
0.00111256
0.00155452
0.0011169
0.00116729
0.0011204
0.000778749
0.00112302
0.000389265
0.00112495
0.00112413
0.0200613
0.000249203
0.0200265
9.86881e-05
0.020012
0.000152251
0.019988
0.000194381
0.0199585
0.000182114
0.0199254
0.000147567
0.0198886
0.000115132
0.0198578
8.97802e-05
0.0198434
7.31911e-05
0.0198391
7.42198e-05
0.0198268
9.65841e-05
0.0197984
0.000127385
0.0197644
0.000150057
0.0197389
0.000163627
0.0197214
0.000180771
0.0196972
0.000206784
0.0196529
0.000229699
0.0195874
0.000233078
0.0195114
0.000216441
0.0194365
0.000199647
0.0193666
0.000207675
0.0192966
0.000252132
0.0192175
0.000325164
0.0191229
0.00040738
0.0190114
0.000480375
0.0188852
0.000534499
0.0187485
0.000569277
0.018605
0.0005895
0.0184572
0.000601014
0.0183067
0.000608339
0.0181543
0.000614142
0.018
0.000619677
0.0178442
0.000625415
0.0176868
0.00063149
0.0175277
0.000637927
0.0173669
0.000644728
0.0172042
0.000651894
0.0170397
0.000659429
0.0168733
0.000667339
0.0167048
0.000675626
0.0165341
0.000684297
0.0163611
0.000693354
0.0161858
0.0007028
0.0160081
0.00071264
0.0158278
0.000722876
0.0156449
0.000733509
0.0154592
0.000744542
0.0152707
0.000755975
0.0150793
0.00076781
0.0148848
0.000780047
0.0146871
0.000792684
0.0144862
0.000805722
0.014282
0.000819157
0.0140743
0.000832988
0.0138631
0.00084721
0.0136483
0.000861819
0.0134297
0.000876808
0.0132073
0.000892171
0.012981
0.0009079
0.0127507
0.000923984
0.0125163
0.000940411
0.0122777
0.000957169
0.0120349
0.000974241
0.0117877
0.00099161
0.0115362
0.00100926
0.0112802
0.00102716
0.0110197
0.0010453
0.0107545
0.00106365
0.0104848
0.00108218
0.0102103
0.00110087
0.00993118
0.00111967
0.00964729
0.00113857
0.00935863
0.00115751
0.0090652
0.00117647
0.00876698
0.0011954
0.00846399
0.00121425
0.00815625
0.00123298
0.00784377
0.00125155
0.00752659
0.0012699
0.00720477
0.00128797
0.00687837
0.00130573
0.00654746
0.0013231
0.00621212
0.00134004
0.00587247
0.00135648
0.00552861
0.00137238
0.00518069
0.00138766
0.00482884
0.00140227
0.00447325
0.00141615
0.00411409
0.00142925
0.00375156
0.0014415
0.0033859
0.00145284
0.00301734
0.00146324
0.00264614
0.00147262
0.00227259
0.00148095
0.00189697
0.00148817
0.00151961
0.00149426
0.00114083
0.00149918
0.000760978
0.00150287
0.000380365
0.00150557
0.00150449
0.0201863
0.000117001
0.02021
7.4952e-05
0.0202037
0.000158603
0.0201711
0.000226984
0.0201207
0.000232488
0.0200727
0.000195531
0.0200358
0.000152016
0.0199967
0.000128967
0.0199478
0.000122001
0.0198997
0.000122358
0.0198659
0.000130442
0.0198456
0.00014764
0.0198247
0.000170951
0.0197884
0.000199952
0.0197309
0.000238232
0.019657
0.000280669
0.019578
0.000308716
0.0195051
0.000305954
0.0194443
0.00027732
0.0193936
0.000250348
0.0193451
0.000256109
0.019289
0.000308215
0.0192174
0.000396822
0.0191264
0.000498392
0.0190165
0.000590272
0.0188911
0.000659907
0.0187546
0.000705783
0.0186109
0.000733146
0.0184629
0.000748997
0.0183123
0.000759018
0.0181597
0.000766719
0.0180055
0.000773843
0.0178498
0.000781099
0.0176926
0.000788721
0.0175337
0.000796774
0.0173732
0.000805273
0.0172109
0.000814226
0.0170467
0.000823639
0.0168805
0.00083352
0.0167122
0.000843873
0.0165418
0.000854706
0.0163692
0.000866023
0.0161941
0.000877828
0.0160166
0.000890125
0.0158366
0.000902918
0.0156539
0.000916208
0.0154684
0.000929999
0.0152801
0.000944292
0.0150888
0.000959089
0.0148945
0.000974388
0.014697
0.000990191
0.0144962
0.0010065
0.0142921
0.0010233
0.0140845
0.0010406
0.0138733
0.00105839
0.0136584
0.00107667
0.0134398
0.00109543
0.0132173
0.00111465
0.0129909
0.00113434
0.0127604
0.00115447
0.0125258
0.00117503
0.0122869
0.00119601
0.0120438
0.00121739
0.0117963
0.00123915
0.0115443
0.00126125
0.0112877
0.00128369
0.0110266
0.00130642
0.0107609
0.00132942
0.0104904
0.00135265
0.0102152
0.00137608
0.00993518
0.00139967
0.00965038
0.00142337
0.00936076
0.00144713
0.00906631
0.00147092
0.00876703
0.00149467
0.00846294
0.00151834
0.00815407
0.00154186
0.00784045
0.00156517
0.00752214
0.00158821
0.00719919
0.00161092
0.0068717
0.00163322
0.00653974
0.00165505
0.00620345
0.00167634
0.00586292
0.00169701
0.00551831
0.00171698
0.00516977
0.0017362
0.00481747
0.00175457
0.0044616
0.00177203
0.00410235
0.0017885
0.00373994
0.0018039
0.00337461
0.00181818
0.0030066
0.00183125
0.00263617
0.00184305
0.00226358
0.00185353
0.00188913
0.00186263
0.00151311
0.00187029
0.00113581
0.00187647
0.00075757
0.00188112
0.000378644
0.00188449
0.00188314
0.0199895
0.000136873
0.0199398
0.000124641
0.019921
0.000177414
0.0199238
0.00022414
0.0199525
0.000203771
0.0199962
0.000151874
0.02001
0.000138227
0.0199828
0.000156156
0.0199363
0.000168534
0.0198947
0.000163953
0.0198646
0.000160458
0.0198386
0.000173732
0.0198039
0.000205644
0.0197503
0.000253509
0.0196782
0.000310358
0.0195996
0.000359258
0.0195319
0.00037644
0.0194862
0.0003516
0.01946
0.000303579
0.0194384
0.000271893
0.0194041
0.000290413
0.0193456
0.000366706
0.0192606
0.000481805
0.0191535
0.000605549
0.0190307
0.000713102
0.0188977
0.000792852
0.0187583
0.000845193
0.0186145
0.000876929
0.0184675
0.000895983
0.018318
0.000908512
0.0181665
0.000918287
0.0180131
0.000927223
0.017858
0.00093616
0.0177013
0.000945421
0.017543
0.000955132
0.0173829
0.000965344
0.017221
0.000976084
0.0170573
0.000987371
0.0168916
0.000999216
0.0167239
0.00101163
0.0165539
0.00102462
0.0163818
0.00103819
0.0162073
0.00105235
0.0160303
0.0010671
0.0158508
0.00108245
0.0156686
0.00109839
0.0154836
0.00111494
0.0152958
0.00113209
0.0151051
0.00114985
0.0149112
0.00116821
0.0147143
0.00118718
0.014514
0.00120676
0.0143104
0.00122693
0.0141033
0.00124771
0.0138926
0.00126908
0.0136782
0.00129103
0.0134601
0.00131357
0.013238
0.00133667
0.013012
0.00136033
0.012782
0.00138453
0.0125478
0.00140925
0.0123093
0.00143448
0.0120665
0.0014602
0.0118193
0.00148637
0.0115676
0.00151297
0.0113113
0.00153997
0.0110504
0.00156734
0.0107847
0.00159503
0.0105144
0.00162302
0.0102392
0.00165125
0.0099592
0.00167967
0.00967433
0.00170824
0.00938457
0.00173689
0.00908992
0.00176558
0.00879036
0.00179423
0.00848592
0.00182278
0.00817662
0.00185116
0.0078625
0.00187929
0.0075436
0.00190711
0.00722
0.00193452
0.00689178
0.00196145
0.00655903
0.0019878
0.00622186
0.0020135
0.00588041
0.00203846
0.00553482
0.00206258
0.00518525
0.00208577
0.00483188
0.00210794
0.00447491
0.002129
0.00411453
0.00214887
0.00375099
0.00216745
0.00338451
0.00218465
0.00301535
0.00220041
0.00264378
0.00221463
0.00227007
0.00222724
0.0018945
0.00223819
0.00151738
0.00224741
0.00113901
0.00225485
0.000759697
0.00226043
0.00037971
0.00226448
0.00226285
0.0201644
0.00010286
0.0201343
0.000154706
0.0200875
0.000224188
0.020048
0.000263694
0.0200262
0.000225528
0.0200129
0.000165182
0.0200044
0.000146678
0.0199924
0.000168227
0.0199632
0.000197661
0.0199047
0.000222518
0.0198216
0.000243493
0.0197399
0.00025543
0.0196873
0.000258279
0.0196691
0.000271739
0.0196643
0.000315168
0.0196464
0.000377159
0.0196048
0.000417992
0.0195489
0.000407503
0.0194948
0.000357669
0.0194503
0.000316431
0.0194092
0.000331521
0.0193575
0.00041839
0.0192834
0.000555905
0.0191832
0.000705717
0.019061
0.000835357
0.018924
0.000929861
0.0187789
0.000990247
0.0186301
0.0010257
0.0184797
0.00104641
0.0183283
0.00105994
0.0181759
0.0010707
0.0180223
0.00108077
0.0178675
0.00109102
0.0177112
0.00110173
0.0175533
0.001113
0.0173937
0.00112488
0.0172324
0.00113739
0.0170693
0.00115053
0.0169042
0.00116434
0.016737
0.0011788
0.0165677
0.00119394
0.0163961
0.00120976
0.0162222
0.00122627
0.0160458
0.00124347
0.0158669
0.00126137
0.0156853
0.00127996
0.015501
0.00129926
0.0153138
0.00131927
0.0151236
0.00133999
0.0149304
0.00136142
0.0147341
0.00138355
0.0145344
0.0014064
0.0143314
0.00142995
0.0141249
0.00145421
0.0139148
0.00147916
0.013701
0.0015048
0.0134835
0.00153113
0.013262
0.00155812
0.0130366
0.00158576
0.0128071
0.00161404
0.0125734
0.00164295
0.0123354
0.00167245
0.0120931
0.00170252
0.0118464
0.00173313
0.0115951
0.00176426
0.0113392
0.00179586
0.0110786
0.0018279
0.0108133
0.00186034
0.0105432
0.00189312
0.0102683
0.00192619
0.00998843
0.0019595
0.00970367
0.001993
0.00941396
0.0020266
0.00911928
0.00206025
0.00881964
0.00209387
0.00851503
0.00212738
0.00820549
0.0021607
0.00789104
0.00219374
0.00757173
0.00222641
0.00724763
0.00225862
0.00691881
0.00229026
0.00658537
0.00232124
0.00624743
0.00235145
0.0059051
0.00238079
0.00555853
0.00240914
0.00520789
0.00243641
0.00485335
0.00246247
0.00449512
0.00248724
0.0041334
0.00251059
0.00376843
0.00253242
0.00340045
0.00255264
0.00302971
0.00257114
0.00265649
0.00258784
0.00228108
0.00260266
0.00190376
0.00261551
0.00152485
0.00262632
0.00114464
0.00263505
0.00076347
0.0026416
0.000381603
0.00264635
0.00264445
0.0201523
0.00026153
0.0201687
0.000138306
0.0201743
0.000218644
0.0201443
0.000293646
0.020109
0.000260815
0.0200854
0.000188829
0.0200729
0.000159149
0.0200542
0.000186974
0.0200142
0.000237646
0.0199573
0.000279442
0.019901
0.000299725
0.019858
0.000298478
0.0198277
0.000288532
0.0198056
0.000293894
0.0197883
0.00033245
0.0197731
0.000392395
0.0197537
0.000437405
0.0197215
0.000439637
0.0196705
0.000408695
0.0195998
0.000387166
0.0195129
0.000418407
0.0194141
0.000517203
0.0193055
0.000664458
0.0191875
0.000823689
0.0190603
0.000962595
0.0189249
0.00106527
0.0187832
0.00113192
0.0186373
0.00117166
0.0184885
0.00119512
0.018338
0.00121047
0.0181861
0.00122261
0.0180329
0.00123394
0.0178785
0.00124548
0.0177226
0.00125758
0.0175653
0.00127035
0.0174063
0.00128385
0.0172456
0.00129808
0.0170831
0.00131306
0.0169186
0.0013288
0.0167521
0.00134531
0.0165835
0.00136259
0.0164126
0.00138065
0.0162394
0.0013995
0.0160637
0.00141915
0.0158855
0.00143959
0.0157046
0.00146083
0.015521
0.00148288
0.0153345
0.00150574
0.0151451
0.00152942
0.0149526
0.00155391
0.0147569
0.00157922
0.014558
0.00160534
0.0143557
0.00163227
0.0141499
0.00166001
0.0139405
0.00168855
0.0137274
0.00171789
0.0135105
0.00174801
0.0132897
0.0017789
0.0130649
0.00181055
0.0128361
0.00184293
0.012603
0.00187604
0.0123656
0.00190983
0.0121238
0.00194429
0.0118776
0.00197938
0.0116268
0.00201507
0.0113713
0.00205131
0.0111111
0.00208806
0.0108462
0.00212528
0.0105764
0.00216291
0.0103017
0.00220089
0.0100221
0.00223915
0.00973743
0.00227763
0.00944778
0.00231626
0.00915309
0.00235494
0.00885335
0.00239361
0.00854857
0.00243216
0.00823876
0.00247051
0.00792396
0.00250855
0.0076042
0.00254617
0.00727955
0.00258327
0.00695008
0.00261973
0.00661588
0.00265544
0.00627707
0.00269026
0.00593377
0.00272409
0.00558611
0.00275679
0.00523427
0.00278825
0.00487843
0.00281832
0.00451878
0.00284689
0.00415554
0.00287383
0.00378893
0.00289902
0.00341922
0.00292235
0.00304666
0.0029437
0.00267153
0.00296297
0.00229413
0.00298006
0.00191475
0.00299489
0.00153371
0.00300736
0.00115134
0.00301743
0.000767957
0.00302498
0.000383854
0.00303045
0.0030283
0.0201024
0.000260811
0.0200767
0.000164056
0.0200772
0.000218105
0.0201173
0.000253559
0.020143
0.000235056
0.0201359
0.000195962
0.020097
0.000198075
0.0200347
0.000249268
0.0199611
0.000311282
0.0198911
0.000349412
0.0198378
0.000353048
0.0198067
0.000329546
0.0197928
0.000302453
0.0197811
0.000305543
0.0197569
0.000356723
0.0197136
0.000435651
0.0196573
0.000493676
0.0195999
0.000497083
0.0195489
0.000459655
0.0195023
0.000433798
0.0194501
0.000470615
0.019382
0.000585301
0.0192932
0.000753258
0.0191849
0.000931981
0.0190615
0.00108599
0.0189277
0.00119904
0.0187873
0.00127236
0.0186427
0.00131627
0.0184954
0.0013424
0.0183462
0.00135963
0.0181956
0.00137327
0.0180435
0.001386
0.01789
0.00139895
0.0177351
0.00141251
0.0175786
0.00142685
0.0174205
0.00144199
0.0172606
0.00145797
0.0170988
0.0014748
0.0169351
0.00149248
0.0167694
0.00151103
0.0166016
0.00153045
0.0164315
0.00155075
0.016259
0.00157194
0.0160841
0.00159402
0.0159067
0.001617
0.0157267
0.00164089
0.0155439
0.00166569
0.0153582
0.0016914
0.0151696
0.00171804
0.0149779
0.00174559
0.0147831
0.00177406
0.0145849
0.00180346
0.0143834
0.00183378
0.0141784
0.00186501
0.0139698
0.00189715
0.0137575
0.00193019
0.0135414
0.00196412
0.0133214
0.00199893
0.0130973
0.0020346
0.0128691
0.00207111
0.0126368
0.00210844
0.0124
0.00214655
0.0121589
0.00218543
0.0119132
0.00222503
0.011663
0.00226532
0.0114081
0.00230624
0.0111484
0.00234776
0.0108838
0.00238982
0.0106144
0.00243235
0.01034
0.00247529
0.0100605
0.00251858
0.00977605
0.00256212
0.00948646
0.00260584
0.00919175
0.00264966
0.00889191
0.00269346
0.00858692
0.00273715
0.00827681
0.00278062
0.00796159
0.00282376
0.00764132
0.00286645
0.00731603
0.00290855
0.00698581
0.00294995
0.00665075
0.0029905
0.00631094
0.00303007
0.00596651
0.00306852
0.00561761
0.00310569
0.0052644
0.00314146
0.00490706
0.00317566
0.00454579
0.00320816
0.0041808
0.00323882
0.00381233
0.00326749
0.00344064
0.00329404
0.003066
0.00331835
0.00268869
0.00334028
0.00230901
0.00335974
0.00192728
0.00337662
0.00154383
0.00339082
0.00115897
0.00340228
0.000773073
0.00341088
0.00038642
0.0034171
0.00341472
0.0198126
-0.000108091
0.019931
4.56626e-05
0.0199655
0.000183556
0.0199708
0.000248295
0.0199686
0.00023718
0.0199452
0.000219447
0.0199057
0.000237509
0.0198779
0.000277064
0.0198762
0.000313021
0.019883
0.000342551
0.0198694
0.000366716
0.0198266
0.000372356
0.0197738
0.000355269
0.0197332
0.000346057
0.0197059
0.0003841
0.0196758
0.000465691
0.0196312
0.000538261
0.0195773
0.000550976
0.0195287
0.000508304
0.0194928
0.000469745
0.0194621
0.000501306
0.0194197
0.000627667
0.0193508
0.000822139
0.0192504
0.00103237
0.0191233
0.00121312
0.0189789
0.00134342
0.0188263
0.00142496
0.0186715
0.00147113
0.0185171
0.00149681
0.0183637
0.00151302
0.0182109
0.00152608
0.018058
0.00153888
0.0179045
0.00155246
0.0177499
0.00156708
0.017594
0.00158275
0.0174366
0.00159943
0.0172775
0.00161709
0.0171165
0.00163572
0.0169537
0.00165532
0.0167888
0.00167589
0.0166219
0.00169744
0.0164526
0.00171997
0.0162811
0.00174348
0.0161071
0.001768
0.0159306
0.00179351
0.0157515
0.00182004
0.0155696
0.00184758
0.0153848
0.00187614
0.0151971
0.00190573
0.0150064
0.00193635
0.0148125
0.00196799
0.0146152
0.00200067
0.0144147
0.00203437
0.0142106
0.0020691
0.0140029
0.00210485
0.0137915
0.00214161
0.0135762
0.00217936
0.013357
0.0022181
0.0131338
0.00225781
0.0129065
0.00229847
0.0126749
0.00234005
0.0124389
0.00238252
0.0121985
0.00242585
0.0119535
0.00247
0.0117039
0.00251493
0.0114496
0.00256059
0.0111904
0.00260693
0.0109263
0.00265388
0.0106573
0.00270138
0.0103832
0.00274936
0.0101041
0.00279774
0.00981975
0.00284644
0.00953024
0.00289535
0.00923552
0.00294438
0.00893556
0.00299342
0.00863036
0.00304236
0.00831991
0.00309107
0.00800424
0.00313943
0.00768338
0.00318731
0.00735739
0.00323455
0.00702632
0.00328102
0.00669027
0.00332655
0.00634934
0.003371
0.00600365
0.00341421
0.00565334
0.003456
0.00529857
0.00349622
0.00493953
0.0035347
0.00457641
0.00357128
0.00420944
0.00360579
0.00383886
0.00363807
0.00346493
0.00366797
0.00308792
0.00369535
0.00270814
0.00372007
0.00232588
0.00374199
0.00194149
0.00376101
0.00155528
0.00377702
0.00116762
0.00378994
0.000778869
0.00379963
0.000389326
0.00380665
0.00380405
0.0202502
0.000230625
0.0200811
0.000214717
0.0200287
0.000235925
0.0200292
0.000247827
0.0200338
0.000232611
0.0200179
0.000235362
0.0199898
0.000265558
0.0199675
0.000299399
0.0199516
0.000328919
0.0199261
0.000368005
0.0198795
0.000413305
0.0198164
0.000435514
0.0197494
0.000422281
0.0196896
0.000405839
0.0196415
0.000432142
0.0196038
0.000503429
0.0195733
0.000568773
0.0195472
0.000577091
0.0195224
0.000533105
0.0194941
0.000497998
0.0194556
0.00053983
0.0193996
0.000683696
0.0193209
0.000900817
0.0192187
0.00113461
0.0190964
0.00133537
0.0189603
0.00147957
0.0188163
0.00156893
0.0186688
0.00161862
0.01852
0.00164556
0.0183708
0.0016623
0.0182209
0.00167592
0.0180702
0.00168958
0.0179184
0.0017043
0.0177652
0.00172028
0.0176105
0.00173746
0.0174541
0.00175577
0.017296
0.00177517
0.0171361
0.00179564
0.0169743
0.00181717
0.0168104
0.00183977
0.0166444
0.00186344
0.0164762
0.00188819
0.0163056
0.00191403
0.0161326
0.00194097
0.0159571
0.00196901
0.015779
0.00199817
0.0155981
0.00202845
0.0154144
0.00205986
0.0152278
0.0020924
0.015038
0.00212607
0.0148451
0.00216089
0.014649
0.00219685
0.0144494
0.00223394
0.0142463
0.00227217
0.0140396
0.00231154
0.0138292
0.00235202
0.013615
0.00239362
0.0133968
0.00243631
0.0131745
0.00248008
0.012948
0.00252491
0.0127173
0.00257076
0.0124822
0.00261762
0.0122426
0.00266544
0.0119984
0.00271419
0.0117496
0.00276381
0.0114959
0.00281426
0.0112373
0.00286548
0.0109738
0.00291739
0.0107053
0.00296994
0.0104316
0.00302304
0.0101527
0.0030766
0.00986863
0.00313053
0.00957924
0.00318473
0.00928453
0.00323909
0.00898446
0.00329349
0.00867903
0.00334779
0.00836822
0.00340188
0.00805206
0.00345559
0.00773057
0.0035088
0.0074038
0.00356132
0.0070718
0.00361301
0.00673467
0.00366369
0.00639249
0.00371318
0.00604539
0.00376131
0.0056935
0.00380789
0.00533699
0.00385273
0.00497605
0.00389565
0.00461087
0.00393646
0.00424167
0.00397498
0.00386872
0.00401103
0.00349226
0.00404443
0.0031126
0.00407502
0.00273003
0.00410264
0.00234488
0.00412715
0.00195748
0.00414841
0.00156818
0.00416631
0.00117736
0.00418077
0.000785394
0.0041916
0.000392598
0.00419944
0.00419665
0.0197221
1.43759e-05
0.0198709
6.59242e-05
0.0199349
0.00017191
0.0199757
0.000206974
0.01999
0.000218355
0.0199786
0.000246701
0.019952
0.000292183
0.0199195
0.000331944
0.0198843
0.000364064
0.0198537
0.000398611
0.0198377
0.000429349
0.0198374
0.000435813
0.0198396
0.000420108
0.0198222
0.000423193
0.0197711
0.000483219
0.0196898
0.000584736
0.0195955
0.000663114
0.0195081
0.0006645
0.0194405
0.00060063
0.0193936
0.000544909
0.019357
0.000576483
0.0193153
0.000725351
0.0192559
0.000960202
0.0191731
0.0012174
0.0190682
0.00144033
0.0189462
0.0016016
0.0188128
0.00170228
0.0186727
0.0017587
0.0185288
0.00178948
0.0183826
0.00180852
0.0182347
0.00182378
0.0180854
0.00183886
0.0179348
0.00185499
0.0177826
0.00187243
0.0176289
0.00189115
0.0174736
0.0019111
0.0173166
0.00193222
0.0171577
0.00195451
0.0169969
0.00197796
0.0168341
0.00200258
0.0166692
0.00202836
0.016502
0.00205533
0.0163326
0.00208348
0.0161607
0.00211284
0.0159863
0.0021434
0.0158093
0.00217518
0.0156296
0.00220819
0.015447
0.00224244
0.0152614
0.00227793
0.0150729
0.00231466
0.0148811
0.00235265
0.0146861
0.00239189
0.0144876
0.00243238
0.0142857
0.00247412
0.0140801
0.0025171
0.0138708
0.00256133
0.0136576
0.00260678
0.0134405
0.00265344
0.0132193
0.00270129
0.0129939
0.00275032
0.0127642
0.00280048
0.01253
0.00285176
0.0122914
0.00290412
0.012048
0.00295751
0.0118
0.00301187
0.0115471
0.00306717
0.0112892
0.00312333
0.0110263
0.00318028
0.0107583
0.00323795
0.0104851
0.00329625
0.0102066
0.00335509
0.00992279
0.00341437
0.00963356
0.00347397
0.00933888
0.00353377
0.00903872
0.00359364
0.00873306
0.00365345
0.00842189
0.00371305
0.00810521
0.00377227
0.00778304
0.00383096
0.00745543
0.00388894
0.00712242
0.00394602
0.00678409
0.00400201
0.00644055
0.00405673
0.00609189
0.00410996
0.00573827
0.00416151
0.00537984
0.00421116
0.00501679
0.0042587
0.00464932
0.00430393
0.00427766
0.00434664
0.00390206
0.00438662
0.0035228
0.00442369
0.00314017
0.00445764
0.00275449
0.00448831
0.0023661
0.00451554
0.00197535
0.00453916
0.00158261
0.00455906
0.00118825
0.00457512
0.00079269
0.00458717
0.000396257
0.00459588
0.0045929
0.0201466
0.000178158
0.0201025
0.000110067
0.020096
0.000178405
0.0200518
0.000251129
0.0199871
0.000283033
0.0199427
0.000291126
0.0199379
0.000297037
0.0199458
0.000324002
0.0199329
0.00037693
0.0198907
0.000440864
0.019835
0.000485045
0.0197853
0.000485455
0.0197503
0.000455176
0.0197272
0.000446276
0.0197059
0.000504504
0.0196743
0.000616338
0.0196251
0.000712324
0.0195589
0.000730648
0.0194833
0.000676263
0.0194081
0.000620117
0.0193396
0.000645002
0.0192764
0.000788562
0.0192108
0.00102583
0.0191339
0.00129425
0.0190407
0.00153357
0.0189308
0.00171141
0.0188076
0.00182553
0.0186749
0.0018914
0.0185361
0.00192826
0.0183935
0.00195117
0.0182482
0.00196906
0.0181009
0.00198615
0.0179518
0.00200403
0.0178011
0.00202314
0.0176488
0.00204353
0.0174947
0.00206518
0.0173388
0.00208807
0.0171811
0.00211221
0.0170215
0.00213758
0.0168599
0.00216421
0.0166961
0.0021921
0.0165302
0.00222127
0.0163619
0.00225173
0.0161913
0.0022835
0.0160181
0.00231657
0.0158423
0.00235097
0.0156638
0.0023867
0.0154825
0.00242378
0.0152982
0.00246221
0.0151108
0.002502
0.0149203
0.00254315
0.0147266
0.00258567
0.0145294
0.00262956
0.0143287
0.00267482
0.0141243
0.00272143
0.0139163
0.00276941
0.0137043
0.00281872
0.0134884
0.00286937
0.0132683
0.00292133
0.0130441
0.00297458
0.0128155
0.00302909
0.0125824
0.00308484
0.0123447
0.00314177
0.0121024
0.00319984
0.0118553
0.00325901
0.0116032
0.00331921
0.0113462
0.00338039
0.011084
0.00344245
0.0108166
0.00350533
0.0105439
0.00356893
0.0102659
0.00363315
0.00998236
0.00369788
0.00969332
0.003763
0.00939871
0.00382838
0.00909849
0.00389387
0.00879261
0.00395933
0.00848106
0.0040246
0.00816384
0.0040895
0.00784095
0.00415384
0.00751244
0.00421745
0.00717834
0.00428011
0.00683874
0.00434162
0.00649371
0.00440176
0.00614336
0.00446031
0.00578785
0.00451703
0.00542731
0.00457169
0.00506194
0.00462407
0.00469195
0.00467393
0.00431757
0.00472102
0.00393905
0.00476514
0.00355669
0.00480605
0.00317078
0.00484355
0.00278167
0.00487743
0.00238969
0.00490752
0.00199521
0.00493363
0.00159864
0.00495563
0.00120036
0.0049734
0.0008008
0.00498672
0.000400324
0.00499635
0.00499323
0.0199062
0.000241919
0.0198791
0.000137201
0.0198816
0.000175882
0.0199162
0.000216594
0.0199291
0.000270044
0.0199037
0.000316569
0.0198711
0.000329606
0.0198662
0.00032893
0.0198821
0.000361067
0.0198891
0.000433786
0.0198684
0.000505819
0.0198255
0.000528346
0.0197774
0.000503251
0.0197343
0.000489337
0.0196971
0.000541781
0.0196625
0.000650913
0.0196272
0.000747606
0.0195881
0.000769798
0.0195412
0.000723122
0.019483
0.000678293
0.0194126
0.000715395
0.0193323
0.000868913
0.0192447
0.00111344
0.0191503
0.00138861
0.0190478
0.00163608
0.0189358
0.00182346
0.0188142
0.00194711
0.0186845
0.00202112
0.0185485
0.00206419
0.0184082
0.00209152
0.0182647
0.00211254
0.0181189
0.00213197
0.0179711
0.00215178
0.0178216
0.00217263
0.0176705
0.0021947
0.0175176
0.00221806
0.017363
0.0022427
0.0172065
0.00226866
0.0170481
0.00229595
0.0168878
0.00232458
0.0167253
0.00235457
0.0165607
0.00238593
0.0163937
0.00241868
0.0162244
0.00245284
0.0160525
0.00248842
0.0158781
0.00252542
0.0157009
0.00256387
0.0155209
0.00260377
0.015338
0.00264514
0.015152
0.00268797
0.0149629
0.00273229
0.0147704
0.00277809
0.0145746
0.00282538
0.0143753
0.00287415
0.0141723
0.00292441
0.0139656
0.00297614
0.013755
0.00302934
0.0135403
0.003084
0.0133216
0.00314009