/*--------------------------------*- C++ -*----------------------------------*\
| =========                 |                                                 |
| \\      /  F ield         | OpenFOAM: The Open Source CFD Toolbox           |
|  \\    /   O peration     | Version:  4.1                                   |
|   \\  /    A nd           | Web:      www.OpenFOAM.org                      |
|    \\/     M anipulation  |                                                 |
\*---------------------------------------------------------------------------*/
FoamFile
{
    version     2.0;
    format      ascii;
    class       volScalarField;
    location    "0.05";
    object      pMean;
}
// * * * * * * * * * * * * * * * * * * * * * * * * * * * * * * * * * * * * * //

dimensions      [0 2 -2 0 0 0 0];

internalField   nonuniform List<scalar> 
43750
(
619.647
614.58
613.98
611.67
609.679
607.804
605.936
604.071
602.224
600.405
598.613
596.846
595.102
593.379
591.679
590.001
588.345
586.711
585.099
583.508
581.938
580.388
578.86
577.352
575.866
574.402
572.958
571.536
570.136
568.757
567.401
566.066
564.754
563.465
562.199
560.956
559.737
558.542
557.371
556.224
555.102
554.005
552.933
551.887
550.866
549.872
548.903
547.962
547.046
546.158
545.296
544.462
543.654
542.875
542.122
541.398
540.7
540.031
539.389
538.774
538.187
537.628
537.095
536.59
536.111
535.658
535.232
534.831
534.455
534.104
533.777
533.474
533.193
532.935
532.698
532.482
532.286
532.108
531.949
531.807
531.68
531.569
531.472
531.388
531.315
531.254
531.202
531.159
531.124
531.096
531.074
531.056
531.043
531.033
531.026
531.021
531.018
531.015
531.014
531.014
619.516
614.519
613.933
611.624
609.634
607.762
605.895
604.031
602.187
600.368
598.576
596.809
595.065
593.343
591.644
589.966
588.309
586.675
585.063
583.472
581.903
580.355
578.828
577.322
575.836
574.372
572.928
571.506
570.105
568.726
567.368
566.033
564.721
563.431
562.164
560.921
559.701
558.505
557.333
556.186
555.063
553.966
552.893
551.846
550.825
549.83
548.86
547.918
547.002
546.112
545.25
544.415
543.607
542.826
542.073
541.347
540.65
539.979
539.336
538.721
538.133
537.573
537.04
536.533
536.054
535.601
535.173
534.772
534.396
534.044
533.717
533.413
533.133
532.874
532.637
532.421
532.225
532.047
531.888
531.746
531.62
531.509
531.412
531.329
531.257
531.196
531.145
531.102
531.068
531.04
531.018
531.001
530.988
530.979
530.972
530.968
530.965
530.963
530.962
530.961
619.616
614.544
613.921
611.6
609.605
607.727
605.857
603.991
602.144
600.324
598.532
596.765
595.02
593.297
591.597
589.918
588.262
586.627
585.014
583.423
581.852
580.302
578.774
577.266
575.78
574.314
572.87
571.446
570.045
568.664
567.306
565.97
564.657
563.366
562.098
560.854
559.633
558.436
557.263
556.114
554.99
553.891
552.817
551.769
550.746
549.749
548.779
547.834
546.917
546.026
545.162
544.325
543.515
542.733
541.978
541.251
540.551
539.879
539.235
538.618
538.028
537.466
536.931
536.423
535.941
535.486
535.058
534.654
534.276
533.923
533.594
533.289
533.006
532.746
532.508
532.29
532.092
531.914
531.753
531.609
531.482
531.37
531.272
531.187
531.114
531.052
531
530.957
530.922
530.893
530.871
530.853
530.84
530.83
530.823
530.818
530.815
530.813
530.812
530.811
619.252
614.313
613.762
611.471
609.488
607.621
605.76
603.9
602.057
600.24
598.449
596.682
594.939
593.216
591.515
589.836
588.179
586.544
584.93
583.338
581.767
580.218
578.689
577.181
575.693
574.227
572.781
571.357
569.954
568.572
567.213
565.875
564.56
563.268
561.998
560.752
559.53
558.331
557.156
556.006
554.88
553.779
552.703
551.652
550.628
549.629
548.656
547.709
546.789
545.896
545.03
544.19
543.378
542.594
541.836
541.107
540.405
539.73
539.083
538.463
537.871
537.306
536.769
536.258
535.774
535.317
534.885
534.479
534.099
533.743
533.412
533.104
532.82
532.558
532.317
532.097
531.898
531.717
531.555
531.41
531.281
531.167
531.068
530.982
530.908
530.845
530.792
530.748
530.712
530.683
530.659
530.641
530.628
530.617
530.61
530.605
530.601
530.599
530.598
530.597
619.392
614.319
613.706
611.4
609.415
607.543
605.675
603.809
601.963
600.144
598.352
596.584
594.839
593.116
591.414
589.735
588.077
586.441
584.827
583.233
581.661
580.11
578.579
577.069
575.58
574.112
572.664
571.238
569.833
568.45
567.088
565.749
564.432
563.137
561.866
560.617
559.393
558.191
557.014
555.861
554.733
553.629
552.551
551.497
550.47
549.468
548.492
547.543
546.62
545.723
544.854
544.011
543.196
542.408
541.648
540.915
540.209
539.531
538.88
538.257
537.662
537.094
536.552
536.038
535.551
535.09
534.655
534.246
533.863
533.504
533.169
532.858
532.571
532.306
532.062
531.84
531.637
531.454
531.289
531.142
531.011
530.895
530.794
530.706
530.63
530.566
530.511
530.466
530.428
530.398
530.374
530.355
530.341
530.33
530.322
530.316
530.312
530.309
530.308
530.307
619.084
614.085
613.51
611.221
609.246
607.384
605.525
603.667
601.826
600.01
598.22
596.454
594.709
592.986
591.284
589.604
587.945
586.308
584.693
583.098
581.525
579.972
578.44
576.928
575.437
573.967
572.518
571.09
569.683
568.297
566.933
565.591
564.272
562.975
561.7
560.449
559.221
558.017
556.837
555.681
554.549
553.442
552.361
551.304
550.273
549.267
548.288
547.335
546.408
545.508
544.634
543.788
542.968
542.176
541.412
540.674
539.964
539.282
538.627
538
537.4
536.827
536.282
535.764
535.272
534.807
534.368
533.954
533.567
533.204
532.865
532.55
532.259
531.99
531.743
531.517
531.311
531.125
530.957
530.807
530.673
530.554
530.451
530.36
530.282
530.216
530.159
530.112
530.073
530.042
530.016
529.996
529.98
529.969
529.96
529.954
529.949
529.946
529.945
529.944
618.896
613.949
613.391
611.095
609.115
607.25
605.388
603.525
601.68
599.862
598.07
596.303
594.557
592.833
591.13
589.449
587.789
586.151
584.534
582.938
581.363
579.808
578.274
576.76
575.267
573.795
572.343
570.912
569.502
568.114
566.747
565.402
564.079
562.779
561.502
560.247
559.016
557.808
556.625
555.465
554.329
553.219
552.133
551.072
550.037
549.027
548.043
547.085
546.154
545.249
544.371
543.52
542.695
541.898
541.129
540.386
539.671
538.984
538.324
537.691
537.086
536.508
535.957
535.434
534.937
534.466
534.022
533.604
533.211
532.843
532.5
532.18
531.884
531.611
531.359
531.129
530.919
530.729
530.557
530.403
530.266
530.144
530.037
529.944
529.864
529.794
529.736
529.687
529.646
529.612
529.585
529.564
529.547
529.534
529.525
529.517
529.513
529.509
529.507
529.506
618.774
613.742
613.165
610.876
608.904
607.046
605.191
603.335
601.496
599.681
597.891
596.124
594.378
592.654
590.95
589.267
587.606
585.967
584.348
582.75
581.173
579.616
578.08
576.564
575.068
573.593
572.138
570.705
569.292
567.9
566.53
565.182
563.856
562.552
561.271
560.012
558.777
557.565
556.377
555.213
554.073
552.958
551.867
550.802
549.761
548.747
547.758
546.795
545.858
544.948
544.064
543.207
542.377
541.574
540.798
540.05
539.329
538.636
537.969
537.331
536.719
536.135
535.579
535.049
534.546
534.069
533.619
533.194
532.796
532.422
532.073
531.748
531.446
531.167
530.911
530.675
530.46
530.265
530.089
529.931
529.79
529.664
529.554
529.457
529.373
529.301
529.24
529.188
529.145
529.109
529.081
529.057
529.039
529.025
529.014
529.006
529.001
528.997
528.995
528.993
618.58
613.554
612.99
610.705
608.732
606.867
605.004
603.142
601.298
599.481
597.69
595.922
594.175
592.45
590.745
589.061
587.399
585.757
584.137
582.536
580.957
579.398
577.859
576.34
574.842
573.363
571.905
570.468
569.052
567.657
566.283
564.931
563.601
562.293
561.007
559.744
558.504
557.288
556.095
554.926
553.781
552.66
551.564
550.493
549.447
548.427
547.432
546.463
545.52
544.603
543.713
542.85
542.013
541.204
540.421
539.666
538.938
538.238
537.565
536.919
536.301
535.709
535.145
534.608
534.098
533.615
533.157
532.726
532.32
531.94
531.584
531.252
530.944
530.659
530.397
530.155
529.935
529.734
529.553
529.39
529.243
529.114
528.999
528.898
528.811
528.735
528.67
528.616
528.57
528.532
528.501
528.476
528.456
528.44
528.428
528.419
528.413
528.408
528.406
528.404
618.194
613.246
612.701
610.423
608.46
606.609
604.76
602.907
601.069
599.254
597.463
595.694
593.947
592.22
590.514
588.829
587.165
585.521
583.898
582.296
580.714
579.152
577.611
576.089
574.587
573.105
571.644
570.203
568.783
567.383
566.005
564.649
563.314
562.001
560.711
559.443
558.198
556.976
555.778
554.603
553.453
552.326
551.224
550.147
549.094
548.067
547.066
546.09
545.14
544.217
543.319
542.449
541.605
540.788
539.998
539.235
538.499
537.791
537.11
536.456
535.829
535.23
534.658
534.113
533.595
533.103
532.638
532.199
531.785
531.397
531.033
530.694
530.379
530.087
529.817
529.569
529.342
529.135
528.948
528.778
528.627
528.492
528.372
528.267
528.175
528.095
528.027
527.969
527.92
527.879
527.845
527.818
527.796
527.779
527.765
527.755
527.748
527.742
527.739
527.738
618.148
613.103
612.522
610.228
608.251
606.386
604.526
602.664
600.821
599.004
597.212
595.443
593.695
591.967
590.259
588.572
586.906
585.26
583.634
582.029
580.444
578.879
577.334
575.81
574.304
572.819
571.354
569.909
568.484
567.08
565.698
564.336
562.997
561.679
560.383
559.11
557.859
556.631
555.427
554.246
553.089
551.956
550.847
549.763
548.703
547.669
546.66
545.677
544.719
543.788
542.882
542.004
541.151
540.326
539.527
538.756
538.011
537.294
536.604
535.941
535.306
534.698
534.116
533.562
533.035
532.534
532.06
531.612
531.189
530.792
530.42
530.073
529.749
529.449
529.171
528.915
528.681
528.467
528.272
528.097
527.939
527.797
527.672
527.561
527.464
527.38
527.307
527.245
527.193
527.149
527.112
527.082
527.058
527.039
527.023
527.012
527.003
526.997
526.994
526.992
617.613
612.698
612.152
609.885
607.935
606.089
604.24
602.387
600.549
598.733
596.941
595.171
593.421
591.691
589.982
588.292
586.623
584.975
583.346
581.738
580.15
578.582
577.033
575.504
573.995
572.506
571.036
569.586
568.157
566.748
565.36
563.994
562.648
561.325
560.023
558.744
557.487
556.252
555.041
553.854
552.689
551.549
550.433
549.341
548.274
547.232
546.215
545.223
544.257
543.317
542.403
541.515
540.653
539.819
539.01
538.229
537.475
536.748
536.048
535.376
534.73
534.112
533.52
532.956
532.419
531.908
531.424
530.965
530.533
530.126
529.744
529.387
529.054
528.745
528.458
528.194
527.951
527.729
527.526
527.343
527.178
527.03
526.898
526.781
526.679
526.589
526.512
526.445
526.388
526.34
526.3
526.267
526.24
526.219
526.201
526.188
526.178
526.171
526.167
526.165
617.544
612.545
611.963
609.662
607.684
605.821
603.961
602.1
600.257
598.439
596.646
594.875
593.124
591.393
589.681
587.99
586.318
584.667
583.036
581.424
579.832
578.259
576.706
575.173
573.659
572.165
570.69
569.235
567.801
566.387
564.993
563.621
562.269
560.94
559.632
558.345
557.082
555.84
554.622
553.427
552.255
551.107
549.982
548.882
547.806
546.756
545.73
544.729
543.753
542.804
541.88
540.982
540.111
539.266
538.447
537.656
536.891
536.153
535.442
534.759
534.102
533.473
532.87
532.295
531.746
531.224
530.728
530.259
529.816
529.398
529.006
528.638
528.294
527.975
527.678
527.404
527.152
526.92
526.709
526.517
526.344
526.188
526.049
525.925
525.816
525.721
525.637
525.565
525.504
525.452
525.408
525.371
525.341
525.317
525.298
525.282
525.271
525.263
525.258
525.255
617.094
612.095
611.542
609.278
607.326
605.481
603.634
601.781
599.942
598.125
596.331
594.558
592.806
591.072
589.358
587.664
585.989
584.335
582.7
581.085
579.489
577.912
576.354
574.816
573.297
571.797
570.317
568.857
567.417
565.997
564.597
563.218
561.86
560.524
559.209
557.915
556.644
555.395
554.169
552.966
551.785
550.629
549.496
548.386
547.302
546.241
545.205
544.195
543.209
542.249
541.315
540.406
539.524
538.668
537.838
537.035
536.259
535.509
534.786
534.091
533.422
532.78
532.166
531.578
531.017
530.482
529.975
529.493
529.038
528.608
528.203
527.824
527.469
527.138
526.83
526.545
526.282
526.04
525.819
525.618
525.436
525.271
525.124
524.992
524.876
524.773
524.683
524.605
524.538
524.481
524.433
524.392
524.359
524.331
524.309
524.292
524.279
524.27
524.264
524.261
616.911
611.87
611.299
609.005
607.03
605.168
603.308
601.448
599.604
597.785
595.99
594.216
592.461
590.726
589.009
587.313
585.635
583.978
582.339
580.72
579.12
577.539
575.976
574.433
572.908
571.403
569.917
568.451
567.005
565.578
564.172
562.787
561.422
560.078
558.755
557.454
556.175
554.918
553.683
552.471
551.282
550.116
548.973
547.854
546.759
545.689
544.642
543.621
542.625
541.653
540.708
539.787
538.893
538.025
537.183
536.367
535.578
534.816
534.08
533.372
532.69
532.035
531.407
530.805
530.231
529.683
529.162
528.667
528.198
527.755
527.337
526.945
526.577
526.233
525.913
525.616
525.341
525.088
524.856
524.644
524.451
524.277
524.12
523.98
523.855
523.745
523.648
523.563
523.49
523.427
523.373
523.328
523.291
523.26
523.235
523.215
523.2
523.189
523.182
523.179
616.246
611.341
610.833
608.575
606.624
604.78
602.934
601.081
599.241
597.423
595.626
593.85
592.094
590.356
588.637
586.937
585.256
583.595
581.953
580.329
578.725
577.139
575.572
574.023
572.494
570.983
569.491
568.018
566.565
565.132
563.719
562.326
560.953
559.602
558.271
556.962
555.674
554.408
553.164
551.943
550.744
549.568
548.415
547.286
546.18
545.098
544.041
543.008
542
541.017
540.058
539.126
538.219
537.338
536.482
535.653
534.851
534.074
533.325
532.602
531.906
531.236
530.593
529.977
529.388
528.826
528.29
527.78
527.296
526.839
526.407
526
525.618
525.26
524.926
524.616
524.328
524.062
523.818
523.594
523.39
523.205
523.037
522.887
522.753
522.634
522.528
522.436
522.356
522.286
522.227
522.177
522.134
522.099
522.071
522.048
522.031
522.018
522.01
522.006
616.047
611.073
610.529
608.253
606.287
604.427
602.567
600.706
598.862
597.04
595.241
593.463
591.704
589.964
588.241
586.538
584.854
583.189
581.542
579.914
578.305
576.715
575.142
573.588
572.053
570.536
569.037
567.558
566.098
564.658
563.237
561.836
560.456
559.096
557.757
556.438
555.141
553.866
552.613
551.381
550.172
548.985
547.822
546.681
545.564
544.471
543.401
542.356
541.335
540.339
539.368
538.422
537.501
536.606
535.736
534.893
534.075
533.284
532.52
531.781
531.069
530.384
529.726
529.094
528.489
527.91
527.358
526.833
526.333
525.859
525.411
524.989
524.591
524.218
523.869
523.544
523.242
522.962
522.704
522.467
522.25
522.052
521.873
521.712
521.567
521.438
521.323
521.222
521.134
521.057
520.991
520.935
520.887
520.847
520.815
520.789
520.769
520.754
520.745
520.74
615.589
610.605
610.068
607.803
605.848
604.001
602.154
600.3
598.457
596.635
594.835
593.055
591.293
589.55
587.824
586.117
584.429
582.76
581.109
579.476
577.862
576.266
574.688
573.128
571.586
570.063
568.558
567.071
565.604
564.156
562.727
561.318
559.929
558.561
557.212
555.885
554.578
553.293
552.029
550.787
549.567
548.369
547.194
546.042
544.912
543.806
542.724
541.666
540.632
539.622
538.636
537.676
536.74
535.83
534.945
534.086
533.253
532.446
531.665
530.91
530.182
529.48
528.804
528.155
527.533
526.937
526.367
525.824
525.307
524.816
524.351
523.911
523.497
523.107
522.741
522.4
522.082
521.786
521.513
521.261
521.03
520.818
520.626
520.452
520.295
520.155
520.03
519.919
519.821
519.736
519.662
519.599
519.545
519.5
519.463
519.434
519.411
519.394
519.383
519.377
615.217
610.247
609.712
607.439
605.469
603.608
601.747
599.885
598.037
596.211
594.408
592.626
590.861
589.114
587.385
585.674
583.981
582.308
580.652
579.014
577.395
575.793
574.209
572.643
571.095
569.565
568.052
566.559
565.084
563.627
562.19
560.773
559.375
557.997
556.639
555.301
553.985
552.689
551.414
550.161
548.929
547.719
546.532
545.367
544.225
543.106
542.01
540.937
539.889
538.864
537.864
536.888
535.937
535.011
534.11
533.234
532.384
531.56
530.761
529.989
529.243
528.522
527.829
527.161
526.52
525.905
525.317
524.755
524.219
523.709
523.225
522.766
522.333
521.925
521.541
521.182
520.846
520.533
520.243
519.975
519.728
519.501
519.294
519.106
518.936
518.782
518.645
518.523
518.415
518.321
518.238
518.167
518.106
518.055
518.013
517.979
517.952
517.933
517.92
517.914
614.808
609.807
609.242
606.96
604.999
603.148
601.298
599.441
597.595
595.768
593.963
592.177
590.409
588.659
586.926
585.211
583.514
581.835
580.174
578.531
576.905
575.297
573.707
572.134
570.579
569.041
567.522
566.02
564.537
563.072
561.626
560.2
558.792
557.404
556.036
554.688
553.361
552.054
550.768
549.502
548.259
547.036
545.836
544.658
543.502
542.369
541.259
540.171
539.108
538.068
537.051
536.059
535.092
534.148
533.23
532.337
531.469
530.626
529.809
529.018
528.252
527.513
526.799
526.112
525.451
524.816
524.207
523.624
523.068
522.537
522.033
521.554
521.1
520.672
520.268
519.889
519.534
519.202
518.893
518.607
518.342
518.098
517.875
517.671
517.485
517.318
517.167
517.032
516.913
516.807
516.715
516.634
516.566
516.507
516.459
516.42
516.389
516.367
516.352
516.345
614.249
609.329
608.808
606.538
604.573
602.713
600.85
598.983
597.131
595.302
593.494
591.705
589.934
588.18
586.443
584.724
583.023
581.339
579.673
578.025
576.394
574.78
573.183
571.602
570.04
568.494
566.967
565.457
563.965
562.491
561.036
559.6
558.182
556.784
555.406
554.047
552.708
551.389
550.091
548.813
547.556
546.321
545.107
543.915
542.745
541.597
540.471
539.368
538.289
537.232
536.199
535.19
534.204
533.243
532.307
531.395
530.507
529.645
528.808
527.997
527.211
526.45
525.716
525.007
524.324
523.668
523.037
522.432
521.854
521.301
520.774
520.273
519.797
519.347
518.921
518.52
518.144
517.791
517.461
517.155
516.87
516.608
516.366
516.144
515.942
515.758
515.592
515.443
515.31
515.192
515.088
514.997
514.919
514.853
514.797
514.752
514.717
514.691
514.674
514.665
614.017
608.918
608.329
606.039
604.072
602.217
600.361
598.498
596.647
594.815
593.005
591.213
589.438
587.68
585.939
584.215
582.509
580.82
579.148
577.493
575.856
574.235
572.632
571.045
569.475
567.922
566.386
564.868
563.367
561.884
560.42
558.973
557.546
556.137
554.747
553.377
552.026
550.695
549.384
548.093
546.823
545.574
544.345
543.138
541.953
540.789
539.648
538.529
537.432
536.358
535.308
534.28
533.276
532.296
531.34
530.408
529.5
528.618
527.759
526.926
526.119
525.336
524.579
523.847
523.142
522.462
521.807
521.179
520.576
520
519.449
518.923
518.423
517.949
517.499
517.075
516.675
516.299
515.946
515.617
515.311
515.027
514.765
514.523
514.302
514.1
513.916
513.751
513.602
513.47
513.353
513.251
513.162
513.086
513.022
512.97
512.93
512.899
512.879
512.87
613.311
608.377
607.847
605.573
603.602
601.738
599.874
598.005
596.149
594.313
592.499
590.704
588.926
587.164
585.418
583.689
581.978
580.284
578.606
576.945
575.301
573.673
572.062
570.467
568.889
567.327
565.783
564.255
562.745
561.253
559.778
558.321
556.882
555.462
554.061
552.678
551.315
549.971
548.647
547.343
546.059
544.795
543.551
542.329
541.128
539.948
538.79
537.653
536.539
535.447
534.377
533.331
532.307
531.307
530.33
529.377
528.448
527.544
526.663
525.807
524.976
524.17
523.389
522.633
521.903
521.198
520.518
519.864
519.236
518.633
518.056
517.504
516.978
516.478
516.002
515.551
515.125
514.724
514.347
513.993
513.662
513.355
513.069
512.805
512.562
512.34
512.137
511.952
511.786
511.638
511.506
511.389
511.288
511.202
511.129
511.069
511.021
510.986
510.963
510.952
612.755
607.84
607.301
605.025
603.067
601.214
599.355
597.486
595.628
593.791
591.974
590.175
588.392
586.626
584.876
583.142
581.425
579.725
578.042
576.374
574.723
573.088
571.469
569.866
568.28
566.709
565.156
563.619
562.099
560.596
559.111
557.643
556.193
554.762
553.348
551.953
550.577
549.22
547.882
546.563
545.264
543.985
542.726
541.488
540.27
539.073
537.897
536.742
535.609
534.498
533.409
532.343
531.298
530.277
529.279
528.304
527.352
526.424
525.52
524.64
523.784
522.953
522.146
521.364
520.607
519.876
519.169
518.487
517.831
517.201
516.595
516.016
515.461
514.932
514.428
513.949
513.495
513.065
512.66
512.279
511.921
511.587
511.276
510.987
510.72
510.474
510.248
510.043
509.857
509.69
509.54
509.408
509.293
509.193
509.109
509.04
508.986
508.945
508.918
508.905
612.354
607.369
606.813
604.533
602.559
600.691
598.824
596.951
595.09
593.249
591.428
589.625
587.838
586.067
584.311
582.573
580.85
579.144
577.454
575.78
574.122
572.48
570.854
569.243
567.648
566.069
564.506
562.959
561.429
559.916
558.42
556.941
555.479
554.035
552.609
551.201
549.811
548.44
547.088
545.754
544.44
543.145
541.87
540.615
539.38
538.165
536.97
535.797
534.645
533.514
532.404
531.316
530.25
529.207
528.186
527.187
526.211
525.259
524.33
523.424
522.542
521.685
520.851
520.041
519.256
518.496
517.76
517.05
516.364
515.703
515.067
514.457
513.871
513.311
512.776
512.266
511.781
511.32
510.884
510.473
510.086
509.722
509.382
509.065
508.77
508.498
508.247
508.018
507.809
507.62
507.451
507.3
507.168
507.054
506.957
506.877
506.814
506.767
506.735
506.72
611.817
606.801
606.242
603.971
602.009
600.149
598.281
596.406
594.541
592.697
590.872
589.064
587.273
585.496
583.735
581.99
580.261
578.548
576.851
575.169
573.503
571.853
570.218
568.599
566.995
565.406
563.834
562.277
560.736
559.212
557.705
556.214
554.74
553.283
551.844
550.423
549.019
547.634
546.266
544.917
543.587
542.276
540.984
539.711
538.458
537.224
536.011
534.818
533.645
532.493
531.362
530.252
529.164
528.097
527.052
526.029
525.028
524.05
523.094
522.162
521.252
520.366
519.504
518.665
517.85
517.059
516.292
515.55
514.832
514.139
513.471
512.827
512.209
511.615
511.046
510.502
509.983
509.488
509.019
508.574
508.153
507.757
507.384
507.036
506.71
506.408
506.129
505.872
505.637
505.423
505.231
505.059
504.908
504.776
504.664
504.572
504.498
504.443
504.406
504.388
611.232
606.266
605.718
603.432
601.453
599.583
597.713
595.836
593.969
592.121
590.293
588.481
586.685
584.904
583.138
581.388
579.654
577.934
576.23
574.542
572.868
571.209
569.564
567.935
566.321
564.723
563.14
561.573
560.021
558.486
556.966
555.463
553.977
552.507
551.055
549.619
548.201
546.801
545.418
544.053
542.706
541.378
540.068
538.777
537.505
536.252
535.019
533.805
532.611
531.438
530.284
529.151
528.039
526.948
525.878
524.829
523.802
522.797
521.813
520.852
519.914
518.998
518.105
517.235
516.388
515.565
514.766
513.99
513.238
512.51
511.806
511.127
510.472
509.842
509.236
508.655
508.099
507.568
507.061
506.579
506.121
505.688
505.28
504.895
504.535
504.199
503.887
503.599
503.334
503.092
502.873
502.676
502.502
502.351
502.221
502.113
502.027
501.963
501.92
501.899
610.63
605.682
605.135
602.846
600.872
599.007
597.135
595.253
593.382
591.53
589.698
587.882
586.081
584.295
582.524
580.767
579.026
577.3
575.588
573.892
572.21
570.543
568.89
567.251
565.628
564.019
562.425
560.847
559.284
557.737
556.205
554.69
553.19
551.707
550.241
548.791
547.358
545.942
544.543
543.162
541.798
540.452
539.124
537.814
536.522
535.25
533.996
532.76
531.545
530.348
529.171
528.014
526.877
525.761
524.664
523.589
522.534
521.5
520.488
519.497
518.528
517.581
516.656
515.753
514.873
514.015
513.18
512.369
511.58
510.815
510.074
509.356
508.662
507.993
507.347
506.726
506.129
505.556
505.009
504.485
503.987
503.513
503.064
502.64
502.241
501.867
501.517
501.193
500.893
500.618
500.368
500.143
499.943
499.767
499.617
499.491
499.391
499.315
499.265
499.24
610.03
605.086
604.54
602.254
600.275
598.402
596.526
594.642
592.768
590.913
589.076
587.256
585.451
583.66
581.883
580.121
578.374
576.642
574.924
573.22
571.531
569.856
568.194
566.546
564.913
563.294
561.69
560.1
558.526
556.966
555.422
553.894
552.381
550.884
549.403
547.938
546.49
545.058
543.643
542.244
540.863
539.498
538.151
536.822
535.511
534.217
532.941
531.684
530.445
529.226
528.024
526.842
525.68
524.536
523.413
522.309
521.226
520.162
519.119
518.097
517.096
516.116
515.157
514.219
513.303
512.409
511.537
510.687
509.86
509.055
508.273
507.514
506.778
506.066
505.377
504.712
504.071
503.454
502.861
502.292
501.748
501.229
500.735
500.266
499.823
499.405
499.013
498.647
498.307
497.994
497.708
497.449
497.218
497.014
496.839
496.693
496.575
496.486
496.427
496.398
609.524
604.494
603.947
601.654
599.669
597.794
595.915
594.027
592.149
590.289
588.448
586.623
584.812
583.015
581.231
579.463
577.708
575.968
574.243
572.531
570.833
569.149
567.478
565.821
564.178
562.549
560.933
559.333
557.746
556.175
554.618
553.076
551.55
550.039
548.543
547.063
545.598
544.15
542.717
541.301
539.902
538.518
537.152
535.803
534.47
533.155
531.857
530.577
529.315
528.071
526.844
525.636
524.447
523.276
522.124
520.991
519.877
518.783
517.708
516.653
515.618
514.603
513.608
512.634
511.681
510.748
509.836
508.946
508.077
507.23
506.405
505.602
504.821
504.062
503.326
502.614
501.924
501.258
500.615
499.997
499.403
498.833
498.289
497.769
497.276
496.808
496.368
495.954
495.568
495.211
494.883
494.584
494.316
494.08
493.875
493.703
493.565
493.46
493.39
493.355
608.925
603.909
603.329
601.034
599.049
597.168
595.282
593.39
591.508
589.644
587.799
585.969
584.153
582.351
580.562
578.787
577.026
575.279
573.546
571.826
570.119
568.426
566.745
565.078
563.425
561.785
560.158
558.546
556.947
555.363
553.793
552.238
550.697
549.171
547.66
546.164
544.683
543.218
541.768
540.334
538.915
537.513
536.127
534.756
533.402
532.065
530.745
529.441
528.154
526.884
525.632
524.397
523.18
521.98
520.799
519.636
518.49
517.364
516.255
515.166
514.096
513.044
512.012
510.999
510.006
509.033
508.079
507.146
506.233
505.341
504.469
503.618
502.789
501.981
501.194
500.43
499.688
498.968
498.271
497.597
496.947
496.322
495.72
495.145
494.594
494.071
493.575
493.106
492.667
492.259
491.881
491.536
491.225
490.948
490.708
490.506
490.342
490.219
490.136
490.094
608.226
603.241
602.677
600.379
598.393
596.515
594.631
592.737
590.851
588.984
587.134
585.299
583.478
581.67
579.875
578.093
576.325
574.571
572.829
571.101
569.386
567.684
565.994
564.317
562.653
561.002
559.364
557.739
556.128
554.531
552.948
551.379
549.823
548.282
546.756
545.244
543.746
542.264
540.796
539.343
537.905
536.483
535.076
533.684
532.308
530.948
529.604
528.276
526.964
525.668
524.389
523.126
521.88
520.651
519.439
518.244
517.066
515.905
514.762
513.637
512.53
511.44
510.369
509.316
508.281
507.265
506.267
505.288
504.329
503.388
502.467
501.566
500.684
499.822
498.981
498.161
497.361
496.583
495.826
495.092
494.38
493.692
493.027
492.388
491.774
491.186
490.626
490.095
489.595
489.126
488.69
488.29
487.927
487.603
487.321
487.082
486.888
486.74
486.642
486.592
607.598
602.617
602.046
599.741
597.748
595.863
593.973
592.075
590.185
588.312
586.457
584.617
582.79
580.976
579.174
577.386
575.611
573.848
572.099
570.361
568.637
566.925
565.225
563.538
561.863
560.201
558.551
556.915
555.291
553.681
552.084
550.5
548.93
547.374
545.831
544.302
542.788
541.287
539.801
538.329
536.872
535.429
534
532.587
531.188
529.805
528.436
527.083
525.745
524.422
523.115
521.824
520.548
519.288
518.044
516.817
515.605
514.409
513.23
512.068
510.922
509.793
508.68
507.584
506.506
505.444
504.4
503.373
502.364
501.373
500.399
499.443
498.506
497.587
496.687
495.806
494.944
494.102
493.28
492.479
491.699
490.941
490.206
489.495
488.808
488.148
487.515
486.912
486.339
485.8
485.296
484.831
484.406
484.026
483.692
483.408
483.176
483
482.881
482.822
606.933
601.894
601.336
599.053
597.069
595.184
593.292
591.392
589.5
587.625
585.767
583.922
582.09
580.27
578.462
576.667
574.884
573.114
571.357
569.611
567.877
566.154
564.444
562.744
561.058
559.383
557.722
556.072
554.436
552.812
551.201
549.602
548.017
546.445
544.886
543.341
541.809
540.29
538.785
537.293
535.816
534.352
532.902
531.466
530.044
528.636
527.243
525.863
524.499
523.148
521.813
520.492
519.185
517.894
516.617
515.356
514.109
512.877
511.661
510.459
509.273
508.102
506.947
505.807
504.683
503.574
502.481
501.403
500.342
499.296
498.266
497.253
496.256
495.276
494.312
493.365
492.436
491.525
490.631
489.757
488.902
488.067
487.253
486.461
485.693
484.95
484.234
483.546
482.891
482.269
481.685
481.142
480.643
480.193
479.797
479.458
479.18
478.968
478.825
478.752
606.187
601.24
600.678
598.371
596.374
594.487
592.596
590.692
588.795
586.915
585.051
583.201
581.363
579.538
577.724
575.922
574.133
572.355
570.59
568.836
567.093
565.362
563.642
561.933
560.235
558.549
556.875
555.213
553.563
551.925
550.3
548.687
547.086
545.498
543.922
542.36
540.81
539.272
537.748
536.237
534.738
533.253
531.781
530.322
528.876
527.443
526.024
524.619
523.227
521.848
520.483
519.131
517.793
516.469
515.159
513.862
512.579
511.31
510.055
508.813
507.585
506.371
505.171
503.985
502.813
501.654
500.51
499.379
498.262
497.16
496.071
494.996
493.936
492.889
491.858
490.841
489.838
488.852
487.88
486.925
485.987
485.067
484.165
483.283
482.422
481.585
480.773
479.99
479.237
478.519
477.839
477.203
476.615
476.081
475.608
475.201
474.865
474.608
474.433
474.346
605.347
600.459
599.939
597.66
595.675
593.786
591.888
589.981
588.081
586.197
584.329
582.474
580.63
578.798
576.977
575.167
573.37
571.584
569.809
568.046
566.294
564.553
562.823
561.104
559.395
557.698
556.012
554.337
552.673
551.022
549.382
547.753
546.137
544.533
542.94
541.36
539.792
538.236
536.691
535.16
533.64
532.133
530.638
529.156
527.685
526.228
524.782
523.35
521.929
520.522
519.126
517.744
516.373
515.016
513.67
512.338
511.017
509.709
508.414
507.131
505.86
504.601
503.355
502.12
500.898
499.688
498.489
497.303
496.128
494.965
493.814
492.674
491.546
490.43
489.325
488.232
487.151
486.083
485.027
483.984
482.954
481.939
480.94
479.957
478.992
478.048
477.127
476.231
475.365
474.533
473.741
472.993
472.297
471.661
471.092
470.6
470.193
469.878
469.665
469.554
604.985
599.892
599.276
596.961
594.963
593.071
591.172
589.261
587.357
585.468
583.594
581.734
579.885
578.046
576.218
574.402
572.597
570.803
569.02
567.247
565.485
563.734
561.992
560.262
558.541
556.832
555.133
553.445
551.768
550.102
548.447
546.804
545.171
543.55
541.941
540.343
538.756
537.18
535.616
534.064
532.523
530.993
529.475
527.969
526.474
524.99
523.518
522.058
520.609
519.171
517.745
516.33
514.927
513.535
512.154
510.784
509.425
508.077
506.74
505.414
504.098
502.793
501.499
500.214
498.94
497.676
496.421
495.176
493.941
492.714
491.497
490.289
489.089
487.898
486.716
485.542
484.377
483.22
482.072
480.932
479.803
478.684
477.575
476.479
475.398
474.332
473.285
472.261
471.263
470.297
469.37
468.488