/*--------------------------------*- C++ -*----------------------------------*\
| =========                 |                                                 |
| \\      /  F ield         | OpenFOAM: The Open Source CFD Toolbox           |
|  \\    /   O peration     | Version:  4.1                                   |
|   \\  /    A nd           | Web:      www.OpenFOAM.org                      |
|    \\/     M anipulation  |                                                 |
\*---------------------------------------------------------------------------*/
FoamFile
{
    version     2.0;
    format      ascii;
    class       volScalarField;
    location    "0.05";
    object      pPrime2Mean;
}
// * * * * * * * * * * * * * * * * * * * * * * * * * * * * * * * * * * * * * //

dimensions      [0 4 -4 0 0 0 0];

internalField   nonuniform List<scalar> 
43750
(
7.22506e+09
7.17482e+09
7.12213e+09
7.06974e+09
7.01772e+09
6.96607e+09
6.91479e+09
6.86391e+09
6.81343e+09
6.76333e+09
6.71364e+09
6.66435e+09
6.61546e+09
6.56697e+09
6.51889e+09
6.47121e+09
6.42393e+09
6.37706e+09
6.33059e+09
6.28453e+09
6.23887e+09
6.19362e+09
6.14878e+09
6.10434e+09
6.06031e+09
6.01669e+09
5.97348e+09
5.93068e+09
5.8883e+09
5.84633e+09
5.80477e+09
5.76363e+09
5.72291e+09
5.68261e+09
5.64274e+09
5.60329e+09
5.56426e+09
5.52567e+09
5.48751e+09
5.44979e+09
5.41251e+09
5.37567e+09
5.33927e+09
5.30332e+09
5.26783e+09
5.23279e+09
5.19822e+09
5.16411e+09
5.13047e+09
5.0973e+09
5.06461e+09
5.03241e+09
5.00069e+09
4.96947e+09
4.93875e+09
4.90853e+09
4.87883e+09
4.84964e+09
4.82098e+09
4.79285e+09
4.76525e+09
4.7382e+09
4.7117e+09
4.68575e+09
4.66037e+09
4.63557e+09
4.61134e+09
4.5877e+09
4.56466e+09
4.54223e+09
4.5204e+09
4.49919e+09
4.47862e+09
4.45868e+09
4.43938e+09
4.42074e+09
4.40276e+09
4.38546e+09
4.36883e+09
4.35289e+09
4.33764e+09
4.3231e+09
4.30927e+09
4.29616e+09
4.28378e+09
4.27213e+09
4.26123e+09
4.25107e+09
4.24166e+09
4.23302e+09
4.22514e+09
4.21804e+09
4.21171e+09
4.20617e+09
4.20141e+09
4.19743e+09
4.19425e+09
4.19186e+09
4.19027e+09
4.18947e+09
7.22529e+09
7.1748e+09
7.12201e+09
7.06959e+09
7.01755e+09
6.96588e+09
6.9146e+09
6.86371e+09
6.81322e+09
6.76312e+09
6.71343e+09
6.66413e+09
6.61524e+09
6.56675e+09
6.51867e+09
6.47098e+09
6.4237e+09
6.37683e+09
6.33036e+09
6.2843e+09
6.23864e+09
6.19338e+09
6.14853e+09
6.10409e+09
6.06006e+09
6.01644e+09
5.97323e+09
5.93043e+09
5.88804e+09
5.84606e+09
5.8045e+09
5.76336e+09
5.72263e+09
5.68233e+09
5.64245e+09
5.603e+09
5.56397e+09
5.52537e+09
5.48721e+09
5.44948e+09
5.41219e+09
5.37535e+09
5.33894e+09
5.30299e+09
5.26749e+09
5.23245e+09
5.19787e+09
5.16375e+09
5.1301e+09
5.09693e+09
5.06423e+09
5.03202e+09
5.0003e+09
4.96907e+09
4.93834e+09
4.90811e+09
4.8784e+09
4.84921e+09
4.82053e+09
4.79239e+09
4.76479e+09
4.73772e+09
4.71121e+09
4.68526e+09
4.65987e+09
4.63505e+09
4.61082e+09
4.58717e+09
4.56412e+09
4.54167e+09
4.51983e+09
4.49861e+09
4.47803e+09
4.45808e+09
4.43877e+09
4.42012e+09
4.40213e+09
4.38481e+09
4.36817e+09
4.35222e+09
4.33697e+09
4.32241e+09
4.30857e+09
4.29545e+09
4.28306e+09
4.27141e+09
4.26049e+09
4.25032e+09
4.24091e+09
4.23226e+09
4.22438e+09
4.21727e+09
4.21094e+09
4.20539e+09
4.20062e+09
4.19664e+09
4.19346e+09
4.19107e+09
4.18947e+09
4.18868e+09
7.22504e+09
7.17456e+09
7.12174e+09
7.06927e+09
7.0172e+09
6.96551e+09
6.91421e+09
6.86331e+09
6.8128e+09
6.7627e+09
6.713e+09
6.6637e+09
6.6148e+09
6.56631e+09
6.51821e+09
6.47053e+09
6.42324e+09
6.37637e+09
6.32989e+09
6.28382e+09
6.23816e+09
6.1929e+09
6.14805e+09
6.1036e+09
6.05956e+09
6.01594e+09
5.97272e+09
5.92991e+09
5.88751e+09
5.84553e+09
5.80396e+09
5.76281e+09
5.72208e+09
5.68177e+09
5.64188e+09
5.60242e+09
5.56338e+09
5.52477e+09
5.4866e+09
5.44886e+09
5.41156e+09
5.3747e+09
5.33829e+09
5.30233e+09
5.26682e+09
5.23176e+09
5.19716e+09
5.16303e+09
5.12937e+09
5.09618e+09
5.06347e+09
5.03125e+09
4.99951e+09
4.96826e+09
4.93752e+09
4.90727e+09
4.87754e+09
4.84833e+09
4.81964e+09
4.79148e+09
4.76386e+09
4.73677e+09
4.71024e+09
4.68427e+09
4.65886e+09
4.63402e+09
4.60977e+09
4.5861e+09
4.56302e+09
4.54055e+09
4.51869e+09
4.49746e+09
4.47685e+09
4.45687e+09
4.43754e+09
4.41887e+09
4.40086e+09
4.38352e+09
4.36686e+09
4.35089e+09
4.33561e+09
4.32104e+09
4.30718e+09
4.29404e+09
4.28163e+09
4.26995e+09
4.25902e+09
4.24884e+09
4.23941e+09
4.23075e+09
4.22285e+09
4.21573e+09
4.20938e+09
4.20382e+09
4.19905e+09
4.19506e+09
4.19187e+09
4.18948e+09
4.18788e+09
4.18708e+09
7.2247e+09
7.17417e+09
7.12129e+09
7.06878e+09
7.01666e+09
6.96494e+09
6.91362e+09
6.8627e+09
6.81218e+09
6.76206e+09
6.71235e+09
6.66304e+09
6.61414e+09
6.56564e+09
6.51754e+09
6.46985e+09
6.42256e+09
6.37567e+09
6.32919e+09
6.28311e+09
6.23744e+09
6.19218e+09
6.14732e+09
6.10286e+09
6.05882e+09
6.01518e+09
5.97195e+09
5.92913e+09
5.88673e+09
5.84473e+09
5.80316e+09
5.76199e+09
5.72125e+09
5.68093e+09
5.64102e+09
5.60155e+09
5.5625e+09
5.52388e+09
5.48569e+09
5.44793e+09
5.41062e+09
5.37374e+09
5.33731e+09
5.30133e+09
5.2658e+09
5.23073e+09
5.19611e+09
5.16196e+09
5.12828e+09
5.09507e+09
5.06234e+09
5.03009e+09
4.99832e+09
4.96705e+09
4.93628e+09
4.90602e+09
4.87626e+09
4.84702e+09
4.8183e+09
4.79012e+09
4.76246e+09
4.73535e+09
4.70879e+09
4.68279e+09
4.65735e+09
4.63248e+09
4.60819e+09
4.58449e+09
4.56138e+09
4.53888e+09
4.51699e+09
4.49572e+09
4.47507e+09
4.45507e+09
4.43571e+09
4.417e+09
4.39896e+09
4.38158e+09
4.36489e+09
4.34888e+09
4.33358e+09
4.31897e+09
4.30508e+09
4.29192e+09
4.27948e+09
4.26777e+09
4.25681e+09
4.24661e+09
4.23716e+09
4.22847e+09
4.22055e+09
4.21341e+09
4.20705e+09
4.20148e+09
4.19669e+09
4.19269e+09
4.1895e+09
4.18709e+09
4.18549e+09
4.18469e+09
7.22421e+09
7.17363e+09
7.12068e+09
7.0681e+09
7.01594e+09
6.96418e+09
6.91282e+09
6.86188e+09
6.81134e+09
6.76121e+09
6.71149e+09
6.66217e+09
6.61325e+09
6.56474e+09
6.51664e+09
6.46893e+09
6.42164e+09
6.37474e+09
6.32825e+09
6.28217e+09
6.23649e+09
6.19121e+09
6.14634e+09
6.10188e+09
6.05782e+09
6.01417e+09
5.97093e+09
5.9281e+09
5.88568e+09
5.84367e+09
5.80208e+09
5.7609e+09
5.72014e+09
5.6798e+09
5.63988e+09
5.60039e+09
5.56132e+09
5.52268e+09
5.48447e+09
5.4467e+09
5.40936e+09
5.37247e+09
5.33601e+09
5.30001e+09
5.26445e+09
5.22935e+09
5.19471e+09
5.16053e+09
5.12682e+09
5.09358e+09
5.06082e+09
5.02854e+09
4.99675e+09
4.96545e+09
4.93464e+09
4.90434e+09
4.87455e+09
4.84528e+09
4.81652e+09
4.7883e+09
4.76061e+09
4.73346e+09
4.70686e+09
4.68081e+09
4.65533e+09
4.63042e+09
4.60609e+09
4.58235e+09
4.5592e+09
4.53665e+09
4.51472e+09
4.4934e+09
4.47271e+09
4.45266e+09
4.43326e+09
4.4145e+09
4.39642e+09
4.379e+09
4.36226e+09
4.34621e+09
4.33086e+09
4.31622e+09
4.30229e+09
4.28908e+09
4.27661e+09
4.26487e+09
4.25387e+09
4.24363e+09
4.23415e+09
4.22543e+09
4.21749e+09
4.21032e+09
4.20394e+09
4.19835e+09
4.19354e+09
4.18953e+09
4.18632e+09
4.18391e+09
4.1823e+09
4.1815e+09
7.22371e+09
7.17296e+09
7.11988e+09
7.06723e+09
7.015e+09
6.9632e+09
6.91182e+09
6.86085e+09
6.81029e+09
6.76014e+09
6.7104e+09
6.66107e+09
6.61215e+09
6.56363e+09
6.51551e+09
6.4678e+09
6.42049e+09
6.37358e+09
6.32708e+09
6.28099e+09
6.2353e+09
6.19001e+09
6.14512e+09
6.10065e+09
6.05658e+09
6.01291e+09
5.96966e+09
5.92681e+09
5.88437e+09
5.84235e+09
5.80074e+09
5.75954e+09
5.71876e+09
5.6784e+09
5.63846e+09
5.59895e+09
5.55985e+09
5.52119e+09
5.48296e+09
5.44516e+09
5.40779e+09
5.37087e+09
5.33439e+09
5.29835e+09
5.26277e+09
5.22763e+09
5.19296e+09
5.15875e+09
5.125e+09
5.09173e+09
5.05893e+09
5.02661e+09
4.99478e+09
4.96344e+09
4.93259e+09
4.90225e+09
4.87242e+09
4.8431e+09
4.8143e+09
4.78603e+09
4.75829e+09
4.73109e+09
4.70444e+09
4.67835e+09
4.65281e+09
4.62785e+09
4.60347e+09
4.57967e+09
4.55647e+09
4.53387e+09
4.51188e+09
4.49051e+09
4.46976e+09
4.44966e+09
4.43019e+09
4.41139e+09
4.39324e+09
4.37577e+09
4.35898e+09
4.34288e+09
4.32747e+09
4.31278e+09
4.2988e+09
4.28554e+09
4.27302e+09
4.26123e+09
4.25019e+09
4.23991e+09
4.23039e+09
4.22164e+09
4.21366e+09
4.20646e+09
4.20005e+09
4.19443e+09
4.1896e+09
4.18558e+09
4.18235e+09
4.17993e+09
4.17831e+09
4.17751e+09
7.22308e+09
7.17208e+09
7.11887e+09
7.06613e+09
7.01385e+09
6.962e+09
6.91059e+09
6.8596e+09
6.80902e+09
6.75885e+09
6.7091e+09
6.65976e+09
6.61082e+09
6.56228e+09
6.51416e+09
6.46643e+09
6.41911e+09
6.3722e+09
6.32568e+09
6.27957e+09
6.23387e+09
6.18856e+09
6.14367e+09
6.09917e+09
6.05508e+09
6.0114e+09
5.96813e+09
5.92526e+09
5.88281e+09
5.84076e+09
5.79913e+09
5.75791e+09
5.71711e+09
5.67672e+09
5.63676e+09
5.59721e+09
5.55809e+09
5.5194e+09
5.48114e+09
5.44331e+09
5.40591e+09
5.36895e+09
5.33244e+09
5.29637e+09
5.26075e+09
5.22558e+09
5.19086e+09
5.15661e+09
5.12282e+09
5.08951e+09
5.05666e+09
5.0243e+09
4.99242e+09
4.96103e+09
4.93014e+09
4.89974e+09
4.86986e+09
4.84049e+09
4.81163e+09
4.7833e+09
4.75551e+09
4.72825e+09
4.70154e+09
4.67539e+09
4.6498e+09
4.62477e+09
4.60033e+09
4.57646e+09
4.5532e+09
4.53053e+09
4.50847e+09
4.48703e+09
4.46622e+09
4.44605e+09
4.42652e+09
4.40765e+09
4.38944e+09
4.3719e+09
4.35504e+09
4.33887e+09
4.32341e+09
4.30865e+09
4.2946e+09
4.28129e+09
4.2687e+09
4.25686e+09
4.24577e+09
4.23544e+09
4.22587e+09
4.21707e+09
4.20906e+09
4.20182e+09
4.19538e+09
4.18972e+09
4.18487e+09
4.18082e+09
4.17758e+09
4.17514e+09
4.17352e+09
4.17271e+09
7.22178e+09
7.17085e+09
7.11759e+09
7.06479e+09
7.01246e+09
6.96058e+09
6.90914e+09
6.85812e+09
6.80753e+09
6.75734e+09
6.70758e+09
6.65822e+09
6.60927e+09
6.56072e+09
6.51258e+09
6.46484e+09
6.41751e+09
6.37058e+09
6.32405e+09
6.27792e+09
6.2322e+09
6.18688e+09
6.14197e+09
6.09745e+09
6.05335e+09
6.00965e+09
5.96635e+09
5.92346e+09
5.88098e+09
5.83891e+09
5.79726e+09
5.75601e+09
5.71518e+09
5.67477e+09
5.63477e+09
5.5952e+09
5.55605e+09
5.51732e+09
5.47902e+09
5.44116e+09
5.40372e+09
5.36673e+09
5.33017e+09
5.29406e+09
5.25839e+09
5.22318e+09
5.18842e+09
5.15412e+09
5.12029e+09
5.08692e+09
5.05402e+09
5.02161e+09
4.98967e+09
4.95823e+09
4.92728e+09
4.89682e+09
4.86688e+09
4.83744e+09
4.80853e+09
4.78013e+09
4.75227e+09
4.72495e+09
4.69817e+09
4.67194e+09
4.64628e+09
4.62118e+09
4.59666e+09
4.57272e+09
4.54938e+09
4.52664e+09
4.5045e+09
4.48299e+09
4.4621e+09
4.44184e+09
4.42224e+09
4.40328e+09
4.38499e+09
4.36738e+09
4.35044e+09
4.3342e+09
4.31866e+09
4.30382e+09
4.28971e+09
4.27632e+09
4.26367e+09
4.25177e+09
4.24061e+09
4.23022e+09
4.2206e+09
4.21175e+09
4.20368e+09
4.1964e+09
4.18991e+09
4.18423e+09
4.17934e+09
4.17527e+09
4.172e+09
4.16955e+09
4.16792e+09
4.1671e+09
7.22062e+09
7.16941e+09
7.11604e+09
7.06319e+09
7.01082e+09
6.95892e+09
6.90745e+09
6.85642e+09
6.80581e+09
6.75561e+09
6.70583e+09
6.65646e+09
6.60749e+09
6.55893e+09
6.51078e+09
6.46302e+09
6.41567e+09
6.36873e+09
6.32218e+09
6.27604e+09
6.2303e+09
6.18496e+09
6.14003e+09
6.09549e+09
6.05137e+09
6.00764e+09
5.96432e+09
5.92141e+09
5.8789e+09
5.83681e+09
5.79512e+09
5.75385e+09
5.71298e+09
5.67254e+09
5.63251e+09
5.5929e+09
5.55371e+09
5.51495e+09
5.47661e+09
5.4387e+09
5.40122e+09
5.36418e+09
5.32758e+09
5.29142e+09
5.25571e+09
5.22045e+09
5.18564e+09
5.15128e+09
5.11739e+09
5.08397e+09
5.05101e+09
5.01854e+09
4.98654e+09
4.95503e+09
4.92401e+09
4.89349e+09
4.86348e+09
4.83397e+09
4.80498e+09
4.77652e+09
4.74858e+09
4.72118e+09
4.69432e+09
4.66801e+09
4.64227e+09
4.61709e+09
4.59248e+09
4.56846e+09
4.54503e+09
4.52219e+09
4.49997e+09
4.47836e+09
4.45739e+09
4.43704e+09
4.41734e+09
4.3983e+09
4.37992e+09
4.36221e+09
4.34519e+09
4.32886e+09
4.31323e+09
4.29831e+09
4.28411e+09
4.27065e+09
4.25792e+09
4.24594e+09
4.23471e+09
4.22425e+09
4.21456e+09
4.20565e+09
4.19753e+09
4.19019e+09
4.18366e+09
4.17793e+09
4.17301e+09
4.16891e+09
4.16562e+09
4.16315e+09
4.1615e+09
4.16068e+09
7.21892e+09
7.16759e+09
7.11418e+09
7.06131e+09
7.00893e+09
6.95702e+09
6.90554e+09
6.85449e+09
6.80387e+09
6.75366e+09
6.70386e+09
6.65447e+09
6.60549e+09
6.55692e+09
6.50875e+09
6.46098e+09
6.41361e+09
6.36665e+09
6.32009e+09
6.27393e+09
6.22817e+09
6.18281e+09
6.13785e+09
6.09329e+09
6.04914e+09
6.00539e+09
5.96204e+09
5.9191e+09
5.87657e+09
5.83444e+09
5.79272e+09
5.75141e+09
5.71052e+09
5.67003e+09
5.62997e+09
5.59032e+09
5.55109e+09
5.51228e+09
5.4739e+09
5.43594e+09
5.39842e+09
5.36133e+09
5.32468e+09
5.28847e+09
5.2527e+09
5.21738e+09
5.18251e+09
5.1481e+09
5.11414e+09
5.08065e+09
5.04764e+09
5.01509e+09
4.98302e+09
4.95144e+09
4.92035e+09
4.88976e+09
4.85966e+09
4.83008e+09
4.801e+09
4.77245e+09
4.74443e+09
4.71694e+09
4.69e+09
4.6636e+09
4.63776e+09
4.61248e+09
4.58778e+09
4.56366e+09
4.54013e+09
4.5172e+09
4.49488e+09
4.47317e+09
4.45209e+09
4.43164e+09
4.41184e+09
4.3927e+09
4.37421e+09
4.35641e+09
4.33928e+09
4.32285e+09
4.30712e+09
4.29211e+09
4.27782e+09
4.26426e+09
4.25144e+09
4.23937e+09
4.22806e+09
4.21752e+09
4.20776e+09
4.19878e+09
4.19059e+09
4.1832e+09
4.17662e+09
4.17084e+09
4.16588e+09
4.16174e+09
4.15842e+09
4.15593e+09
4.15427e+09
4.15344e+09
7.21645e+09
7.1653e+09
7.11198e+09
7.05915e+09
7.00679e+09
6.95487e+09
6.90339e+09
6.85234e+09
6.8017e+09
6.75148e+09
6.70167e+09
6.65227e+09
6.60327e+09
6.55468e+09
6.5065e+09
6.45871e+09
6.41133e+09
6.36435e+09
6.31776e+09
6.27158e+09
6.2258e+09
6.18042e+09
6.13544e+09
6.09085e+09
6.04667e+09
6.00289e+09
5.95952e+09
5.91655e+09
5.87398e+09
5.83182e+09
5.79006e+09
5.74872e+09
5.70778e+09
5.66726e+09
5.62715e+09
5.58746e+09
5.54818e+09
5.50933e+09
5.4709e+09
5.43289e+09
5.39531e+09
5.35817e+09
5.32146e+09
5.28519e+09
5.24936e+09
5.21398e+09
5.17904e+09
5.14456e+09
5.11054e+09
5.07698e+09
5.04389e+09
5.01127e+09
4.97913e+09
4.94746e+09
4.91629e+09
4.88561e+09
4.85543e+09
4.82576e+09
4.79659e+09
4.76795e+09
4.73983e+09
4.71225e+09
4.6852e+09
4.6587e+09
4.63276e+09
4.60738e+09
4.58257e+09
4.55834e+09
4.5347e+09
4.51166e+09
4.48922e+09
4.4674e+09
4.44621e+09
4.42565e+09
4.40573e+09
4.38647e+09
4.36788e+09
4.34995e+09
4.33272e+09
4.31617e+09
4.30034e+09
4.28521e+09
4.27081e+09
4.25715e+09
4.24423e+09
4.23207e+09
4.22067e+09
4.21004e+09
4.20019e+09
4.19114e+09
4.18287e+09
4.17542e+09
4.16877e+09
4.16294e+09
4.15794e+09
4.15376e+09
4.15041e+09
4.14789e+09
4.14622e+09
4.14538e+09
7.2133e+09
7.16264e+09
7.1095e+09
7.05674e+09
7.0044e+09
6.9525e+09
6.90102e+09
6.84995e+09
6.79931e+09
6.74908e+09
6.69926e+09
6.64984e+09
6.60083e+09
6.55223e+09
6.50402e+09
6.45622e+09
6.40882e+09
6.36182e+09
6.31521e+09
6.26901e+09
6.2232e+09
6.17779e+09
6.13279e+09
6.08818e+09
6.04397e+09
6.00016e+09
5.95675e+09
5.91374e+09
5.87114e+09
5.82894e+09
5.78715e+09
5.74576e+09
5.70478e+09
5.66421e+09
5.62406e+09
5.58432e+09
5.54499e+09
5.50609e+09
5.4676e+09
5.42954e+09
5.39191e+09
5.3547e+09
5.31793e+09
5.2816e+09
5.2457e+09
5.21025e+09
5.17524e+09
5.14069e+09
5.10659e+09
5.07296e+09
5.03978e+09
5.00708e+09
4.97485e+09
4.9431e+09
4.91184e+09
4.88106e+09
4.85079e+09
4.82102e+09
4.79175e+09
4.76301e+09
4.73479e+09
4.70709e+09
4.67994e+09
4.65333e+09
4.62727e+09
4.60178e+09
4.57685e+09
4.5525e+09
4.52874e+09
4.50558e+09
4.48302e+09
4.46107e+09
4.43975e+09
4.41906e+09
4.39902e+09
4.37963e+09
4.36091e+09
4.34286e+09
4.32549e+09
4.30883e+09
4.29287e+09
4.27762e+09
4.26311e+09
4.24933e+09
4.2363e+09
4.22403e+09
4.21252e+09
4.2018e+09
4.19186e+09
4.18271e+09
4.17437e+09
4.16684e+09
4.16012e+09
4.15423e+09
4.14918e+09
4.14495e+09
4.14157e+09
4.13903e+09
4.13733e+09
4.13648e+09
7.21078e+09
7.15997e+09
7.10684e+09
7.05411e+09
7.00179e+09
6.9499e+09
6.89842e+09
6.84735e+09
6.7967e+09
6.74646e+09
6.69662e+09
6.6472e+09
6.59817e+09
6.54955e+09
6.50133e+09
6.45351e+09
6.40609e+09
6.35906e+09
6.31244e+09
6.26621e+09
6.22037e+09
6.17494e+09
6.1299e+09
6.08526e+09
6.04102e+09
5.99718e+09
5.95373e+09
5.91069e+09
5.86805e+09
5.82581e+09
5.78397e+09
5.74254e+09
5.70152e+09
5.6609e+09
5.6207e+09
5.5809e+09
5.54152e+09
5.50256e+09
5.46402e+09
5.4259e+09
5.3882e+09
5.35093e+09
5.31409e+09
5.27769e+09
5.24172e+09
5.20619e+09
5.17111e+09
5.13648e+09
5.1023e+09
5.06858e+09
5.03531e+09
5.00252e+09
4.9702e+09
4.93835e+09
4.90699e+09
4.87612e+09
4.84574e+09
4.81586e+09
4.78649e+09
4.75763e+09
4.72929e+09
4.70149e+09
4.67421e+09
4.64748e+09
4.6213e+09
4.59568e+09
4.57062e+09
4.54614e+09
4.52225e+09
4.49895e+09
4.47625e+09
4.45417e+09
4.43271e+09
4.41188e+09
4.3917e+09
4.37217e+09
4.35331e+09
4.33512e+09
4.31762e+09
4.30081e+09
4.28472e+09
4.26934e+09
4.25469e+09
4.24079e+09
4.22763e+09
4.21524e+09
4.20362e+09
4.19279e+09
4.18274e+09
4.1735e+09
4.16507e+09
4.15745e+09
4.15067e+09
4.14471e+09
4.13959e+09
4.13532e+09
4.1319e+09
4.12933e+09
4.12761e+09
4.12675e+09
7.20788e+09
7.15709e+09
7.10399e+09
7.05128e+09
6.99897e+09
6.94708e+09
6.8956e+09
6.84453e+09
6.79387e+09
6.74362e+09
6.69377e+09
6.64433e+09
6.59529e+09
6.54665e+09
6.49842e+09
6.45057e+09
6.40313e+09
6.35608e+09
6.30943e+09
6.26318e+09
6.21732e+09
6.17185e+09
6.12679e+09
6.08211e+09
6.03784e+09
5.99396e+09
5.95048e+09
5.9074e+09
5.86471e+09
5.82243e+09
5.78055e+09
5.73907e+09
5.69799e+09
5.65733e+09
5.61707e+09
5.57722e+09
5.53778e+09
5.49876e+09
5.46015e+09
5.42196e+09
5.3842e+09
5.34686e+09
5.30995e+09
5.27347e+09
5.23742e+09
5.20181e+09
5.16665e+09
5.13193e+09
5.09766e+09
5.06385e+09
5.03049e+09
4.9976e+09
4.96518e+09
4.93323e+09
4.90176e+09
4.87078e+09
4.84029e+09
4.81029e+09
4.7808e+09
4.75183e+09
4.72336e+09
4.69543e+09
4.66802e+09
4.64116e+09
4.61484e+09
4.58908e+09
4.56389e+09
4.53927e+09
4.51523e+09
4.49178e+09
4.46894e+09
4.4467e+09
4.42509e+09
4.40412e+09
4.38378e+09
4.3641e+09
4.34508e+09
4.32674e+09
4.30909e+09
4.29213e+09
4.27589e+09
4.26036e+09
4.24557e+09
4.23153e+09
4.21824e+09
4.20571e+09
4.19397e+09
4.18301e+09
4.17285e+09
4.1635e+09
4.15497e+09
4.14726e+09
4.14039e+09
4.13436e+09
4.12918e+09
4.12486e+09
4.12139e+09
4.11879e+09
4.11705e+09
4.11618e+09
7.20461e+09
7.15403e+09
7.10096e+09
7.04825e+09
6.99594e+09
6.94405e+09
6.89257e+09
6.84149e+09
6.79083e+09
6.74057e+09
6.69071e+09
6.64125e+09
6.5922e+09
6.54354e+09
6.49528e+09
6.44742e+09
6.39996e+09
6.35289e+09
6.30621e+09
6.25993e+09
6.21404e+09
6.16854e+09
6.12344e+09
6.07874e+09
6.03442e+09
5.99051e+09
5.94698e+09
5.90386e+09
5.86113e+09
5.8188e+09
5.77687e+09
5.73534e+09
5.69421e+09
5.65349e+09
5.61317e+09
5.57326e+09
5.53376e+09
5.49468e+09
5.456e+09
5.41774e+09
5.37991e+09
5.34249e+09
5.3055e+09
5.26894e+09
5.23281e+09
5.19712e+09
5.16186e+09
5.12705e+09
5.09269e+09
5.05877e+09
5.02532e+09
4.99232e+09
4.95979e+09
4.92773e+09
4.89615e+09
4.86505e+09
4.83444e+09
4.80432e+09
4.7747e+09
4.74559e+09
4.717e+09
4.68892e+09
4.66138e+09
4.63437e+09
4.60791e+09
4.582e+09
4.55665e+09
4.53188e+09
4.50768e+09
4.48408e+09
4.46107e+09
4.43868e+09
4.4169e+09
4.39576e+09
4.37526e+09
4.35541e+09
4.33623e+09
4.31772e+09
4.2999e+09
4.28278e+09
4.26637e+09
4.25069e+09
4.23574e+09
4.22154e+09
4.2081e+09
4.19544e+09
4.18355e+09
4.17246e+09
4.16218e+09
4.15271e+09
4.14407e+09
4.13626e+09
4.1293e+09
4.12319e+09
4.11794e+09
4.11355e+09
4.11003e+09
4.10739e+09
4.10563e+09
4.10475e+09
7.20188e+09
7.15094e+09
7.09776e+09
7.04502e+09
6.99271e+09
6.94081e+09
6.88933e+09
6.83825e+09
6.78757e+09
6.7373e+09
6.68743e+09
6.63796e+09
6.58889e+09
6.54022e+09
6.49194e+09
6.44405e+09
6.39657e+09
6.34947e+09
6.30277e+09
6.25645e+09
6.21053e+09
6.16501e+09
6.11987e+09
6.07513e+09
6.03078e+09
5.98682e+09
5.94325e+09
5.90008e+09
5.85731e+09
5.81493e+09
5.77295e+09
5.73136e+09
5.69018e+09
5.6494e+09
5.60902e+09
5.56904e+09
5.52948e+09
5.49032e+09
5.45157e+09
5.41324e+09
5.37533e+09
5.33783e+09
5.30076e+09
5.26411e+09
5.22789e+09
5.1921e+09
5.15675e+09
5.12184e+09
5.08738e+09
5.05336e+09
5.01979e+09
4.98668e+09
4.95404e+09
4.92186e+09
4.89016e+09
4.85893e+09
4.82819e+09
4.79794e+09
4.76819e+09
4.73894e+09
4.7102e+09
4.68198e+09
4.65428e+09
4.62712e+09
4.6005e+09
4.57443e+09
4.54893e+09
4.52398e+09
4.49962e+09
4.47584e+09
4.45267e+09
4.4301e+09
4.40814e+09
4.38682e+09
4.36614e+09
4.34611e+09
4.32675e+09
4.30806e+09
4.29006e+09
4.27276e+09
4.25618e+09
4.24032e+09
4.2252e+09
4.21083e+09
4.19723e+09
4.18441e+09
4.17237e+09
4.16114e+09
4.15071e+09
4.14112e+09
4.13235e+09
4.12444e+09
4.11737e+09
4.11117e+09
4.10584e+09
4.10139e+09
4.09782e+09
4.09514e+09
4.09335e+09
4.09246e+09
7.1985e+09
7.14753e+09
7.09433e+09
7.04159e+09
6.98927e+09
6.93737e+09
6.88588e+09
6.83479e+09
6.78411e+09
6.73382e+09
6.68394e+09
6.63446e+09
6.58537e+09
6.53668e+09
6.48838e+09
6.44047e+09
6.39296e+09
6.34584e+09
6.2991e+09
6.25276e+09
6.20681e+09
6.16125e+09
6.11607e+09
6.07129e+09
6.0269e+09
5.9829e+09
5.93929e+09
5.89607e+09
5.85324e+09
5.81081e+09
5.76877e+09
5.72713e+09
5.68589e+09
5.64505e+09
5.6046e+09
5.56456e+09
5.52492e+09
5.48569e+09
5.44687e+09
5.40846e+09
5.37046e+09
5.33288e+09
5.29572e+09
5.25898e+09
5.22266e+09
5.18678e+09
5.15133e+09
5.11631e+09
5.08174e+09
5.04761e+09
5.01393e+09
4.9807e+09
4.94793e+09
4.91563e+09
4.88379e+09
4.85243e+09
4.82155e+09
4.79116e+09
4.76126e+09
4.73186e+09
4.70297e+09
4.6746e+09
4.64674e+09
4.61942e+09
4.59263e+09
4.56639e+09
4.54071e+09
4.51559e+09
4.49104e+09
4.46708e+09
4.44372e+09
4.42096e+09
4.39882e+09
4.3773e+09
4.35643e+09
4.33621e+09
4.31665e+09
4.29776e+09
4.27957e+09
4.26208e+09
4.2453e+09
4.22925e+09
4.21395e+09
4.1994e+09
4.18562e+09
4.17262e+09
4.16042e+09
4.14903e+09
4.13845e+09
4.12872e+09
4.11982e+09
4.11178e+09
4.10461e+09
4.09831e+09
4.09289e+09
4.08837e+09
4.08474e+09
4.08202e+09
4.0802e+09
4.07929e+09
7.19453e+09
7.14378e+09
7.09066e+09
7.03793e+09
6.98562e+09
6.93372e+09
6.88222e+09
6.83112e+09
6.78043e+09
6.73014e+09
6.68024e+09
6.63074e+09
6.58164e+09
6.53293e+09
6.48461e+09
6.43668e+09
6.38914e+09
6.34199e+09
6.29523e+09
6.24885e+09
6.20287e+09
6.15727e+09
6.11206e+09
6.06723e+09
6.0228e+09
5.97875e+09
5.93509e+09
5.89182e+09
5.84895e+09
5.80646e+09
5.76436e+09
5.72266e+09
5.68135e+09
5.64044e+09
5.59993e+09
5.55982e+09
5.52011e+09
5.4808e+09
5.44189e+09
5.4034e+09
5.36531e+09
5.32764e+09
5.29039e+09
5.25355e+09
5.21714e+09
5.18115e+09
5.14559e+09
5.11046e+09
5.07577e+09
5.04152e+09
5.00772e+09
4.97437e+09
4.94147e+09
4.90903e+09
4.87706e+09
4.84556e+09
4.81453e+09
4.78399e+09
4.75394e+09
4.72438e+09
4.69533e+09
4.66678e+09
4.63876e+09
4.61126e+09
4.58429e+09
4.55787e+09
4.532e+09
4.50669e+09
4.48196e+09
4.4578e+09
4.43424e+09
4.41127e+09
4.38893e+09
4.36721e+09
4.34612e+09
4.32569e+09
4.30592e+09
4.28683e+09
4.26843e+09
4.25073e+09
4.23374e+09
4.21749e+09
4.20199e+09
4.18724e+09
4.17327e+09
4.16008e+09
4.1477e+09
4.13613e+09
4.1254e+09
4.1155e+09
4.10646e+09
4.09829e+09
4.091e+09
4.08459e+09
4.07908e+09
4.07448e+09
4.07079e+09
4.06801e+09
4.06616e+09
4.06523e+09
7.19055e+09
7.13989e+09
7.0868e+09
7.03408e+09
6.98177e+09
6.92986e+09
6.87835e+09
6.82725e+09
6.77655e+09
6.72625e+09
6.67634e+09
6.62682e+09
6.5777e+09
6.52897e+09
6.48063e+09
6.43267e+09
6.38511e+09
6.33793e+09
6.29114e+09
6.24473e+09
6.19871e+09
6.15307e+09
6.10782e+09
6.06295e+09
6.01847e+09
5.97438e+09
5.93067e+09
5.88735e+09
5.84441e+09
5.80187e+09
5.75971e+09
5.71795e+09
5.67657e+09
5.63559e+09
5.59501e+09
5.55482e+09
5.51503e+09
5.47564e+09
5.43665e+09
5.39807e+09
5.35989e+09
5.32213e+09
5.28477e+09
5.24783e+09
5.21131e+09
5.17522e+09
5.13954e+09
5.1043e+09
5.06949e+09
5.03512e+09
5.00118e+09
4.9677e+09
4.93466e+09
4.90208e+09
4.86996e+09
4.83831e+09
4.80713e+09
4.77643e+09
4.74621e+09
4.71649e+09
4.68726e+09
4.65854e+09
4.63034e+09
4.60265e+09
4.5755e+09
4.54888e+09
4.52282e+09
4.49731e+09
4.47236e+09
4.448e+09
4.42422e+09
4.40105e+09
4.37848e+09
4.35654e+09
4.33523e+09
4.31458e+09
4.29458e+09
4.27526e+09
4.25663e+09
4.23871e+09
4.2215e+09
4.20503e+09
4.18931e+09
4.17435e+09
4.16016e+09
4.14678e+09
4.1342e+09
4.12244e+09
4.11153e+09
4.10147e+09
4.09227e+09
4.08395e+09
4.07653e+09
4.07e+09
4.06439e+09
4.0597e+09
4.05594e+09
4.05311e+09
4.05122e+09
4.05028e+09
7.18687e+09
7.13593e+09
7.08277e+09
7.03003e+09
6.97771e+09
6.9258e+09
6.87429e+09
6.82318e+09
6.77247e+09
6.72215e+09
6.67223e+09
6.6227e+09
6.57356e+09
6.52481e+09
6.47644e+09
6.42846e+09
6.38087e+09
6.33366e+09
6.28684e+09
6.24039e+09
6.19434e+09
6.14866e+09
6.10337e+09
6.05846e+09
6.01393e+09
5.96978e+09
5.92602e+09
5.88265e+09
5.83965e+09
5.79705e+09
5.75483e+09
5.713e+09
5.67155e+09
5.6305e+09
5.58984e+09
5.54957e+09
5.5097e+09
5.47022e+09
5.43115e+09
5.39247e+09
5.3542e+09
5.31633e+09
5.27887e+09
5.24183e+09
5.2052e+09
5.16899e+09
5.1332e+09
5.09783e+09
5.06289e+09
5.02839e+09
4.99432e+09
4.96069e+09
4.92751e+09
4.89478e+09
4.86251e+09
4.8307e+09
4.79936e+09
4.76849e+09
4.7381e+09
4.7082e+09
4.67879e+09
4.64989e+09
4.62149e+09
4.59361e+09
4.56625e+09
4.53943e+09
4.51316e+09
4.48743e+09
4.46227e+09
4.43768e+09
4.41368e+09
4.39028e+09
4.36748e+09
4.3453e+09
4.32376e+09
4.30286e+09
4.28263e+09
4.26307e+09
4.2442e+09
4.22603e+09
4.20858e+09
4.19187e+09
4.17591e+09
4.16072e+09
4.14631e+09
4.13271e+09
4.11992e+09
4.10796e+09
4.09685e+09
4.0866e+09
4.07723e+09
4.06876e+09
4.06119e+09
4.05453e+09
4.04881e+09
4.04402e+09
4.04019e+09
4.0373e+09
4.03537e+09
4.03441e+09
7.18235e+09
7.13165e+09
7.07853e+09
7.02579e+09
6.97346e+09
6.92154e+09
6.87002e+09
6.81891e+09
6.76818e+09
6.71786e+09
6.66792e+09
6.61838e+09
6.56922e+09
6.52044e+09
6.47205e+09
6.42405e+09
6.37643e+09
6.32919e+09
6.28233e+09
6.23585e+09
6.18975e+09
6.14404e+09
6.0987e+09
6.05374e+09
6.00917e+09
5.96497e+09
5.92115e+09
5.87772e+09
5.83467e+09
5.792e+09
5.74971e+09
5.70781e+09
5.66629e+09
5.62517e+09
5.58442e+09
5.54407e+09
5.50412e+09
5.46455e+09
5.42538e+09
5.38661e+09
5.34824e+09
5.31027e+09
5.2727e+09
5.23554e+09
5.1988e+09
5.16247e+09
5.12655e+09
5.09105e+09
5.05598e+09
5.02134e+09
4.98713e+09
4.95336e+09
4.92003e+09
4.88714e+09
4.85471e+09
4.82274e+09
4.79122e+09
4.76018e+09
4.72961e+09
4.69952e+09
4.66992e+09
4.64082e+09
4.61222e+09
4.58413e+09
4.55657e+09
4.52953e+09
4.50303e+09
4.47708e+09
4.45169e+09
4.42687e+09
4.40262e+09
4.37897e+09
4.35593e+09
4.3335e+09
4.31171e+09
4.29055e+09
4.27006e+09
4.25024e+09
4.23111e+09
4.21269e+09
4.19498e+09
4.17802e+09
4.1618e+09
4.14636e+09
4.13171e+09
4.11787e+09
4.10485e+09
4.09267e+09
4.08135e+09
4.0709e+09
4.06134e+09
4.0527e+09
4.04497e+09
4.03817e+09
4.03233e+09
4.02744e+09
4.02351e+09
4.02057e+09
4.0186e+09
4.01761e+09
7.17821e+09
7.1273e+09
7.0741e+09
7.02134e+09
6.969e+09
6.91708e+09
6.86556e+09
6.81443e+09
6.7637e+09
6.71336e+09
6.66341e+09
6.61385e+09
6.56467e+09
6.51588e+09
6.46747e+09
6.41943e+09
6.37178e+09
6.32451e+09
6.27762e+09
6.2311e+09
6.18497e+09
6.13921e+09
6.09382e+09
6.04882e+09
6.00419e+09
5.95994e+09
5.91607e+09
5.87257e+09
5.82946e+09
5.78672e+09
5.74437e+09
5.70239e+09
5.6608e+09
5.61959e+09
5.57877e+09
5.53834e+09
5.49829e+09
5.45863e+09
5.41936e+09
5.38049e+09
5.34201e+09
5.30394e+09
5.26626e+09
5.22898e+09
5.19212e+09
5.15566e+09
5.11961e+09
5.08398e+09
5.04877e+09
5.01399e+09
4.97963e+09
4.94571e+09
4.91222e+09
4.87917e+09
4.84657e+09
4.81442e+09
4.78273e+09
4.7515e+09
4.72074e+09
4.69046e+09
4.66066e+09
4.63135e+09
4.60254e+09
4.57423e+09
4.54644e+09
4.51918e+09
4.49244e+09
4.46626e+09
4.44062e+09
4.41555e+09
4.39105e+09
4.36715e+09
4.34384e+09
4.32115e+09
4.29908e+09
4.27766e+09
4.25689e+09
4.23679e+09
4.21739e+09
4.19868e+09
4.1807e+09
4.16346e+09
4.14698e+09
4.13127e+09
4.11635e+09
4.10225e+09
4.08898e+09
4.07656e+09
4.06501e+09
4.05435e+09
4.04459e+09
4.03576e+09
4.02786e+09
4.02091e+09
4.01493e+09
4.00992e+09
4.00591e+09
4.00289e+09
4.00087e+09
3.99986e+09
7.17364e+09
7.12267e+09
7.06945e+09
7.01668e+09
6.96434e+09
6.91242e+09
6.86089e+09
6.80976e+09
6.75902e+09
6.70868e+09
6.65871e+09
6.60913e+09
6.55993e+09
6.51112e+09
6.46268e+09
6.41462e+09
6.36694e+09
6.31964e+09
6.27271e+09
6.22615e+09
6.17997e+09
6.13417e+09
6.08874e+09
6.04369e+09
5.99901e+09
5.9547e+09
5.91077e+09
5.86721e+09
5.82403e+09
5.78123e+09
5.7388e+09
5.69675e+09
5.65508e+09
5.61379e+09
5.57288e+09
5.53236e+09
5.49222e+09
5.45246e+09
5.4131e+09
5.37412e+09
5.33553e+09
5.29734e+09
5.25955e+09
5.22215e+09
5.18516e+09
5.14857e+09
5.11239e+09
5.07662e+09
5.04127e+09
5.00633e+09
4.97182e+09
4.93774e+09
4.90408e+09
4.87086e+09
4.83809e+09
4.80576e+09
4.77388e+09
4.74246e+09
4.7115e+09
4.68101e+09
4.651e+09
4.62148e+09
4.59244e+09
4.56391e+09
4.53589e+09
4.50838e+09
4.48141e+09
4.45497e+09
4.42907e+09
4.40374e+09
4.37898e+09
4.3548e+09
4.33121e+09
4.30824e+09
4.28589e+09
4.26418e+09
4.24312e+09
4.22273e+09
4.20302e+09
4.18403e+09
4.16575e+09
4.14821e+09
4.13144e+09
4.11544e+09
4.10024e+09
4.08586e+09
4.07232e+09
4.05964e+09
4.04785e+09
4.03695e+09
4.02697e+09
4.01792e+09
4.00984e+09
4.00272e+09
3.99659e+09
3.99146e+09
3.98735e+09
3.98425e+09
3.98218e+09
3.98115e+09
7.16874e+09
7.11775e+09
7.06456e+09
7.01181e+09
6.95948e+09
6.90756e+09
6.85603e+09
6.8049e+09
6.75415e+09
6.70379e+09
6.65382e+09
6.60422e+09
6.555e+09
6.50616e+09
6.4577e+09
6.40961e+09
6.3619e+09
6.31456e+09
6.2676e+09
6.221e+09
6.17478e+09
6.12893e+09
6.08346e+09
6.03835e+09
5.99361e+09
5.94925e+09
5.90526e+09
5.86164e+09
5.81839e+09
5.77552e+09
5.73302e+09
5.69089e+09
5.64914e+09
5.60776e+09
5.56677e+09
5.52615e+09
5.48591e+09
5.44606e+09
5.40659e+09
5.3675e+09
5.3288e+09
5.29049e+09
5.25258e+09
5.21506e+09
5.17793e+09
5.14121e+09
5.10489e+09
5.06898e+09
5.03347e+09
4.99838e+09
4.96371e+09
4.92946e+09
4.89563e+09
4.86224e+09
4.82928e+09
4.79676e+09
4.76468e+09
4.73306e+09
4.7019e+09
4.6712e+09
4.64097e+09
4.61122e+09
4.58196e+09
4.55319e+09
4.52492e+09
4.49716e+09
4.46993e+09
4.44322e+09
4.41706e+09
4.39145e+09
4.36641e+09
4.34194e+09
4.31806e+09
4.29479e+09
4.27214e+09
4.25012e+09
4.22875e+09
4.20805e+09
4.18803e+09
4.16871e+09
4.15012e+09
4.13227e+09
4.11518e+09
4.09887e+09
4.08337e+09
4.06869e+09
4.05486e+09
4.0419e+09
4.02983e+09
4.01868e+09
4.00845e+09
3.99919e+09
3.9909e+09
3.9836e+09
3.97731e+09
3.97204e+09
3.96781e+09
3.96463e+09
3.96251e+09
3.96144e+09
7.16315e+09
7.1125e+09
7.05943e+09
7.00672e+09
6.95442e+09
6.9025e+09
6.85098e+09
6.79985e+09
6.74909e+09
6.69872e+09
6.64873e+09
6.59912e+09
6.54988e+09
6.50102e+09
6.45253e+09
6.40442e+09
6.35667e+09
6.3093e+09
6.2623e+09
6.21566e+09
6.1694e+09
6.1235e+09
6.07797e+09
6.03281e+09
5.98802e+09
5.9436e+09
5.89954e+09
5.85586e+09
5.81254e+09
5.76959e+09
5.72702e+09
5.68481e+09
5.64297e+09
5.60151e+09
5.56042e+09
5.51971e+09
5.47937e+09
5.43942e+09
5.39984e+09
5.36064e+09
5.32183e+09
5.2834e+09
5.24536e+09
5.2077e+09
5.17045e+09
5.13358e+09
5.09712e+09
5.06105e+09
5.02539e+09
4.99014e+09