/*--------------------------------*- C++ -*----------------------------------*\
| =========                 |                                                 |
| \\      /  F ield         | OpenFOAM: The Open Source CFD Toolbox           |
|  \\    /   O peration     | Version:  4.1                                   |
|   \\  /    A nd           | Web:      www.OpenFOAM.org                      |
|    \\/     M anipulation  |                                                 |
\*---------------------------------------------------------------------------*/
FoamFile
{
    version     2.0;
    format      ascii;
    class       volScalarField;
    location    "0.05";
    object      s;
}
// * * * * * * * * * * * * * * * * * * * * * * * * * * * * * * * * * * * * * //

dimensions      [0 0 0 0 0 0 0];

internalField   nonuniform List<scalar> 
43750
(
1
1
1
1
1
1
1
1
1
1
1
1
1
1
0.999999
0.999996
0.999979
0.999905
0.999586
0.998263
0.99295
0.972241
0.894083
0.661033
0.414828
0.240874
0.129976
0.0655321
0.0310139
0.0138298
0.00582919
0.00232871
0.000883801
0.000319314
0.000110024
3.62124e-05
1.1401e-05
3.43785e-06
9.93978e-07
2.75832e-07
7.35315e-08
1.88454e-08
4.6467e-09
1.10295e-09
2.52161e-10
5.55534e-11
1.17987e-11
2.41654e-12
4.77437e-13
9.10129e-14
1.67429e-14
2.97271e-15
5.09452e-16
8.42743e-17
1.34561e-17
2.07369e-18
3.08403e-19
4.42561e-20
6.12651e-21
8.17948e-22
1.05287e-22
1.30617e-23
1.56105e-24
1.7965e-25
1.98973e-26
2.11965e-27
2.17046e-28
2.13473e-29
2.01511e-30
1.82408e-31
1.58185e-32
1.31287e-33
1.04164e-34
7.89101e-36
5.70009e-37
3.92047e-38
2.56338e-39
1.5906e-40
9.3488e-42
5.19399e-43
2.72149e-44
1.34146e-45
6.20307e-47
2.6825e-48
1.0811e-49
4.04466e-51
1.39845e-52
4.44566e-54
1.29175e-55
3.40679e-57
8.08807e-59
1.71129e-60
3.18714e-62
5.14348e-64
7.04628e-66
7.96704e-68
7.13781e-70
4.75065e-72
2.08792e-74
4.54352e-77
1
1
1
1
1
1
1
1
1
1
1
1
1
1
0.999999
0.999996
0.999983
0.999922
0.999661
0.998605
0.994501
0.979038
0.922147
0.732256
0.479465
0.290003
0.162871
0.0853141
0.0418643
0.0193221
0.00841739
0.00347171
0.00135925
0.000506336
0.000179816
6.09851e-05
1.97832e-05
6.1467e-06
1.8314e-06
5.23833e-07
1.43975e-07
3.80574e-08
9.68236e-09
2.37251e-09
5.60251e-10
1.27566e-10
2.80198e-11
5.93948e-12
1.21544e-12
2.40187e-13
4.58454e-14
8.4538e-15
1.50618e-15
2.59305e-16
4.31388e-17
6.93501e-18
1.07727e-18
1.61679e-19
2.34409e-20
3.28247e-21
4.43838e-22
5.7932e-23
7.29678e-24
8.86523e-25
1.03847e-25
1.17226e-26
1.27445e-27
1.33356e-28
1.3421e-29
1.29806e-30
1.20549e-31
1.07393e-32
9.16801e-34
7.49136e-35
5.8517e-36
4.3635e-37
3.10138e-38
2.09756e-39
1.34743e-40
8.20433e-42
4.72435e-43
2.56633e-44
1.3114e-45
6.2842e-47
2.814e-48
1.1728e-49
4.52866e-51
1.61174e-52
5.25488e-54
1.55842e-55
4.16856e-57
9.95456e-59
2.09563e-60
3.82767e-62
5.94055e-64
7.61475e-66
7.73713e-68
5.84046e-70
2.91039e-72
7.17384e-75
1
1
1
1
1
1
1
1
1
1
1
1
1
1
0.999999
0.999996
0.999981
0.999916
0.999639
0.998511
0.994067
0.97706
0.913726
0.708478
0.456609
0.272181
0.150727
0.0779122
0.0377603
0.0172257
0.0074216
0.00302879
0.00117379
0.000432933
0.000152263
5.11503e-05
1.64374e-05
5.05971e-06
1.49362e-06
4.23287e-07
1.1527e-07
3.01892e-08
7.60961e-09
1.84731e-09
4.32152e-10
9.74721e-11
2.12064e-11
4.45212e-12
9.02246e-13
1.76548e-13
3.33641e-14
6.09049e-15
1.07408e-15
1.83007e-16
3.01274e-17
4.79195e-18
7.36369e-19
1.09311e-19
1.56732e-20
2.17012e-21
2.90094e-22
3.74279e-23
4.65909e-24
5.59349e-25
6.47355e-26
7.2187e-27
7.75141e-28
8.00998e-29
7.9598e-30
7.60069e-31
6.96804e-32
6.12722e-33
5.16248e-34
4.16294e-35
3.2088e-36
2.36096e-37
1.65569e-38
1.10482e-39
7.00208e-41
4.20634e-42
2.38972e-43
1.28077e-44
6.45746e-46
3.05329e-47
1.34915e-48
5.54898e-50
2.11472e-51
7.42867e-53
2.39088e-54
7.00014e-56
1.84876e-57
4.35954e-59
9.06365e-61
1.63507e-62
2.50661e-64
3.174e-66
3.18605e-68
2.37606e-70
1.16978e-72
2.84879e-75
1
1
1
1
1
1
1
1
1
1
1
1
1
1
0.999999
0.999996
0.999981
0.999913
0.999618
0.998404
0.993595
0.975196
0.906843
0.692893
0.445208
0.264922
0.146506
0.0756445
0.0366237
0.0166902
0.00718322
0.00292812
0.00113334
0.000417438
0.000146594
4.91672e-05
1.57731e-05
4.84644e-06
1.42793e-06
4.03854e-07
1.09746e-07
2.86785e-08
7.21201e-09
1.7465e-09
4.07502e-10
9.16523e-11
1.98814e-11
4.16116e-12
8.40592e-13
1.63936e-13
3.08726e-14
5.61506e-15
9.86435e-16
1.67396e-16
2.74407e-17
4.34517e-18
6.64583e-19
9.81683e-20
1.40024e-20
1.92818e-21
2.56268e-22
3.28631e-23
4.06473e-24
4.84712e-25
5.57004e-26
6.1649e-27
6.56794e-28
6.73104e-29
6.63086e-30
6.274e-31
5.69672e-32
4.95897e-33
4.13413e-34
3.29686e-35
2.51183e-36
1.82578e-37
1.26418e-38
8.32435e-40
5.20354e-41
3.08135e-42
1.72466e-43
9.10129e-45
4.51574e-46
2.10006e-47
9.12197e-49
3.68622e-50
1.37957e-51
4.75693e-53
1.50213e-54
4.31336e-56
1.11685e-57
2.5812e-59
5.2582e-61
9.29244e-63
1.3953e-64
1.73036e-66
1.70102e-68
1.24237e-70
5.9906e-73
1.42917e-75
1
1
1
1
1
1
1
1
1
1
1
1
1
1
0.999999
0.999996
0.99998
0.999909
0.999607
0.998373
0.993523
0.975037
0.906452
0.692109
0.444541
0.264431
0.146187
0.0754584
0.0365251
0.0166423
0.00716172
0.00291915
0.00112986
0.00041617
0.000146162
4.90282e-05
1.57311e-05
4.83446e-06
1.42471e-06
4.0304e-07
1.09553e-07
2.8636e-08
7.2034e-09
1.74496e-09
4.07292e-10
9.16476e-11
1.98894e-11
4.16463e-12
8.41637e-13
1.64205e-13
3.09352e-14
5.62859e-15
9.89179e-16
1.67923e-16
2.75367e-17
4.36186e-18
6.67353e-19
9.86082e-20
1.40692e-20
1.93791e-21
2.57625e-22
3.30443e-23
4.0879e-24
4.87547e-25
5.6032e-26
6.20194e-27
6.6074e-28
6.77107e-29
6.66943e-30
6.3092e-31
5.72702e-32
4.98344e-33
4.15253e-34
3.30957e-35
2.51972e-36
1.82997e-37
1.26584e-38
8.32588e-40
5.19738e-41
3.07292e-42
1.71691e-43
9.04243e-45
4.47662e-46
2.07677e-47
8.99649e-49
3.62478e-50
1.35223e-51
4.64645e-53
1.46177e-54
4.18072e-56
1.07792e-57
2.48006e-59
5.02838e-61
8.84263e-63
1.32099e-64
1.62957e-66
1.59328e-68
1.15727e-70
5.54918e-73
1.31647e-75
1
1
1
1
1
1
1
1
1
1
1
1
1
1
0.999999
0.999996
0.999981
0.999913
0.999627
0.998464
0.993877
0.976279
0.910534
0.700102
0.449081
0.266659
0.147198
0.0758948
0.0367082
0.0167178
0.00719233
0.00293129
0.00113455
0.000417925
0.000146797
4.92503e-05
1.5806e-05
4.85883e-06
1.43235e-06
4.0535e-07
1.10225e-07
2.88245e-08
7.25433e-09
1.75821e-09
4.10617e-10
9.24528e-11
2.00778e-11
4.20715e-12
8.50898e-13
1.6615e-13
3.13291e-14
5.70552e-15
1.00367e-15
1.70555e-16
2.79978e-17
4.43975e-18
6.80043e-19
1.00601e-19
1.43711e-20
1.98197e-21
2.63822e-22
3.3884e-23
4.19748e-24
5.01312e-25
5.76962e-26
6.39547e-27
6.82379e-28
7.00352e-29
6.90917e-30
6.54637e-31
5.95184e-32
5.18745e-33
4.32954e-34
3.45625e-35
2.63564e-36
1.91721e-37
1.32828e-38
8.74993e-40
5.47032e-41
3.2391e-42
1.81241e-43
9.55904e-45
4.73899e-46
2.20147e-47
9.54927e-49
3.85239e-50
1.43889e-51
4.95004e-53
1.55902e-54
4.46362e-56
1.15202e-57
2.65311e-59
5.38414e-61
9.47643e-63
1.41683e-64
1.74917e-66
1.71151e-68
1.24406e-70
5.96963e-73
1.41725e-75
1
1
1
1
1
1
1
1
1
1
1
1
1
1
0.999999
0.999996
0.999982
0.999918
0.999644
0.998525
0.994119
0.977272
0.914511
0.710088
0.457093
0.271909
0.150211
0.0774542
0.0374507
0.0170503
0.00733297
0.00298789
0.0011563
0.000425933
0.000149625
5.02096e-05
1.61188e-05
4.95694e-06
1.46197e-06
4.13962e-07
1.12638e-07
2.94763e-08
7.42411e-09
1.80088e-09
4.20965e-10
9.48745e-11
2.06248e-11
4.32645e-12
8.76028e-13
1.71264e-13
3.23346e-14
5.89654e-15
1.03874e-15
1.76775e-16
2.9064e-17
4.61633e-18
7.08291e-19
1.04966e-19
1.50223e-20
2.07579e-21
2.76865e-22
3.56335e-23
4.42378e-24
5.29528e-25
6.10852e-26
6.78734e-27
7.25967e-28
7.46962e-29
7.38795e-30
7.01848e-31
6.39836e-32
5.59213e-33
4.68062e-34
3.74747e-35
2.86631e-36
2.09145e-37
1.45359e-38
9.60659e-40
6.02587e-41
3.58015e-42
2.01015e-43
1.06392e-44
5.29328e-46
2.46784e-47
1.07437e-48
4.35024e-50
1.63088e-51
5.63148e-53
1.7803e-54
5.11634e-56
1.32546e-57
3.06401e-59
6.24135e-61
1.10262e-62
1.65467e-64
2.05034e-66
2.01354e-68
1.46891e-70
7.07396e-73
1.68543e-75
1
1
1
1
1
1
1
1
1
1
1
1
1
1
0.999999
0.999997
0.999984
0.999925
0.99967
0.998601
0.994291
0.977519
0.914442
0.708802
0.455758
0.27107
0.149823
0.0773204
0.0374235
0.0170534
0.00734082
0.00299365
0.0011595
0.000427465
0.000150288
5.04752e-05
1.62184e-05
4.99214e-06
1.47376e-06
4.1772e-07
1.1378e-07
2.98078e-08
7.51625e-09
1.82542e-09
4.27238e-10
9.64146e-11
2.09882e-11
4.40895e-12
8.94054e-13
1.75057e-13
3.31037e-14
6.04685e-15
1.06706e-15
1.81922e-16
2.9966e-17
4.76881e-18
7.33157e-19
1.08878e-19
1.56158e-20
2.16262e-21
2.89117e-22
3.72997e-23
4.64213e-24
5.57094e-25
6.44363e-26
7.17943e-27
7.701e-28
7.94719e-29
7.88441e-30
7.51386e-31
6.8724e-32
6.02671e-33
5.06191e-34
4.06725e-35
3.12236e-36
2.2869e-37
1.5956e-38
1.05872e-39
6.66808e-41
3.9783e-42
2.24328e-43
1.19252e-44
5.95969e-46
2.79126e-47
1.22086e-48
4.96694e-50
1.87113e-51
6.493e-53
2.06297e-54
5.95897e-56
1.55174e-57
3.60593e-59
7.38423e-61
1.31152e-62
1.97881e-64
2.46536e-66
2.43439e-68
1.78572e-70
8.64715e-73
2.07167e-75
1
1
1
1
1
1
1
1
1
1
1
1
1
1
0.999999
0.999996
0.999983
0.999921
0.999654
0.998559
0.994207
0.977445
0.914704
0.709945
0.456767
0.271763
0.150246
0.07756
0.0375518
0.0171185
0.00737233
0.00300814
0.00116582
0.00043008
0.000151314
5.08574e-05
1.63539e-05
5.03799e-06
1.48858e-06
4.22298e-07
1.15135e-07
3.01923e-08
7.62098e-09
1.85283e-09
4.34133e-10
9.80837e-11
2.13772e-11
4.49626e-12
9.1294e-13
1.78995e-13
3.38958e-14
6.20051e-15
1.09582e-15
1.87117e-16
3.08716e-17
4.92115e-18
7.57891e-19
1.12753e-19
1.62018e-20
2.2481e-21
3.01147e-22
3.89329e-23
4.85592e-24
5.84066e-25
6.77146e-26
7.56309e-27
8.13307e-28
8.41511e-29
8.37137e-30
8.00044e-31
7.3388e-32
6.45515e-33
5.43868e-34
4.38405e-35
3.37673e-36
2.48167e-37
1.73759e-38
1.15709e-39
7.31477e-41
4.38075e-42
2.47985e-43
1.32354e-44
6.6415e-46
3.12356e-47
1.37201e-48
5.60606e-50
2.1212e-51
7.39372e-53
2.35983e-54
6.84783e-56
1.79152e-57
4.18273e-59
8.6061e-61
1.53586e-62
2.32846e-64
2.91503e-66
2.8924e-68
2.132e-70
1.03742e-72
2.49753e-75
1
1
1
1
1
1
1
1
1
1
1
1
1
1
0.999999
0.999996
0.999983
0.999923
0.999668
0.998629
0.99454
0.978892
0.920509
0.724941
0.468565
0.279385
0.154609
0.0798241
0.0386375
0.0176064
0.0075803
0.00309249
0.00119854
0.000442244
0.000155654
5.23438e-05
1.68431e-05
5.19282e-06
1.53573e-06
4.36124e-07
1.1904e-07
3.12555e-08
7.89998e-09
1.92344e-09
4.51374e-10
1.02146e-10
2.2301e-11
4.69909e-12
9.55944e-13
1.87801e-13
3.56376e-14
6.53335e-15
1.15727e-15
1.98077e-16
3.27603e-17
5.2356e-18
8.08465e-19
1.2061e-19
1.73803e-20
2.41878e-21
3.24999e-22
4.21482e-23
5.27388e-24
6.36436e-25
7.40367e-26
8.29806e-27
8.95539e-28
9.30001e-29
9.28658e-30
8.90946e-31
8.20511e-32
7.24656e-33
6.13097e-34
4.96327e-35
3.83964e-36
2.83455e-37
1.9938e-38
1.33396e-39
8.47341e-41
5.09959e-42
2.90126e-43
1.55638e-44
7.85061e-46
3.71183e-47
1.63922e-48
6.73467e-50
2.56244e-51
8.98227e-53
2.88326e-54
8.41527e-56
2.21449e-57
5.20083e-59
1.07647e-60
1.93263e-62
2.94766e-64
3.71258e-66
3.70614e-68
2.74845e-70
1.34552e-72
3.25898e-75
1
1
1
1
1
1
1
1
1
1
1
1
1
1
0.999999
0.999996
0.999982
0.999919
0.999652
0.998565
0.994302
0.978049
0.917645
0.718408
0.464433
0.277281
0.153686
0.0794798
0.0385336
0.017586
0.00758132
0.00309699
0.00120184
0.000444026
0.000156487
5.27046e-05
1.69848e-05
5.24425e-06
1.55319e-06
4.4171e-07
1.20735e-07
3.17449e-08
8.0351e-09
1.95918e-09
4.6045e-10
1.04362e-10
2.2822e-11
4.81708e-12
9.81707e-13
1.93226e-13
3.67396e-14
6.74934e-15
1.19812e-15
2.05536e-16
3.40746e-17
5.45914e-18
8.45158e-19
1.26422e-19
1.82689e-20
2.54983e-21
3.43646e-22
4.47072e-23
5.61245e-24
6.79606e-25
7.9339e-26
8.92503e-27
9.66872e-28
1.00804e-28
1.01069e-29
9.73737e-31
9.00663e-32
7.9902e-33
6.79145e-34
5.5242e-35
4.29457e-36
3.18642e-37
2.25293e-38
1.51536e-39
9.67831e-41
5.85735e-42
3.35146e-43
1.80843e-44
9.17659e-46
4.36526e-47
1.93979e-48
8.02006e-50
3.07119e-51
1.08361e-52
3.50141e-54
1.02882e-55
2.72577e-57
6.44559e-59
1.34336e-60
2.42862e-62
3.73019e-64
4.7313e-66
4.75651e-68
3.55237e-70
1.7514e-72
4.27205e-75
1
1
1
1
1
1
1
1
1
1
1
1
1
1
0.999999
0.999996
0.99998
0.99991
0.99961
0.9984
0.993694
0.975943
0.910581
0.702976
0.454454
0.27189
0.151107
0.078372
0.0380997
0.0174314
0.00753199
0.00308278
0.0011983
0.000443359
0.000156446
5.27478e-05
1.7019e-05
5.26172e-06
1.56084e-06
4.44706e-07
1.21779e-07
3.20799e-08
8.1355e-09
1.98755e-09
4.68054e-10
1.06303e-10
2.32953e-11
4.9276e-12
1.00646e-12
1.98552e-13
3.78416e-14
6.96879e-15
1.24021e-15
2.13312e-16
3.54597e-17
5.69698e-18
8.84542e-19
1.32711e-19
1.92373e-20
2.69365e-21
3.64237e-22
4.75491e-23
5.99046e-24
7.28045e-25
8.53167e-26
9.63511e-27
1.04802e-27
1.09721e-28
1.10483e-29
1.06916e-30
9.93453e-32
8.85489e-33
7.56291e-34
6.18238e-35
4.83088e-36
3.60321e-37
2.56139e-38
1.73239e-39
1.11273e-40
6.77347e-42
3.89873e-43
2.11654e-44
1.08069e-45
5.17345e-47
2.31381e-48
9.62959e-50
3.7123e-51
1.31875e-52
4.29077e-54
1.26962e-55
3.38772e-57
8.06866e-59
1.69389e-60
3.08487e-62
4.77329e-64
6.0996e-66
6.17819e-68
4.64899e-70
2.30943e-72
5.67603e-75
1
1
1
1
1
1
1
1
1
1
1
1
1
1
0.999999
0.999996
0.99998
0.999907
0.999595
0.998309
0.993243
0.973965
0.902756
0.685344
0.441543
0.263854
0.146654
0.0761493
0.0370949
0.0170142
0.00737165
0.00302555
0.00117928
0.000437532
0.000154837
5.23476e-05
1.69328e-05
5.24764e-06
1.56006e-06
4.45396e-07
1.22229e-07
3.22692e-08
8.20205e-09
2.00849e-09
4.74119e-10
1.07946e-10
2.37152e-11
5.02947e-12
1.03001e-12
2.03753e-13
3.89418e-14
7.1921e-15
1.28375e-15
2.21475e-16
3.69321e-17
5.95274e-18
9.27331e-19
1.39609e-19
2.03089e-20
2.85407e-21
3.87382e-22
5.07669e-23
6.42147e-24
7.83651e-25
9.22238e-26
1.04608e-26
1.14298e-27
1.20219e-28
1.21635e-29
1.18288e-30
1.10469e-31
9.89763e-33
8.49873e-34
6.98551e-35
5.48918e-36
4.11784e-37
2.94451e-38
2.00355e-39
1.29484e-40
7.93176e-42
4.59479e-43
2.51077e-44
1.29053e-45
6.21986e-47
2.80096e-48
1.17383e-49
4.55721e-51
1.63046e-52
5.34322e-54
1.59253e-55
4.28043e-57
1.02698e-58
2.17189e-60
3.98461e-62
6.21098e-64
7.99522e-66
8.15761e-68
6.1832e-70
3.09377e-72
7.65827e-75
1
1
1
1
1
1
1
1
1
1
1
1
1
1
0.999999
0.999996
0.999981
0.999913
0.999618
0.998397
0.993525
0.974747
0.904704
0.688007
0.442322
0.263835
0.146455
0.0759917
0.0370068
0.0169749
0.00735733
0.00302161
0.00117877
0.000437759
0.000155061
5.24772e-05
1.69941e-05
5.27306e-06
1.56964e-06
4.48785e-07
1.23369e-07
3.26325e-08
8.31129e-09
2.03962e-09
4.82559e-10
1.10128e-10
2.42545e-11
5.15708e-12
1.05897e-12
2.10065e-13
4.02641e-14
7.45858e-15
1.33545e-15
2.31138e-16
3.86727e-17
6.25494e-18
9.77924e-19
1.47777e-19
2.15806e-20
3.045e-21
4.15025e-22
5.46253e-23
6.94054e-24
8.50936e-25
1.00624e-25
1.14706e-26
1.25977e-27
1.33209e-28
1.3552e-29
1.3254e-30
1.24505e-31
1.12227e-32
9.69666e-34
8.02136e-35
6.34482e-36
4.7921e-37
3.4506e-38
2.36477e-39
1.53955e-40
9.50199e-42
5.54701e-43
3.0551e-44
1.58303e-45
7.69273e-47
3.49348e-48
1.47665e-49
5.7831e-51
2.08749e-52
6.90293e-54
2.0763e-55
5.6327e-57
1.36417e-58
2.91247e-60
5.39471e-62
8.49057e-64
1.10365e-65
1.13713e-67
8.7042e-70
4.3983e-72
1.09957e-74
1
1
1
1
1
1
1
1
1
1
1
1
1
1
0.999999
0.999996
0.999982
0.999916
0.999635
0.998488
0.993951
0.976488
0.911061
0.700991
0.449917
0.267686
0.148277
0.0768101
0.0373609
0.0171242
0.00741905
0.00304667
0.00118879
0.000441702
0.000156573
5.30384e-05
1.7195e-05
5.34227e-06
1.59252e-06
4.55986e-07
1.25525e-07
3.3249e-08
8.48062e-09
2.08436e-09
4.93941e-10
1.12923e-10
2.49168e-11
5.30865e-12
1.09246e-12
2.1721e-13
4.17362e-14
7.75143e-15
1.3917e-15
2.41571e-16
4.05409e-17
6.57794e-18
1.03184e-18
1.56465e-19
2.29319e-20
3.24785e-21
4.44407e-22
5.87309e-23
7.49378e-24
9.22805e-25
1.09621e-25
1.25554e-26
1.38568e-27
1.47269e-28
1.50612e-29
1.48104e-30
1.3991e-31
1.26849e-32
1.1026e-33
9.17767e-35
7.30597e-36
5.55445e-37
4.02672e-38
2.77888e-39
1.82214e-40
1.1329e-41
6.66355e-43
3.69846e-44
1.93157e-45
9.46243e-47
4.33263e-48
1.84678e-49
7.29461e-51
2.65603e-52
8.86065e-54
2.68904e-55
7.36113e-57
1.79911e-58
3.87657e-60
7.24736e-62
1.15132e-63
1.5106e-65
1.57108e-67
1.21391e-69
6.19162e-72
1.56241e-74
1
1
1
1
1
1
1
1
1
1
1
1
1
1
0.999999
0.999996
0.999982
0.99992
0.999658
0.998596
0.994416
0.978396
0.91852
0.719691
0.464623
0.277073
0.153547
0.079493
0.0386268
0.0176859
0.00765583
0.00314208
0.00122566
0.000455395
0.000161467
5.47243e-05
1.77551e-05
5.52183e-06
1.64806e-06
4.72546e-07
1.30286e-07
3.457e-08
8.8343e-09
2.17575e-09
5.16736e-10
1.18403e-10
2.61877e-11
5.59299e-12
1.15387e-12
2.3002e-13
4.43172e-14
8.25396e-15
1.48627e-15
2.58773e-16
4.3566e-17
7.09224e-18
1.11636e-18
1.69892e-19
2.49932e-20
3.55365e-21
4.8823e-22
6.47954e-23
8.30398e-24
1.02725e-24
1.22608e-25
1.41121e-26
1.56544e-27
1.67255e-28
1.71992e-29
1.70088e-30
1.61622e-31
1.47424e-32
1.28948e-33
1.08028e-34
8.65715e-36
6.62705e-37
4.83841e-38
3.36342e-39
2.222e-40
1.39217e-41
8.25338e-43
4.61806e-44
2.4319e-45
1.20148e-46
5.54911e-48
2.38627e-49
9.51078e-51
3.49483e-52
1.17679e-53
3.60523e-55
9.96406e-57
2.45897e-58
5.35046e-60
1.01019e-61
1.6208e-63
2.14792e-65
2.25638e-67
1.76097e-69
9.07239e-72
2.3124e-74
1
1
1
1
1
1
1
1
1
1
1
1
1
1
0.999999
0.999996
0.999982
0.999919
0.999655
0.998588
0.99442
0.978553
0.919548
0.723244
0.468635
0.280471
0.155937
0.0809523
0.0394249
0.0180857
0.00784196
0.00322338
0.0012592
0.000468513
0.000166352
5.64609e-05
1.83454e-05
5.71409e-06
1.70813e-06
4.90578e-07
1.35494e-07
3.60184e-08
9.22252e-09
2.27608e-09
5.4175e-10
1.24426e-10
2.75885e-11
5.90777e-12
1.22222e-12
2.4436e-13
4.72251e-14
8.82394e-15
1.59426e-15
2.78553e-16
4.70682e-17
7.69165e-18
1.21553e-18
1.85748e-19
2.74433e-20
3.91942e-21
5.40974e-22
7.21401e-23
9.29127e-24
1.15531e-24
1.38629e-25
1.60442e-26
1.78995e-27
1.92372e-28
1.99028e-29
1.98067e-30
1.89433e-31
1.73952e-32
1.53206e-33
1.29266e-34
1.04352e-35
8.04859e-37
5.92197e-38
4.14958e-39
2.76387e-40
1.74627e-41
1.04421e-42
5.89447e-44
3.13221e-45
1.56182e-46
7.28177e-48
3.16168e-49
1.27257e-50
4.72321e-52
1.60671e-53
4.97357e-55
1.38912e-56
3.46489e-58
7.62114e-60
1.45472e-61
2.35994e-63
3.16245e-65
3.35962e-67
2.65173e-69
1.38173e-71
3.56209e-74
1
1
1
1
1
1
1
1
1
1
1
1
1
1
0.999999
0.999996
0.999982
0.99992
0.999657
0.998593
0.994421
0.978527
0.919454
0.723152
0.46898
0.281064
0.156516
0.0813941
0.0397208
0.0182575
0.00793167
0.00326648
0.0012785
0.000476629
0.000169574
5.76729e-05
1.8779e-05
5.8619e-06
1.75626e-06
5.05579e-07
1.39974e-07
3.73026e-08
9.57618e-09
2.36974e-09
5.65626e-10
1.30289e-10
2.89763e-11
6.22456e-12
1.29199e-12
2.59195e-13
5.02707e-14
9.42777e-15
1.70991e-15
2.99952e-16
5.08941e-17
8.35259e-18
1.32586e-18
2.03543e-19
3.02163e-20
4.33682e-21
6.01654e-22
8.06574e-23
1.04452e-23
1.30616e-24
1.57648e-25
1.83558e-26
2.06062e-27
2.2289e-28
2.32133e-29
2.32594e-30
2.24024e-31
2.07209e-32
1.83857e-33
1.56317e-34
1.27183e-35
9.88866e-37
7.33603e-38
5.18394e-39
3.48272e-40
2.21991e-41
1.33941e-42
7.63041e-44
4.09262e-45
2.06013e-46
9.69788e-48
4.25199e-49
1.72839e-50
6.47939e-52
2.22644e-53
6.96239e-55
1.96462e-56
4.95111e-58
1.10035e-59
2.12228e-61
3.47895e-63
4.71089e-65
5.05713e-67
4.03344e-69
2.1237e-71
5.53219e-74
1
1
1
1
1
1
1
1
1
1
1
1
1
1
0.999999
0.999997
0.999983
0.999924
0.999667
0.998608
0.994409
0.978302
0.918324
0.720392
0.467424
0.280415
0.156331
0.0813822
0.0397523
0.0182949
0.00796086
0.00328373
0.00128731
0.000480723
0.000171338
5.83855e-05
1.90504e-05
5.95975e-06
1.78976e-06
5.16496e-07
1.43369e-07
3.83118e-08
9.86344e-09
2.44816e-09
5.86178e-10
1.35467e-10
3.02312e-11
6.51741e-12
1.35784e-12
2.73469e-13
5.3255e-14
1.00298e-14
1.82715e-15
3.21994e-16
5.48956e-17
9.05421e-18
1.44467e-18
2.22977e-19
3.32863e-20
4.80517e-21
6.7064e-22
9.04667e-23
1.17913e-23
1.48437e-24
1.80399e-25
2.11555e-26
2.39255e-27
2.60778e-28
2.73745e-29
2.76533e-30
2.68594e-31
2.50598e-32
2.24353e-33
1.92511e-34
1.58123e-35
1.24147e-36
9.30271e-38
6.6416e-39
4.50931e-40
2.90547e-41
1.77253e-42
1.02124e-43
5.54096e-45
2.8221e-46
1.34442e-47
5.96628e-49
2.45512e-50
9.31828e-52
3.24205e-53
1.02659e-54
2.93325e-56
7.48508e-58
1.68429e-59
3.28879e-61
5.45712e-63
7.4786e-65
8.12316e-67
6.55371e-69
3.48954e-71
9.18975e-74
1
1
1
1
1
1
1
1
1
1
1
1
1
1
0.999999
0.999996
0.999982
0.99992
0.999653
0.99856
0.994242
0.977695
0.91608
0.714763
0.463239
0.278004
0.155197
0.0809601
0.0396313
0.0182754
0.00796575
0.00329141
0.00129255
0.000483496
0.000172622
5.89255e-05
1.9261e-05
6.03686e-06
1.81644e-06
5.2526e-07
1.46113e-07
3.91325e-08
1.00985e-08
2.5127e-09
6.03197e-10
1.39781e-10
3.12832e-11
6.76451e-12
1.41377e-12
2.85674e-13
5.58245e-14
1.05519e-14
1.92957e-15
3.41395e-16
5.84456e-17
9.68172e-18
1.55184e-18
2.40658e-19
3.61046e-20
5.23913e-21
7.35181e-22
9.97357e-23
1.30764e-23
1.65632e-24
2.02595e-25
2.39182e-26
2.72394e-27
2.99064e-28
3.16321e-29
3.22068e-30
3.15394e-31
2.96777e-32
2.68056e-33
2.32133e-34
1.92492e-35
1.52632e-36
1.1555e-37
8.33775e-39
5.72356e-40
3.73014e-41
2.30266e-42
1.34299e-43
7.37942e-45
3.80799e-46
1.83882e-47
8.27555e-49
3.45515e-50
1.33122e-51
4.70423e-53
1.5137e-54
4.3972e-56
1.1413e-57
2.61323e-59
5.19418e-61
8.77626e-63
1.22506e-64
1.35567e-66
1.11454e-68
6.048e-71
1.62338e-73
1
1
1
1
1
1
1
1
1
1
1
1
1
1
0.999999
0.999996
0.999983
0.999924
0.999672
0.998645
0.994586
0.978971
0.920499
0.724831
0.469645
0.281357
0.156784
0.0816658
0.0399423
0.0184139
0.00802872
0.00332031
0.00130553
0.000489103
0.000174919
5.98215e-05
1.9594e-05
6.15466e-06
1.85617e-06
5.38062e-07
1.50059e-07
4.02976e-08
1.04285e-08
2.60248e-09
6.26674e-10
1.45688e-10
3.27144e-11
7.09862e-12
1.48897e-12
3.02001e-13
5.92455e-14
1.12439e-14
2.06475e-15
3.66903e-16
6.30957e-17
1.05008e-17
1.69126e-18
2.63592e-19
3.97497e-20
5.79891e-21
8.1823e-22
1.11636e-22
1.4723e-23
1.87625e-24
2.30938e-25
2.74411e-26
3.14604e-27
3.47788e-28
3.70467e-29
3.79956e-30
3.74879e-31
3.55477e-32
3.23623e-33
2.82535e-34
2.36242e-35
1.88923e-36
1.44272e-37
1.05029e-38
7.27528e-40
4.78515e-41
2.98157e-42
1.75542e-43
9.73778e-45
5.07328e-46
2.47344e-47
1.12389e-48
4.73736e-50
1.84258e-51
6.57211e-53
2.13534e-54
6.2667e-56
1.64406e-57
3.80678e-59
7.65539e-61
1.30927e-62
1.85069e-64
2.07482e-66
1.72881e-68
9.51189e-71
2.58971e-73
1
1
1
1
1
1
1
1
1
1
1
1
1
1
0.999999
0.999996
0.999982
0.999919
0.999652
0.998579
0.994413
0.978669
0.920341
0.726099
0.472273
0.283985
0.158781
0.0829305
0.0406452
0.0187695
0.0081961
0.00339452
0.00133682
0.000501695
0.000179763
6.15982e-05
2.02162e-05
6.36345e-06
1.92344e-06
5.58889e-07
1.56262e-07
4.20764e-08
1.09198e-08
2.73331e-09
6.60273e-10
1.54014e-10
3.47064e-11
7.55885e-12
1.5917e-12
3.24161e-13
6.38662e-14
1.21755e-14
2.24635e-15
4.01141e-16
6.9339e-17
1.16019e-17
1.87909e-18
2.9458e-19
4.46936e-20
6.56155e-21
9.31956e-22
1.28027e-22
1.70053e-23
2.18319e-24
2.70791e-25
3.24342e-26
3.7494e-27
4.18063e-28
4.49307e-29
4.65087e-30
4.63282e-31
4.43677e-32
4.08083e-33
3.60073e-34
3.04399e-35
2.46207e-36
1.90237e-37
1.4018e-38
9.83244e-40
6.55112e-41
4.13663e-42
2.46912e-43
1.38917e-44
7.34337e-46
3.63406e-47
1.67675e-48
7.17964e-50
2.83773e-51
1.02892e-52
3.39658e-54
1.01205e-55
2.69383e-57
6.3245e-59
1.2888e-60
2.23227e-62
3.19387e-64
3.62247e-66
3.05217e-68
1.69737e-70
4.6695e-73
1
1
1
1
1
1
1
1
1
1
1
1
1
1
0.999999
0.999996
0.999982
0.999918
0.999647
0.998551
0.994285
0.978171
0.918778
0.722973
0.470911
0.283706
0.158925
0.0831755
0.0408566
0.0189112
0.00827676
0.00343536
0.00135572
0.000509824
0.00018305
6.28592e-05
2.06766e-05
6.5237e-06
1.97671e-06
5.75831e-07
1.61427e-07
4.3588e-08
1.1345e-08
2.84835e-09
6.90249e-10
1.61541e-10
3.65288e-11
7.9846e-12
1.68771e-12
3.45073e-13
6.82665e-14
1.30703e-14
2.42225e-15
4.34572e-16
7.54833e-17
1.26941e-17
2.06683e-18
3.25793e-19
4.97122e-20
7.34182e-21
1.04924e-21
1.45069e-22
1.93982e-23
2.50775e-24
3.13302e-25
3.78085e-26
4.40483e-27
4.95128e-28
5.36612e-29
5.60307e-30
5.63182e-31
5.44406e-32
5.05591e-33
4.50591e-34
3.8488e-35
3.14647e-36
2.45818e-37
1.83213e-38
1.30029e-39
8.76936e-41
5.60708e-42
3.39031e-43
1.93301e-44
1.03595e-45
5.1998e-47
2.43453e-48
1.05831e-49
4.2488e-51
1.56569e-52
5.25748e-54
1.59481e-55
4.32471e-57
1.035e-58
2.15089e-60
3.80042e-62
5.54787e-64
6.42012e-66
5.51836e-68
3.12978e-70
8.77633e-73
1
1
1
1
1
1
1
1
1
1
1
1
1
1
0.999999
0.999996
0.999982
0.99992
0.999657
0.998591
0.994416
0.978541
0.91969
0.724661
0.472086
0.284519
0.159532
0.0836126
0.0411361
0.0190731
0.00836291
0.00347788
0.00137532
0.000518314
0.000186524
6.42061e-05
2.11731e-05
6.69806e-06
2.03517e-06
5.9458e-07
1.67188e-07
4.5286e-08
1.18258e-08
2.97927e-09
7.24566e-10
1.70207e-10
3.86388e-11
8.48024e-12
1.8001e-12
3.69683e-13
7.34732e-14
1.41349e-14
2.63268e-15
4.74793e-16
8.29175e-17
1.40231e-17
2.29663e-18
3.64224e-19
5.59284e-20
8.31419e-21
1.19632e-21
1.66573e-22
2.2437e-23
2.92265e-24
3.68011e-25
4.47727e-26
5.26019e-27
5.96436e-28
6.52239e-29
6.8739e-30
6.97571e-31
6.81015e-32
6.38941e-33
5.75446e-34
4.96867e-35
4.10734e-36
3.24562e-37
2.44742e-38
1.75781e-39
1.2e-40
7.76813e-42
4.75613e-43
2.74618e-44
1.49048e-45
7.57628e-47
3.59183e-48
1.58073e-49
6.4229e-51
2.39453e-52
8.13545e-54
2.49884e-55
6.86691e-57
1.66675e-58
3.51584e-60
6.3106e-62
9.36578e-64
1.10279e-65
9.65261e-68
5.57924e-70
1.59586e-72
1
1
1
1
1
1
1
1
1
1
1
1
1
1
0.999999
0.999996
0.999983
0.999923
0.999669
0.998628
0.994524
0.978832
0.920487
0.726322
0.473328
0.285429
0.160149
0.0840085
0.041399
0.0192311
0.0084494
0.00352158
0.00139589
0.000527391
0.000190293
6.5685e-05
2.17232e-05
6.89265e-06
2.10079e-06
6.15724e-07
1.7371e-07
4.72149e-08
1.23735e-08
3.12881e-09
7.63855e-10
1.8015e-10
4.1065e-11
9.05133e-12
1.92987e-12
3.98165e-13
7.95135e-14
1.53732e-14
2.87818e-15
5.21866e-16
9.16498e-17
1.55904e-17
2.56883e-18
4.09968e-19
6.3367e-20
9.48451e-21
1.37444e-21
1.92794e-22
2.61693e-23
3.43619e-24
4.36287e-25
5.35402e-26
6.34707e-27
7.26435e-28
8.02162e-29
8.53981e-30
8.75786e-31
8.64398e-32
8.2027e-33
7.4755e-34
6.53471e-35
5.4717e-36
4.38199e-37
3.35081e-38
2.44205e-39
1.69277e-40
1.11351e-41
6.93336e-43
4.07499e-44
2.25335e-45
1.16804e-46
5.65202e-48
2.54106e-49
1.05567e-50
4.02721e-52
1.39995e-53
4.39467e-55
1.23284e-56
3.05127e-58
6.55553e-60
1.19706e-61
1.80527e-63
2.15729e-65
1.9139e-67
1.11982e-69
3.23756e-72
1
1
1
1
1
1
1
1
1
1
1
1
1
1
0.999999
0.999996
0.999982
0.999916
0.999634
0.998485
0.994013
0.977227
0.915795
0.717189
0.468711
0.28369
0.159626
0.0839081
0.0414091
0.0192723
0.00848814
0.00354625
0.00140905
0.000533669
0.000193049
6.68152e-05
2.21595e-05
7.05211e-06
2.15616e-06
6.3404e-07
1.79496e-07
4.8964e-08
1.28803e-08
3.26972e-09
8.01513e-10
1.89834e-10
4.3463e-11
9.62379e-12
2.0617e-12
4.27467e-13
8.5804e-14
1.6678e-14
3.13975e-15
5.72567e-16
1.01153e-16
1.73134e-17
2.87101e-18
4.61235e-19
7.17812e-20
1.08204e-20
1.57957e-21
2.23256e-22
3.05428e-23
4.04307e-24
5.17653e-25
6.40756e-26
7.66386e-27
8.85209e-28
9.86732e-29
1.06068e-29
1.0986e-30
1.09537e-31
1.05029e-32
9.67344e-34
8.54738e-35
7.23531e-36
5.85842e-37
4.52958e-38
3.33781e-39
2.33923e-40
1.55549e-41
9.78823e-43
5.81169e-44
3.24882e-45
1.70387e-46
8.34907e-48
3.80439e-49
1.60334e-50
6.21071e-52
2.19497e-53
7.01591e-55
2.00691e-56
5.07159e-58
1.11395e-59
2.08205e-61
3.21768e-63
3.9448e-65
3.59448e-67
2.16227e-69
6.43511e-72
1
1
1
1
1
1
1
1
1
1
1
1
1
1
0.999999
0.999996
0.999982
0.999917
0.99964
0.998506
0.994041
0.977036
0.914111
0.711725
0.463936
0.280596
0.15811
0.0833383
0.041252
0.0192484
0.00849643
0.00355807
0.00141723
0.000538139
0.000195184
6.77417e-05
2.25323e-05
7.19273e-06
2.20626e-06
6.5099e-07
1.84959e-07
5.06459e-08
1.33761e-08
3.40989e-09
8.39566e-10
1.99766e-10
4.59578e-11
1.02274e-11
2.20248e-12
4.59142e-13
9.26832e-14
1.81211e-14
3.43229e-15
6.29899e-16
1.1202e-16
1.93058e-17
3.22448e-18
5.21916e-19
8.1862e-20
1.2441e-20
1.83167e-21
2.61196e-22
3.6066e-23
4.82061e-24
6.23468e-25
7.79911e-26
9.43141e-27
1.10195e-27
1.24314e-28
1.35312e-29
1.41991e-30
1.43518e-31
1.39583e-32
1.30485e-33
1.17099e-34
1.00744e-35
8.29662e-37
6.52934e-38
4.90136e-39
3.50222e-40
2.37658e-41
1.52766e-42
9.27518e-44
5.29854e-45
2.83763e-46
1.41896e-47
6.59473e-49
2.83354e-50
1.11864e-51
4.02814e-53
1.31138e-54
3.8188e-56
9.81786e-58
2.19209e-59
4.16079e-61
6.52241e-63
8.09983e-65
7.47686e-67
4.56375e-69
1.37997e-71
1
1
1
1
1
1
1
1
1
1
1
1
1
1
0.999999
0.999996
0.999983
0.999921
0.999662
0.998602
0.994396
0.978157
0.917286
0.71752
0.466775
0.281772
0.15856
0.0835259
0.0413498
0.0193065
0.00853174
0.00357831
0.00142766
0.000543057
0.000197333
6.86197e-05
2.28702e-05
7.31617e-06
2.24919e-06
6.65237e-07
1.89483e-07
5.20232e-08
1.37786e-08
3.52301e-09
8.70174e-10
2.07749e-10
4.7967e-11
1.07157e-11
2.31715e-12
4.85171e-13
9.83954e-14
1.93332e-14
3.68104e-15
6.79273e-16
1.21499e-16
2.10663e-17
3.54081e-18
5.76906e-19
9.11109e-20
1.39461e-20
2.06862e-21
2.97284e-22
4.13818e-23
5.57779e-24
7.27731e-25
9.18649e-26
1.12147e-26
1.32324e-27
1.50811e-28
1.65906e-29
1.76026e-30
1.79967e-31
1.77126e-32
1.67634e-33
1.52371e-34
1.32835e-35
1.10902e-36
8.8521e-38
6.7426e-39
4.89078e-40
3.37046e-41
2.20107e-42
1.35815e-43
7.89215e-45
4.30286e-46
2.19178e-47
1.03806e-48
4.54596e-50
1.82909e-51
6.71298e-53
2.2311e-54
6.6449e-56
1.75036e-57
4.01131e-59
7.82875e-61
1.26408e-62
1.61985e-64
1.54224e-66
9.68711e-69
3.00896e-71
1
1
1
1
1
1
1
1
1
1
1
1
1
1
0.999999
0.999997
0.999983
0.999924
0.999673
0.99866
0.994717
0.979746
0.924121
0.735426
0.479593
0.289153
0.162346
0.0853265
0.0421706
0.0196729
0.00869157
0.00364677
0.00145654
0.000554945
0.000202069
7.04371e-05
2.35399e-05
7.55236e-06
2.32899e-06
6.911e-07
1.9753e-07
5.44296e-08
1.4471e-08
3.71481e-09
9.21374e-10
2.20928e-10
5.124e-11
1.15004e-11
2.49885e-12
5.25835e-13
1.07195e-13
2.11754e-14
4.05428e-15
7.52482e-16
1.35405e-16
2.36247e-17
3.99675e-18
6.55622e-19
1.04276e-19
1.60789e-20
2.40331e-21
3.48143e-22
4.88646e-23
6.64342e-24
8.74572e-25
1.11436e-25
1.37366e-26
1.63725e-27
1.88568e-28
2.09719e-29
2.25053e-30
2.32827e-31
2.31986e-32
2.22382e-33
2.04845e-34
1.81077e-35
1.5338e-36
1.24286e-37
9.61686e-39
7.0911e-40
4.97133e-41
3.30525e-42
2.0781e-43
1.23156e-44
6.85471e-46
3.5683e-47
1.72906e-48
7.75664e-50
3.20088e-51
1.20568e-52
4.10507e-54
1.24995e-55
3.35969e-57
7.84148e-59
1.5577e-60
2.56443e-62
3.35554e-64
3.26812e-66
2.10321e-68
6.69996e-71
1
1
1
1
1
1
1
1
1
1
1
1
1
1
0.999999
0.999997