/*--------------------------------*- C++ -*----------------------------------*\
| =========                 |                                                 |
| \\      /  F ield         | OpenFOAM: The Open Source CFD Toolbox           |
|  \\    /   O peration     | Version:  4.1                                   |
|   \\  /    A nd           | Web:      www.OpenFOAM.org                      |
|    \\/     M anipulation  |                                                 |
\*---------------------------------------------------------------------------*/
FoamFile
{
    version     2.0;
    format      ascii;
    class       volScalarField;
    location    "0.05";
    object      s_0;
}
// * * * * * * * * * * * * * * * * * * * * * * * * * * * * * * * * * * * * * //

dimensions      [0 0 0 0 0 0 0];

internalField   nonuniform List<scalar> 
43750
(
1
1
1
1
1
1
1
1
1
1
1
1
1
1
0.999999
0.999996
0.999979
0.999904
0.999583
0.998252
0.992905
0.972067
0.893433
0.65972
0.413844
0.240212
0.129573
0.0653064
0.0308969
0.0137733
0.00580363
0.00231781
0.000879414
0.000317639
0.000109417
3.6003e-05
1.13321e-05
3.41619e-06
9.87463e-07
2.73955e-07
7.3013e-08
1.8708e-08
4.61169e-09
1.09438e-09
2.50142e-10
5.50956e-11
1.16987e-11
2.39551e-12
4.73175e-13
9.01798e-14
1.65859e-14
2.94417e-15
5.0445e-16
8.34283e-17
1.33181e-17
2.05197e-18
3.05107e-19
4.37737e-20
6.05843e-21
8.08686e-22
1.04072e-22
1.29083e-23
1.5424e-24
1.77466e-25
1.96514e-26
2.09301e-27
2.14274e-28
2.10704e-29
1.98856e-30
1.79968e-31
1.56038e-32
1.29479e-33
1.0271e-34
7.77926e-36
5.61826e-37
3.86343e-38
2.5256e-39
1.56684e-40
9.20742e-42
5.11447e-43
2.67931e-44
1.32042e-45
6.10462e-47
2.63943e-48
1.06355e-49
3.97825e-51
1.37523e-52
4.37106e-54
1.26984e-55
3.3484e-57
7.94803e-59
1.68136e-60
3.13083e-62
5.05172e-64
6.91934e-66
7.82213e-68
7.00675e-70
4.6626e-72
2.04886e-74
4.45773e-77
1
1
1
1
1
1
1
1
1
1
1
1
1
1
0.999999
0.999996
0.999983
0.999921
0.999658
0.998596
0.994466
0.978907
0.921665
0.730994
0.478393
0.28924
0.162381
0.0850266
0.0417088
0.0192439
0.00838064
0.00345549
0.00135249
0.000503672
0.000178818
6.06299e-05
1.96626e-05
6.10759e-06
1.81927e-06
5.20227e-07
1.42947e-07
3.77761e-08
9.60839e-09
2.3538e-09
5.55697e-10
1.26498e-10
2.77785e-11
5.88693e-12
1.20441e-12
2.3795e-13
4.54077e-14
8.37114e-15
1.49111e-15
2.56651e-16
4.26875e-17
6.86089e-18
1.06551e-18
1.59879e-19
2.31747e-20
3.24446e-21
4.38601e-22
5.72356e-23
7.20748e-24
8.75479e-25
1.02531e-25
1.15714e-26
1.25774e-27
1.31579e-28
1.32393e-29
1.2802e-30
1.18865e-31
1.0587e-32
9.03602e-34
7.38191e-35
5.76496e-36
4.29789e-37
3.05409e-38
2.06513e-39
1.32631e-40
8.07402e-42
4.64832e-43
2.52448e-44
1.28974e-45
6.17908e-47
2.76633e-48
1.15268e-49
4.45005e-51
1.58342e-52
5.16146e-54
1.53039e-55
4.0927e-57
9.77132e-59
2.05662e-60
3.75561e-62
5.82748e-64
7.46821e-66
7.58662e-68
5.72563e-70
2.85256e-72
7.02981e-75
1
1
1
1
1
1
1
1
1
1
1
1
1
1
0.999999
0.999996
0.999981
0.999916
0.999637
0.998502
0.994029
0.976916
0.913191
0.707185
0.455562
0.271451
0.150267
0.0776467
0.0376189
0.0171556
0.00738905
0.00301459
0.00116794
0.000430651
0.000151418
5.08523e-05
1.63372e-05
5.02753e-06
1.48373e-06
4.20376e-07
1.14448e-07
2.99664e-08
7.55157e-09
1.83276e-09
4.28646e-10
9.66579e-11
2.10242e-11
4.41282e-12
8.94071e-13
1.74907e-13
3.30463e-14
6.03108e-15
1.06336e-15
1.81139e-16
2.98131e-17
4.74088e-18
7.28356e-19
1.08098e-19
1.54957e-20
2.14506e-21
2.86681e-22
3.69793e-23
4.60223e-24
5.524e-25
6.39173e-26
7.12589e-27
7.65009e-28
7.90355e-29
7.85232e-30
7.49643e-31
6.87097e-32
6.04054e-33
5.08835e-34
4.10227e-35
3.16135e-36
2.32555e-37
1.63051e-38
1.08778e-39
6.89259e-41
4.13968e-42
2.35134e-43
1.25992e-44
6.351e-46
3.00231e-47
1.32634e-48
5.45398e-50
2.07806e-51
7.29833e-53
2.34843e-54
6.87435e-56
1.81515e-57
4.27935e-59
8.89501e-61
1.6043e-62
2.45891e-64
3.11293e-66
3.12407e-68
2.32934e-70
1.14653e-72
2.79158e-75
1
1
1
1
1
1
1
1
1
1
1
1
1
1
0.999999
0.999996
0.999981
0.999912
0.999616
0.998393
0.993554
0.97504
0.906268
0.691598
0.444185
0.264213
0.14606
0.0753875
0.0364869
0.0166225
0.00715181
0.00291443
0.00112771
0.000415244
0.000145783
4.88816e-05
1.56773e-05
4.81571e-06
1.4185e-06
4.01086e-07
1.08966e-07
2.84676e-08
7.15718e-09
1.73279e-09
4.04206e-10
9.08892e-11
1.97111e-11
4.12456e-12
8.33003e-13
1.62418e-13
3.05796e-14
5.5605e-15
9.76628e-16
1.65694e-16
2.71556e-17
4.29906e-18
6.57383e-19
9.7083e-20
1.38445e-20
1.90602e-21
2.53267e-22
3.24711e-23
4.01537e-24
4.78721e-25
5.50001e-26
6.08607e-27
6.48256e-28
6.64211e-29
6.54185e-30
6.18846e-31
5.61785e-32
4.88926e-33
4.07516e-34
3.24914e-35
2.47495e-36
1.79859e-37
1.24509e-38
8.19691e-40
5.1228e-41
3.0329e-42
1.69719e-43
8.95441e-45
4.44193e-46
2.0653e-47
8.9691e-49
3.62368e-50
1.35588e-51
4.67426e-53
1.47572e-54
4.23663e-56
1.09675e-57
2.53422e-59
5.1614e-61
9.11947e-63
1.36904e-64
1.69744e-66
1.66831e-68
1.21822e-70
5.87293e-73
1.40081e-75
1
1
1
1
1
1
1
1
1
1
1
1
1
1
0.999999
0.999996
0.99998
0.999909
0.999604
0.998362
0.993482
0.974881
0.905876
0.690814
0.443519
0.263723
0.145741
0.075202
0.0363887
0.0165748
0.00713041
0.00290551
0.00112424
0.000413984
0.000145353
4.87435e-05
1.56355e-05
4.80381e-06
1.41531e-06
4.00278e-07
1.08774e-07
2.84254e-08
7.14866e-09
1.73127e-09
4.04e-10
9.08849e-11
1.97192e-11
4.12801e-12
8.34042e-13
1.62685e-13
3.06418e-14
5.57392e-15
9.79349e-16
1.66216e-16
2.72507e-17
4.31559e-18
6.60127e-19
9.75187e-20
1.39107e-20
1.91565e-21
2.5461e-22
3.26505e-23
4.0383e-24
4.81526e-25
5.53281e-26
6.1227e-27
6.52158e-28
6.68169e-29
6.57999e-30
6.22327e-31
5.64782e-32
4.91348e-33
4.09337e-34
3.26173e-35
2.48277e-36
1.80275e-37
1.24676e-38
8.19863e-40
5.11688e-41
3.02469e-42
1.68961e-43
8.89682e-45
4.40362e-46
2.04248e-47
8.84613e-49
3.56346e-50
1.32908e-51
4.56597e-53
1.43615e-54
4.10661e-56
1.05859e-57
2.4351e-59
4.93622e-61
8.67878e-63
1.29625e-64
1.59872e-66
1.5628e-68
1.1349e-70
5.4408e-73
1.29049e-75
1
1
1
1
1
1
1
1
1
1
1
1
1
1
0.999999
0.999996
0.999981
0.999913
0.999625
0.998454
0.993838
0.976129
0.90998
0.698804
0.448047
0.265943
0.146749
0.0756365
0.036571
0.0166499
0.00716087
0.00291759
0.00112891
0.000415729
0.000145985
4.89643e-05
1.571e-05
4.82803e-06
1.4229e-06
4.02572e-07
1.09442e-07
2.86126e-08
7.19921e-09
1.74442e-09
4.07299e-10
9.16836e-11
1.9906e-11
4.17017e-12
8.43221e-13
1.64612e-13
3.10321e-14
5.65013e-15
9.93698e-16
1.68822e-16
2.77071e-17
4.39267e-18
6.72682e-19
9.94903e-20
1.42092e-20
1.95921e-21
2.60736e-22
3.34803e-23
4.14657e-24
4.95124e-25
5.69717e-26
6.31381e-27
6.73521e-28
6.91114e-29
6.81658e-30
6.45727e-31
5.86959e-32
5.11468e-33
4.26791e-34
3.40634e-35
2.59703e-36
1.88873e-37
1.30827e-38
8.61636e-40
5.38569e-41
3.18833e-42
1.78363e-43
9.40531e-45
4.66182e-46
2.16518e-47
9.38989e-49
3.78732e-50
1.4143e-51
4.86443e-53
1.53175e-54
4.38463e-56
1.13141e-57
2.6051e-59
5.28564e-61
9.30117e-63
1.39035e-64
1.71613e-66
1.67884e-68
1.22006e-70
5.85329e-73
1.38935e-75
1
1
1
1
1
1
1
1
1
1
1
1
1
1
0.999999
0.999996
0.999982
0.999917
0.999641
0.998516
0.994082
0.977129
0.913982
0.708797
0.456045
0.27118
0.149753
0.0771905
0.0373106
0.016981
0.00730088
0.00297391
0.00115055
0.000423695
0.000148797
4.99181e-05
1.60209e-05
4.92552e-06
1.45233e-06
4.11126e-07
1.11838e-07
2.92596e-08
7.36771e-09
1.78676e-09
4.17564e-10
9.40854e-11
2.04484e-11
4.28844e-12
8.68127e-13
1.6968e-13
3.20281e-14
5.83931e-15
1.02842e-15
1.7498e-16
2.87624e-17
4.56739e-18
7.00627e-19
1.03807e-19
1.48532e-20
2.05196e-21
2.73628e-22
3.52092e-23
4.37015e-24
5.22995e-25
6.03186e-26
6.70071e-27
7.16548e-28
7.37112e-29
7.28898e-30
6.92298e-31
6.30996e-32
5.5137e-33
4.61401e-34
3.69336e-35
2.82433e-36
2.06039e-37
1.4317e-38
9.45997e-40
5.93267e-41
3.52405e-42
1.97824e-43
1.04682e-44
5.20711e-46
2.42716e-47
1.05645e-48
4.27679e-50
1.60302e-51
5.53414e-53
1.74917e-54
5.02587e-56
1.30175e-57
3.00861e-59
6.12726e-61
1.08225e-62
1.62377e-64
2.01164e-66
1.97514e-68
1.44061e-70
6.93627e-73
1.6523e-75
1
1
1
1
1
1
1
1
1
1
1
1
1
1
0.999999
0.999997
0.999984
0.999925
0.999668
0.998592
0.994253
0.977376
0.913908
0.707505
0.45471
0.270342
0.149366
0.0770571
0.0372836
0.016984
0.0073087
0.00297965
0.00115374
0.000425218
0.000149457
5.01821e-05
1.61199e-05
4.9605e-06
1.46404e-06
4.14859e-07
1.12972e-07
2.95887e-08
7.45915e-09
1.81111e-09
4.23786e-10
9.56127e-11
2.08087e-11
4.37021e-12
8.85992e-13
1.73438e-13
3.279e-14
5.98818e-15
1.05646e-15
1.80075e-16
2.96551e-17
4.71827e-18
7.25225e-19
1.07676e-19
1.544e-20
2.13781e-21
2.85736e-22
3.68556e-23
4.58587e-24
5.50222e-25
6.36277e-26
7.08782e-27
7.6011e-28
7.84242e-29
7.77881e-30
7.41165e-31
6.77748e-32
5.94222e-33
4.98989e-34
4.00854e-35
3.07664e-36
2.25295e-37
1.57158e-38
1.04256e-39
6.56498e-41
3.91598e-42
2.20768e-43
1.17335e-44
5.86269e-46
2.74527e-47
1.2005e-48
4.8831e-50
1.83917e-51
6.38079e-53
2.02691e-54
5.85361e-56
1.524e-57
3.54074e-59
7.24926e-61
1.28729e-62
1.94186e-64
2.41883e-66
2.38797e-68
1.75131e-70
8.47884e-73
2.03094e-75
1
1
1
1
1
1
1
1
1
1
1
1
1
1
0.999999
0.999996
0.999983
0.99992
0.999652
0.998549
0.994169
0.977303
0.914174
0.70865
0.455718
0.271034
0.149788
0.0772962
0.0374115
0.017049
0.00734009
0.00299408
0.00116003
0.000427821
0.000150477
5.05622e-05
1.62546e-05
5.00607e-06
1.47876e-06
4.19406e-07
1.14318e-07
2.99705e-08
7.56312e-09
1.83831e-09
4.30628e-10
9.72683e-11
2.11944e-11
4.45677e-12
9.04711e-13
1.77341e-13
3.35747e-14
6.14037e-15
1.08494e-15
1.85218e-16
3.05514e-17
4.86902e-18
7.49695e-19
1.11509e-19
1.60195e-20
2.22231e-21
2.97628e-22
3.84695e-23
4.79709e-24
5.76865e-25
6.68653e-26
7.46663e-27
8.02762e-28
8.30423e-29
8.25931e-30
7.89167e-31
7.2375e-32
6.3647e-33
5.36134e-34
4.32081e-35
3.32732e-36
2.44484e-37
1.71145e-38
1.13945e-39
7.20174e-41
4.31217e-42
2.44052e-43
1.30228e-44
6.53349e-46
3.07213e-47
1.34914e-48
5.5115e-50
2.08499e-51
7.26605e-53
2.31861e-54
6.72685e-56
1.75951e-57
4.10717e-59
8.44893e-61
1.50751e-62
2.28502e-64
2.86006e-66
2.83729e-68
2.09096e-70
1.01725e-72
2.44847e-75
1
1
1
1
1
1
1
1
1
1
1
1
1
1
0.999999
0.999996
0.999983
0.999923
0.999666
0.99862
0.994505
0.978759
0.920016
0.72366
0.467497
0.278638
0.154138
0.0795527
0.0384931
0.0175349
0.00754714
0.00307803
0.00119259
0.000439922
0.000154793
5.20402e-05
1.67409e-05
5.15994e-06
1.52561e-06
4.3314e-07
1.18196e-07
3.1026e-08
7.84005e-09
1.90838e-09
4.47732e-10
1.01297e-10
2.21105e-11
4.65785e-12
9.47334e-13
1.86067e-13
3.53003e-14
6.47003e-15
1.14579e-15
1.96068e-16
3.24207e-17
5.18018e-18
7.99728e-19
1.1928e-19
1.71849e-20
2.39106e-21
3.21204e-22
4.16469e-23
5.21003e-24
6.28595e-25
7.31088e-26
8.1923e-27
8.83936e-28
9.17755e-29
9.16235e-30
8.78841e-31
8.09193e-32
7.14509e-33
6.04386e-34
4.89172e-35
3.7835e-36
2.79253e-37
1.96383e-38
1.31363e-39
8.34258e-41
5.01982e-42
2.85528e-43
1.5314e-44
7.72304e-46
3.65077e-47
1.61192e-48
6.62117e-50
2.51875e-51
8.82731e-53
2.83295e-54
8.26674e-56
2.17497e-57
5.10698e-59
1.05683e-60
1.89698e-62
2.89272e-64
3.64265e-66
3.63561e-68
2.6956e-70
1.31939e-72
3.19504e-75
1
1
1
1
1
1
1
1
1
1
1
1
1
1
0.999999
0.999996
0.999982
0.999918
0.999649
0.998556
0.994266
0.977911
0.917133
0.717121
0.463372
0.276539
0.153218
0.0792094
0.0383895
0.0175145
0.00754816
0.00308251
0.00119587
0.000441694
0.000155622
5.23988e-05
1.68817e-05
5.21104e-06
1.54295e-06
4.38685e-07
1.19878e-07
3.15117e-08
7.9741e-09
1.94383e-09
4.56732e-10
1.03495e-10
2.26269e-11
4.77479e-12
9.7286e-13
1.9144e-13
3.63917e-14
6.6839e-15
1.18624e-15
2.03451e-16
3.37213e-17
5.40133e-18
8.36022e-19
1.25028e-19
1.80634e-20
2.5206e-21
3.39632e-22
4.41754e-23
5.54449e-24
6.71232e-25
7.83445e-26
8.81126e-27
9.54343e-28
9.94765e-29
9.9717e-30
9.60508e-31
8.88239e-32
7.87831e-33
6.69495e-34
5.44456e-35
4.23178e-36
3.13918e-37
2.21907e-38
1.49228e-39
9.52889e-41
5.76574e-42
3.29836e-43
1.77941e-44
9.0275e-46
4.29346e-47
1.90749e-48
7.88494e-50
3.01883e-51
1.06492e-52
3.44033e-54
1.01066e-55
2.67713e-57
6.32931e-59
1.31886e-60
2.38385e-62
3.66069e-64
4.64222e-66
4.66602e-68
3.48409e-70
1.7174e-72
4.18827e-75
1
1
1
1
1
1
1
1
1
1
1
1
1
1
0.999999
0.999996
0.99998
0.999909
0.999608
0.99839
0.993654
0.975793
0.910029
0.701688
0.453418
0.271165
0.150648
0.0781061
0.0379575
0.0173606
0.00749908
0.00306838
0.00119235
0.000441032
0.000155581
5.24418e-05
1.69157e-05
5.22841e-06
1.55055e-06
4.41662e-07
1.20915e-07
3.18444e-08
8.07377e-09
1.97199e-09
4.64277e-10
1.0542e-10
2.30962e-11
4.88435e-12
9.97394e-13
1.96718e-13
3.74833e-14
6.90124e-15
1.22791e-15
2.11149e-16
3.50922e-17
5.63667e-18
8.74983e-19
1.31248e-19
1.90211e-20
2.66278e-21
3.59984e-22
4.69837e-23
5.91794e-24
7.19077e-25
8.42476e-26
9.51234e-27
1.03445e-27
1.08277e-28
1.09006e-29
1.05464e-30
9.79753e-32
8.73094e-33
7.45548e-34
6.09329e-35
4.76027e-36
3.54981e-37
2.5229e-38
1.70601e-39
1.09556e-40
6.66757e-42
3.83699e-43
2.0826e-44
1.06314e-45
5.08839e-47
2.27531e-48
9.46741e-50
3.64904e-51
1.29601e-52
4.21594e-54
1.24723e-55
3.3273e-57
7.92316e-59
1.66301e-60
3.02803e-62
4.6844e-64
5.98481e-66
6.06071e-68
4.55968e-70
2.26461e-72
5.56478e-75
1
1
1
1
1
1
1
1
1
1
1
1
1
1
0.999999
0.999996
0.99998
0.999907
0.999592
0.998298
0.993199
0.973802
0.902157
0.684054
0.440533
0.263151
0.14621
0.0758917
0.036957
0.0169454
0.00733952
0.00301145
0.00117343
0.000435239
0.000153982
5.20444e-05
1.68302e-05
5.21446e-06
1.54979e-06
4.42351e-07
1.21363e-07
3.20325e-08
8.13986e-09
1.99277e-09
4.70296e-10
1.0705e-10
2.35128e-11
4.98536e-12
1.02073e-12
2.01872e-13
3.85734e-14
7.12243e-15
1.27102e-15
2.1923e-16
3.65496e-17
5.88976e-18
9.17317e-19
1.38071e-19
2.00807e-20
2.82138e-21
3.82862e-22
5.01637e-23
6.34379e-24
7.74004e-25
9.10689e-26
1.03276e-26
1.12819e-27
1.18638e-28
1.20009e-29
1.16683e-30
1.08946e-31
9.75919e-33
8.3781e-34
6.88493e-35
5.40901e-36
4.05686e-37
2.9003e-38
1.97306e-39
1.27488e-40
7.80785e-42
4.52208e-43
2.47053e-44
1.26959e-45
6.11769e-47
2.75439e-48
1.15408e-49
4.47963e-51
1.60238e-52
5.25014e-54
1.56447e-55
4.20418e-57
1.00849e-58
2.13234e-60
3.91128e-62
6.09546e-64
7.84494e-66
8.00269e-68
6.06457e-70
3.03381e-72
7.50836e-75
1
1
1
1
1
1
1
1
1
1
1
1
1
1
0.999999
0.999996
0.999981
0.999912
0.999615
0.998386
0.993483
0.974588
0.904116
0.686713
0.441308
0.263132
0.146011
0.0757348
0.0368693
0.0169063
0.00732532
0.00300755
0.00117294
0.000435468
0.000154206
5.21735e-05
1.68912e-05
5.23975e-06
1.55932e-06
4.45719e-07
1.22495e-07
3.23933e-08
8.24834e-09
2.02368e-09
4.78671e-10
1.09215e-10
2.40476e-11
5.11189e-12
1.04944e-12
2.08127e-13
3.98835e-14
7.38639e-15
1.32222e-15
2.28797e-16
3.82724e-17
6.18881e-18
9.6737e-19
1.4615e-19
2.13382e-20
3.01015e-21
4.10186e-22
5.39766e-23
6.85663e-24
8.40467e-25
9.93651e-26
1.13246e-26
1.24347e-27
1.31458e-28
1.3371e-29
1.30743e-30
1.22791e-31
1.10659e-32
9.55913e-34
7.90594e-35
6.25223e-36
4.72118e-37
3.39883e-38
2.32881e-39
1.51583e-40
9.35367e-42
5.45931e-43
3.00619e-44
1.55737e-45
7.56648e-47
3.43545e-48
1.45183e-49
5.68474e-51
2.05158e-52
6.7828e-54
2.03976e-55
5.53246e-57
1.33962e-58
2.85949e-60
5.29554e-62
8.33282e-64
1.08293e-65
1.11556e-67
8.53741e-70
4.31316e-72
1.07807e-74
1
1
1
1
1
1
1
1
1
1
1
1
1
1
0.999999
0.999996
0.999981
0.999915
0.999633
0.998478
0.993913
0.97634
0.91051
0.699695
0.448884
0.266971
0.147828
0.0765504
0.0372221
0.0170551
0.00738679
0.00303251
0.00118291
0.000439393
0.000155711
5.27319e-05
1.7091e-05
5.30856e-06
1.58206e-06
4.52875e-07
1.24637e-07
3.30055e-08
8.41644e-09
2.06808e-09
4.89965e-10
1.11987e-10
2.47045e-11
5.26217e-12
1.08264e-12
2.15208e-13
4.1342e-14
7.67647e-15
1.37793e-15
2.39126e-16
4.01216e-17
6.50846e-18
1.02071e-18
1.54743e-19
2.26746e-20
3.21071e-21
4.39229e-22
5.8034e-23
7.40325e-24
9.11462e-25
1.08251e-25
1.23957e-26
1.36777e-27
1.45334e-28
1.48603e-29
1.46097e-30
1.37985e-31
1.25077e-32
1.08697e-33
9.04572e-35
7.19943e-36
5.47232e-37
3.96635e-38
2.73666e-39
1.79409e-40
1.11523e-41
6.55828e-43
3.63929e-44
1.90028e-45
9.30726e-47
4.26072e-48
1.81576e-49
7.17064e-51
2.61037e-52
8.70657e-54
2.64175e-55
7.23024e-57
1.76676e-58
3.80612e-60
7.11423e-62
1.12994e-63
1.48226e-65
1.5413e-67
1.19066e-69
6.07187e-72
1.53189e-74
1
1
1
1
1
1
1
1
1
1
1
1
1
1
0.999999
0.999996
0.999982
0.99992
0.999656
0.998587
0.99438
0.97826
0.918014
0.718406
0.463563
0.276334
0.153081
0.079224
0.0384831
0.0176145
0.00762254
0.00312748
0.00121961
0.000453016
0.000160578
5.44084e-05
1.76478e-05
5.48703e-06
1.63725e-06
4.69325e-07
1.29366e-07
3.43171e-08
8.76752e-09
2.15878e-09
5.12581e-10
1.17423e-10
2.59647e-11
5.54407e-12
1.14351e-12
2.27902e-13
4.38991e-14
8.17422e-15
1.47158e-15
2.56157e-16
4.31159e-17
7.0174e-18
1.10434e-18
1.68024e-19
2.47131e-20
3.51305e-21
4.82547e-22
6.40274e-23
8.20378e-24
1.01464e-24
1.21077e-25
1.39328e-26
1.54523e-27
1.65061e-28
1.69699e-29
1.67786e-30
1.59401e-31
1.45367e-32
1.27123e-33
1.06477e-34
8.53105e-36
6.52918e-37
4.76597e-38
3.31238e-39
2.18784e-40
1.37048e-41
8.12317e-43
4.54428e-44
2.39256e-45
1.1818e-46
5.45714e-48
2.34625e-49
9.3494e-51
3.43483e-52
1.15636e-53
3.54193e-55
9.78717e-57
2.41484e-58
5.25339e-60
9.91671e-62
1.59077e-63
2.1077e-65
2.2137e-67
1.72732e-69
8.89728e-72
2.26732e-74
1
1
1
1
1
1
1
1
1
1
1
1
1
1
0.999999
0.999996
0.999982
0.999919
0.999652
0.998579
0.994384
0.978418
0.919049
0.721964
0.46757
0.279725
0.155464
0.0806784
0.0392782
0.0180126
0.00780783
0.00320838
0.00125297
0.000466063
0.000165436
5.61347e-05
1.82346e-05
5.67807e-06
1.69692e-06
4.87234e-07
1.34537e-07
3.5755e-08
9.15281e-09
2.25833e-09
5.37394e-10
1.23396e-10
2.73537e-11
5.85611e-12
1.21125e-12
2.4211e-13
4.67797e-14
8.73872e-15
1.57851e-15
2.75738e-16
4.65821e-17
7.61052e-18
1.20244e-18
1.83707e-19
2.71359e-20
3.87466e-21
5.34681e-22
7.12855e-23
9.17922e-24
1.14114e-24
1.36899e-25
1.58406e-26
1.76685e-27
1.8985e-28
1.96377e-29
1.95387e-30
1.86832e-31
1.71528e-32
1.51038e-33
1.27411e-34
1.02834e-35
7.92982e-37
5.83339e-38
4.08666e-39
2.72141e-40
1.71909e-41
1.02775e-42
5.80038e-44
3.08159e-45
1.53627e-46
7.16119e-48
3.1087e-49
1.25099e-50
4.64221e-52
1.57884e-53
4.88633e-55
1.36448e-56
3.40276e-58
7.48299e-60
1.42807e-61
2.31625e-63
3.10329e-65
3.29612e-67
2.6011e-69
1.35508e-71
3.49271e-74
1
1
1
1
1
1
1
1
1
1
1
1
1
1
0.999999
0.999996
0.999982
0.99992
0.999655
0.998584
0.994385
0.978391
0.918954
0.721872
0.467915
0.280317
0.156041
0.0811189
0.0395731
0.0181838
0.00789715
0.00325129
0.00127218
0.000474137
0.00016864
5.73397e-05
1.86655e-05
5.82494e-06
1.74474e-06
5.02132e-07
1.38985e-07
3.70298e-08
9.5038e-09
2.35126e-09
5.6108e-10
1.29211e-10
2.87297e-11
6.17015e-12
1.2804e-12
2.5681e-13
4.97967e-14
9.33675e-15
1.69302e-15
2.96922e-16
5.03687e-17
8.26453e-18
1.31159e-18
2.01308e-19
2.9878e-20
4.28733e-21
5.94659e-22
7.97024e-23
1.03193e-23
1.29015e-24
1.55682e-25
1.8123e-26
2.03406e-27
2.1997e-28
2.29044e-29
2.2945e-30
2.2095e-31
2.04323e-32
1.81259e-33
1.54076e-34
1.25334e-35
9.74291e-37
7.22643e-38
5.10545e-39
3.42929e-40
2.18541e-41
1.31833e-42
7.50879e-44
4.02658e-45
2.02648e-46
9.53757e-48
4.18086e-49
1.69914e-50
6.36848e-52
2.18789e-53
6.8405e-55
1.92984e-56
4.86251e-58
1.08044e-59
2.08348e-61
3.41468e-63
4.62296e-65
4.96176e-67
3.9566e-69
2.08283e-71
5.42468e-74
1
1
1
1
1
1
1
1
1
1
1
1
1
1
0.999999
0.999997
0.999983
0.999923
0.999664
0.998599
0.994372
0.978164
0.917815
0.719108
0.466362
0.27967
0.155857
0.0811071
0.0396046
0.018221
0.00792623
0.00326846
0.00128095
0.00047821
0.000170395
5.80483e-05
1.89353e-05
5.92218e-06
1.77802e-06
5.12976e-07
1.42356e-07
3.80316e-08
9.7889e-09
2.42907e-09
5.81467e-10
1.34346e-10
2.9974e-11
6.46045e-12
1.34566e-12
2.70953e-13
5.27529e-14
9.93302e-15
1.8091e-15
3.18742e-16
5.43291e-17
8.95877e-18
1.42913e-18
2.2053e-19
3.29137e-20
4.75034e-21
6.62845e-22
8.93958e-23
1.16492e-23
1.46617e-24
1.78149e-25
2.08872e-26
2.36171e-27
2.57362e-28
2.70103e-29
2.72797e-30
2.6491e-31
2.47109e-32
2.21184e-33
1.89753e-34
1.55825e-35
1.22318e-36
9.16378e-38
6.54109e-39
4.44016e-40
2.86034e-41
1.74465e-42
1.00498e-43
5.45161e-45
2.77604e-46
1.32221e-47
5.86658e-49
2.41362e-50
9.15896e-52
3.186e-53
1.00864e-54
2.88142e-56
7.35137e-58
1.65388e-59
3.22879e-61
5.35654e-63
7.33936e-65
7.97039e-67
6.42923e-69
3.42261e-71
9.01179e-74
1
1
1
1
1
1
1
1
1
1
1
1
1
1
0.999999
0.999996
0.999982
0.999919
0.99965
0.99855
0.994204
0.977554
0.915558
0.713478
0.462187
0.277266
0.154728
0.080687
0.0394843
0.0182017
0.00793115
0.00327612
0.00128616
0.00048097
0.000171672
5.85853e-05
1.91447e-05
5.99882e-06
1.80452e-06
5.21681e-07
1.45081e-07
3.88465e-08
1.00222e-08
2.49311e-09
5.9835e-10
1.38624e-10
3.10172e-11
6.7054e-12
1.40109e-12
2.83046e-13
5.52983e-14
1.04501e-14
1.91051e-15
3.37948e-16
5.78425e-17
9.57968e-18
1.53514e-18
2.38017e-19
3.57005e-20
5.17936e-21
7.26636e-22
9.85553e-23
1.29189e-23
1.63602e-24
2.00069e-25
2.36149e-26
2.68883e-27
2.95148e-28
3.12112e-29
3.17717e-30
3.11068e-31
2.92645e-32
2.64269e-33
2.28806e-34
1.89695e-35
1.50384e-36
1.13825e-37
8.21155e-39
5.63578e-40
3.67219e-41
2.26643e-42
1.3216e-43
7.26039e-45
3.74581e-46
1.80844e-47
8.13719e-49
3.39671e-50
1.30845e-51
4.62283e-53
1.48721e-54
4.31942e-56
1.12089e-57
2.56599e-59
5.0993e-61
8.61427e-63
1.20221e-64
1.33013e-66
1.09333e-68
5.93176e-71
1.59188e-73
1
1
1
1
1
1
1
1
1
1
1
1
1
1
0.999999
0.999996
0.999983
0.999923
0.99967
0.998636
0.994551
0.978838
0.920004
0.72355
0.46858
0.28061
0.15631
0.0813904
0.0397943
0.0183397
0.00799389
0.00330491
0.00129909
0.000486553
0.000173959
5.94768e-05
1.94759e-05
6.11595e-06
1.84402e-06
5.34403e-07
1.49001e-07
4.00036e-08
1.03499e-08
2.58223e-09
6.21648e-10
1.44485e-10
3.24367e-11
7.0367e-12
1.47564e-12
2.99228e-13
5.86881e-14
1.11356e-14
2.04439e-15
3.63204e-16
6.24458e-17
1.03904e-17
1.6731e-18
2.60704e-19
3.93056e-20
5.73288e-21
8.08737e-22
1.10317e-22
1.4546e-23
1.85329e-24
2.28064e-25
2.70937e-26
3.10557e-27
3.43242e-28
3.65548e-29
3.74832e-30
3.69747e-31
3.50538e-32
3.1906e-33
2.78494e-34
2.32816e-35
1.86145e-36
1.42122e-37
1.03443e-38
7.16394e-40
4.71097e-41
2.93476e-42
1.72751e-43
9.58105e-45
4.99064e-46
2.43266e-47
1.10514e-48
4.65742e-50
1.81112e-51
6.45866e-53
2.09807e-54
6.15612e-56
1.61473e-57
3.73815e-59
7.51591e-61
1.28516e-62
1.81627e-64
2.03584e-66
1.696e-68
9.32958e-71
2.53958e-73
1
1
1
1
1
1
1
1
1
1
1
1
1
1
0.999999
0.999996
0.999982
0.999918
0.99965
0.998569
0.994377
0.978534
0.919847
0.724824
0.471206
0.283234
0.158303
0.0826513
0.0404947
0.018694
0.00816059
0.0033788
0.00133024
0.000499083
0.000178777
6.12436e-05
2.00944e-05
6.32346e-06
1.91086e-06
5.55092e-07
1.55161e-07
4.17696e-08
1.08376e-08
2.71206e-09
6.54982e-10
1.52743e-10
3.44119e-11
7.49297e-12
1.57746e-12
3.21187e-13
6.32659e-14
1.20583e-14
2.22423e-15
3.97101e-16
6.86254e-17
1.148e-17
1.85893e-18
2.91356e-19
4.41948e-20
6.48691e-21
9.21155e-22
1.26516e-22
1.6801e-23
2.1565e-24
2.67424e-25
3.20242e-26
3.70122e-27
4.12604e-28
4.43348e-29
4.58824e-30
4.56948e-31
4.37521e-32
4.02338e-33
3.54931e-34
2.99991e-35
2.42592e-36
1.87406e-37
1.38066e-38
9.68223e-40
6.44974e-41
4.07181e-42
2.42994e-43
1.36686e-44
7.22401e-46
3.57428e-47
1.64885e-48
7.0588e-50
2.78943e-51
1.01121e-52
3.33748e-54
9.94245e-56
2.64595e-57
6.21089e-59
1.26541e-60
2.19135e-62
3.13473e-64
3.55472e-66
2.99452e-68
1.665e-70
4.57961e-73
1
1
1
1
1
1
1
1
1
1
1
1
1
1
0.999999
0.999996
0.999982
0.999918
0.999645
0.998541
0.994248
0.978033
0.918275
0.721699
0.46985
0.282957
0.158447
0.0828959
0.0407055
0.0188352
0.00824092
0.00341946
0.00134905
0.00050717
0.000182047
6.24974e-05
2.05521e-05
6.48272e-06
1.96378e-06
5.7192e-07
1.60291e-07
4.32703e-08
1.12595e-08
2.82621e-09
6.84719e-10
1.60208e-10
3.6219e-11
7.91503e-12
1.67262e-12
3.41908e-13
6.7625e-14
1.29445e-14
2.3984e-15
4.30197e-16
7.47067e-17
1.25607e-17
2.04467e-18
3.22228e-19
4.91575e-20
7.25832e-21
1.03709e-21
1.43357e-22
1.91652e-23
2.4771e-24
3.09407e-25
3.73306e-26
4.34824e-27
4.88665e-28
5.29497e-29
5.52763e-30
5.55484e-31
5.36854e-32
4.98475e-33
4.44158e-34
3.79308e-35
3.10029e-36
2.4216e-37
1.80451e-38
1.28043e-39
8.63368e-41
5.51923e-42
3.33652e-43
1.90197e-44
1.01911e-45
5.11426e-47
2.39401e-48
1.04049e-49
4.17644e-51
1.53873e-52
5.16591e-54
1.56673e-55
4.24774e-57
1.01638e-58
2.11179e-60
3.73062e-62
5.44492e-64
6.29978e-66
5.41388e-68
3.06994e-70
8.60688e-73
1
1
1
1
1
1
1
1
1
1
1
1
1
1
0.999999
0.999996
0.999982
0.99992
0.999655
0.998582
0.994381
0.978405
0.919192
0.723387
0.471023
0.283769
0.159053
0.083332
0.0409843
0.0189966
0.00832675
0.00346179
0.00136856
0.000515619
0.000185502
6.38371e-05
2.10458e-05
6.65603e-06
2.02187e-06
5.90546e-07
1.66012e-07
4.49563e-08
1.17368e-08
2.95615e-09
7.18769e-10
1.68805e-10
3.83115e-11
8.40645e-12
1.78402e-12
3.66297e-13
7.27837e-14
1.39991e-14
2.6068e-15
4.7002e-16
8.20657e-17
1.38759e-17
2.27203e-18
3.60244e-19
5.53053e-20
8.21978e-21
1.18248e-21
1.64611e-22
2.2168e-23
2.88699e-24
3.63444e-25
4.42077e-26
5.19272e-27
5.88663e-28
6.43606e-29
6.78151e-30
6.88052e-31
6.71585e-32
6.29964e-33
5.67246e-34
4.89687e-35
4.04717e-36
3.19742e-37
2.41059e-38
1.73102e-39
1.18147e-40
7.64669e-42
4.68086e-43
2.70219e-44
1.46632e-45
7.452e-47
3.53223e-48
1.5542e-49
6.3139e-51
2.35345e-52
7.99431e-54
2.45501e-55
6.74517e-57
1.63689e-58
3.45218e-60
6.19516e-62
9.19269e-64
1.0822e-65
9.47061e-68
5.47301e-70
1.56518e-72
1
1
1
1
1
1
1
1
1
1
1
1
1
1
0.999999
0.999996
0.999983
0.999923
0.999667
0.998619
0.994488
0.978698
0.919991
0.725046
0.472261
0.284676
0.159668
0.0837267
0.0412463
0.019154
0.0084129
0.00350532
0.00138904
0.000524652
0.000189252
6.53079e-05
2.15927e-05
6.84945e-06
2.08708e-06
6.11551e-07
1.72489e-07
4.68715e-08
1.22806e-08
3.10455e-09
7.57749e-10
1.78668e-10
4.07174e-11
8.97264e-12
1.91265e-12
3.94521e-13
7.8768e-14
1.52256e-14
2.8499e-15
5.16624e-16
9.0709e-17
1.54269e-17
2.54134e-18
4.05492e-19
6.26616e-20
9.3769e-21
1.35855e-21
1.90524e-22
2.58558e-23
3.3943e-24
4.30877e-25
5.28652e-26
6.26574e-27
7.16977e-28
7.91553e-29
8.42513e-30
8.63847e-31
8.5244e-32
8.08756e-33
7.36907e-34
6.44037e-35
5.39161e-36
4.31698e-37
3.30043e-38
2.40485e-39
1.66665e-40
1.09611e-41
6.82369e-43
4.00974e-44
2.21683e-45
1.14888e-46
5.55824e-48
2.49841e-49
1.03775e-50
3.9581e-52
1.37567e-53
4.31761e-55
1.211e-56
2.99664e-58
6.43694e-60
1.17519e-61
1.77195e-63
2.11707e-65
1.87788e-67
1.09853e-69
3.17544e-72
1
1
1
1
1
1
1
1
1
1
1
1
1
1
0.999999
0.999996
0.999982
0.999915
0.999631
0.998475
0.993975
0.977083
0.915274
0.715914
0.467658
0.282944
0.159148
0.0836269
0.0412565
0.0191951
0.00845151
0.00352988
0.00140214
0.000530899
0.000191994
6.64318e-05
2.20265e-05
7.00794e-06
2.1421e-06
6.29746e-07
1.78236e-07
4.86081e-08
1.27835e-08
3.24438e-09
7.9511e-10
1.88272e-10
4.30954e-11
9.54018e-12
2.04331e-12
4.23558e-13
8.50001e-14
1.6518e-14
3.10893e-15
5.66821e-16
1.00116e-16
1.7132e-17
2.84031e-18
4.56205e-19
7.0983e-20
1.06977e-20
1.56133e-21
2.20631e-22
3.01773e-23
3.99384e-24
5.11242e-25
6.32689e-26
7.56579e-27
8.737e-28
9.73702e-29
1.04646e-29
1.08365e-30
1.08025e-31
1.03557e-32
9.53599e-34
8.42424e-35
7.12964e-36
5.77171e-37
4.46165e-38
3.2871e-39
2.30324e-40
1.53126e-41
9.63386e-43
5.71893e-44
3.19634e-45
1.67602e-46
8.21099e-48
3.74074e-49
1.57622e-50
6.10446e-52
2.15701e-53
6.89325e-55
1.97145e-56
4.98105e-58
1.09385e-59
2.04412e-61
3.15846e-63
3.87149e-65
3.52703e-67
2.12131e-69
6.31202e-72
1
1
1
1
1
1
1
1
1
1
1
1
1
1
0.999999
0.999996
0.999982
0.999916
0.999637
0.998496
0.994003
0.976891
0.913577
0.710446
0.462893
0.279859
0.157637
0.0830599
0.0411004
0.0191715
0.00845983
0.00354167
0.00141028
0.000535348
0.000194118
6.73533e-05
2.23971e-05
7.14771e-06
2.19189e-06
6.46583e-07
1.83661e-07
5.0278e-08
1.32757e-08
3.38347e-09
8.32862e-10
1.98124e-10
4.55693e-11
1.01386e-11
2.18284e-12
4.54944e-13
9.18149e-14
1.79472e-14
3.3986e-15
6.23577e-16
1.10871e-16
1.91036e-17
3.19e-18
5.16223e-19
8.09516e-20
1.23e-20
1.81052e-21
2.58125e-22
3.56344e-23
4.76191e-24
6.15747e-25
7.70092e-26
9.31074e-27
1.08762e-27
1.22672e-28
1.33498e-29
1.40059e-30
1.41536e-31
1.37628e-32
1.28632e-33
1.15413e-34
9.92735e-36
8.17389e-37
6.43149e-38
4.82696e-39
3.44839e-40
2.33959e-41
1.5036e-42
9.12733e-44
5.2131e-45
2.79135e-46
1.39556e-47
6.48474e-49
2.78576e-50
1.09957e-51
3.95876e-53
1.28855e-54
3.75162e-56
9.64336e-58
2.15272e-59
4.08531e-61
6.40289e-63
7.94993e-65
7.33711e-67
4.47762e-69
1.35367e-71
1
1
1
1
1
1
1
1
1
1
1
1
1
1
0.999999
0.999996
0.999982
0.999921
0.99966
0.998593
0.99436
0.978018
0.916771
0.716242
0.465725
0.281032
0.158086
0.0832471
0.041198
0.0192294
0.00849504
0.00356184
0.00142067
0.000540245
0.000196256
6.82268e-05
2.27332e-05
7.27043e-06
2.23454e-06
6.60739e-07
1.88155e-07
5.16457e-08
1.36753e-08
3.49574e-09
8.6323e-10
2.06042e-10
4.75618e-11
1.06227e-11
2.29651e-12
4.80739e-13
9.74743e-14
1.91479e-14
3.64494e-15
6.72462e-16
1.20254e-16
2.08459e-17
3.50298e-18
5.70619e-19
9.00984e-20
1.37881e-20
2.04475e-21
2.9379e-22
4.08868e-23
5.50991e-24
7.18723e-25
9.07088e-26
1.10712e-26
1.30605e-27
1.48821e-28
1.63682e-29
1.73631e-30
1.77482e-31
1.74644e-32
1.65252e-33
1.50176e-34
1.30895e-35
1.0926e-36
8.71934e-38
6.64017e-39
4.81553e-40
3.31796e-41
2.16636e-42
1.33647e-43
7.76469e-45
4.23256e-46
2.15556e-47
1.02071e-48
4.46914e-50
1.79785e-51
6.59711e-53
2.1922e-54
6.52789e-56
1.71923e-57
3.93927e-59
7.68678e-61
1.24094e-62
1.5899e-64
1.51346e-66
9.50464e-69
2.95175e-71
1
1
1
1
1
1
1
1
1
1
1
1
1
1
0.999999
0.999996
0.999983
0.999923
0.99967
0.998652
0.994683
0.979618
0.923649
0.734161
0.478518
0.288394
0.161861
0.0850421
0.042016
0.0195945
0.00865428
0.00363003
0.00144943
0.000552081
0.000200971
7.00351e-05
2.33993e-05
7.50529e-06
2.31388e-06
6.86441e-07
1.96149e-07
5.40358e-08
1.43628e-08
3.68614e-09
9.14046e-10
2.19119e-10
5.08085e-11
1.14009e-11
2.47666e-12
5.21046e-13
1.06195e-13
2.0973e-14
4.01463e-15
7.44958e-16
1.34022e-16
2.33782e-17
3.95417e-18
6.48496e-19
1.0312e-19
1.58973e-20
2.37565e-21
3.44063e-22
4.82818e-23
6.5628e-24
8.63777e-25
1.10038e-25
1.35613e-26
1.61603e-27
1.86086e-28
2.06916e-29
2.21999e-30
2.29621e-31
2.28745e-32
2.19231e-33
2.01902e-34
1.7844e-35
1.51115e-36
1.22427e-37
9.47115e-39
6.98228e-40
4.89409e-41
3.25326e-42
2.04501e-43
1.21172e-44
6.74297e-46
3.50946e-47
1.70023e-48
7.62586e-50
3.14633e-51
1.1849e-52
4.03356e-54
1.22795e-55
3.29991e-57
7.70054e-59
1.52944e-60
2.51747e-62
3.29353e-64
3.20717e-66
2.06363e-68
6.57274e-71
1
1
1
1
1
1
1
1
1
1
1
1
1
1
0.999999