/*--------------------------------*- C++ -*----------------------------------*\
| =========                 |                                                 |
| \\      /  F ield         | OpenFOAM: The Open Source CFD Toolbox           |
|  \\    /   O peration     | Version:  4.1                                   |
|   \\  /    A nd           | Web:      www.OpenFOAM.org                      |
|    \\/     M anipulation  |                                                 |
\*---------------------------------------------------------------------------*/
FoamFile
{
    version     2.0;
    format      ascii;
    class       volVectorField;
    location    "0.05";
    object      U_0;
}
// * * * * * * * * * * * * * * * * * * * * * * * * * * * * * * * * * * * * * //

dimensions      [0 1 -1 0 0 0 0];

internalField   nonuniform List<vector> 
43750
(
(10.0277 -0.00897724 0)
(10.0613 0.0179497 0)
(10.0384 0.039329 0)
(10.014 0.0455222 0)
(9.98963 0.0423608 0)
(9.97899 0.023984 0)
(9.98141 0.0103269 0)
(9.97728 0.0183431 0)
(9.95531 0.0335498 0)
(9.92379 0.0335073 0)
(9.89774 0.0173753 0)
(9.8833 0.00466436 0)
(9.87295 0.012128 0)
(9.85401 0.0358526 0)
(9.82094 0.0552459 0)
(9.77974 0.0527679 0)
(9.74107 0.029181 0)
(9.71139 0.00192016 0)
(9.68929 -0.0101865 0)
(9.66657 -0.000641048 0)
(9.63282 0.022977 0)
(9.58167 0.0471935 0)
(9.51401 0.0619863 0)
(9.43579 0.0650386 0)
(9.35351 0.060025 0)
(9.27156 0.0522869 0)
(9.19173 0.0455904 0)
(9.11394 0.0413077 0)
(9.03727 0.0392205 0)
(8.96079 0.0385632 0)
(8.88394 0.0386404 0)
(8.80644 0.0390231 0)
(8.72814 0.0395111 0)
(8.64897 0.0400335 0)
(8.56889 0.0405736 0)
(8.48786 0.041131 0)
(8.40584 0.0417081 0)
(8.32278 0.0423063 0)
(8.23864 0.0429264 0)
(8.15337 0.0435684 0)
(8.06692 0.0442323 0)
(7.97926 0.0449182 0)
(7.89033 0.0456258 0)
(7.80009 0.0463549 0)
(7.70848 0.0471054 0)
(7.61547 0.0478769 0)
(7.521 0.0486691 0)
(7.42504 0.0494816 0)
(7.32753 0.0503138 0)
(7.22842 0.0511653 0)
(7.12768 0.0520353 0)
(7.02526 0.0529231 0)
(6.92112 0.0538279 0)
(6.8152 0.0547485 0)
(6.70748 0.0556839 0)
(6.59792 0.056633 0)
(6.48646 0.0575942 0)
(6.37309 0.0585662 0)
(6.25776 0.0595474 0)
(6.14044 0.0605361 0)
(6.02111 0.0615306 0)
(5.89974 0.0625287 0)
(5.77631 0.0635279 0)
(5.65079 0.0645258 0)
(5.52319 0.0655198 0)
(5.39349 0.0665086 0)
(5.26168 0.0674895 0)
(5.12779 0.0684629 0)
(4.99182 0.0694139 0)
(4.85379 0.0703292 0)
(4.7137 0.0711993 0)
(4.5716 0.0720188 0)
(4.42751 0.0727843 0)
(4.28149 0.0734929 0)
(4.13357 0.0741399 0)
(3.98383 0.0747208 0)
(3.83234 0.075231 0)
(3.67916 0.0756669 0)
(3.52438 0.0760253 0)
(3.3681 0.0763037 0)
(3.21042 0.0765004 0)
(3.05143 0.0766149 0)
(2.89124 0.0766475 0)
(2.72997 0.0766003 0)
(2.56773 0.0764764 0)
(2.40463 0.0762806 0)
(2.2408 0.0760195 0)
(2.07633 0.075701 0)
(1.91133 0.0753349 0)
(1.7459 0.0749321 0)
(1.58014 0.0745048 0)
(1.41413 0.0740662 0)
(1.24793 0.0736299 0)
(1.08161 0.0732101 0)
(0.915213 0.0728205 0)
(0.748779 0.0724736 0)
(0.582334 0.0721823 0)
(0.415889 0.0719474 0)
(0.249476 0.0717689 0)
(0.0830551 0.071708 0)
(10.0267 -0.0817851 0)
(10.0626 -0.00279291 0)
(10.0525 0.00466246 0)
(10.0631 -0.00186862 0)
(10.0594 -0.0099725 0)
(10.0389 -0.0154205 0)
(10.0209 -0.00908578 0)
(10.0172 0.00630078 0)
(10.0197 0.0194953 0)
(10.0126 0.0242071 0)
(9.99031 0.0227107 0)
(9.96171 0.0194276 0)
(9.94034 0.0163189 0)
(9.93137 0.0149852 0)
(9.92769 0.0183113 0)
(9.91567 0.0276726 0)
(9.88634 0.0400126 0)
(9.84344 0.0497398 0)
(9.80085 0.0541902 0)
(9.77185 0.0561961 0)
(9.75991 0.0607194 0)
(9.7578 0.0700423 0)
(9.7534 0.0824333 0)
(9.73639 0.0944047 0)
(9.702 0.103421 0)
(9.65114 0.108912 0)
(9.58812 0.111718 0)
(9.51775 0.113061 0)
(9.44363 0.113881 0)
(9.36776 0.114672 0)
(9.29106 0.115593 0)
(9.21382 0.116649 0)
(9.13605 0.117808 0)
(9.05767 0.119045 0)
(8.97863 0.12035 0)
(8.89886 0.121722 0)
(8.81831 0.123161 0)
(8.73692 0.124669 0)
(8.65464 0.126246 0)
(8.57143 0.127894 0)
(8.48723 0.129613 0)
(8.402 0.131404 0)
(8.31567 0.133267 0)
(8.22821 0.135202 0)
(8.13955 0.13721 0)
(8.04965 0.139292 0)
(7.95844 0.141446 0)
(7.86588 0.143674 0)
(7.7719 0.145974 0)
(7.67646 0.148347 0)
(7.57949 0.150791 0)
(7.48095 0.153307 0)
(7.38077 0.155893 0)
(7.27889 0.158547 0)
(7.17526 0.161269 0)
(7.06982 0.164056 0)
(6.96252 0.166907 0)
(6.85329 0.169818 0)
(6.74208 0.172786 0)
(6.62883 0.175809 0)
(6.51348 0.178883 0)
(6.39598 0.182005 0)
(6.27627 0.18517 0)
(6.15429 0.188376 0)
(6.03 0.191619 0)
(5.90334 0.194893 0)
(5.77426 0.198193 0)
(5.64272 0.201513 0)
(5.50864 0.204837 0)
(5.37201 0.208154 0)
(5.23276 0.211451 0)
(5.09088 0.214721 0)
(4.94633 0.217957 0)
(4.79907 0.22115 0)
(4.64908 0.22429 0)
(4.49635 0.227365 0)
(4.34084 0.230363 0)
(4.18257 0.233273 0)
(4.02152 0.236083 0)
(3.8577 0.238783 0)
(3.69112 0.241362 0)
(3.52182 0.24381 0)
(3.34981 0.246118 0)
(3.17514 0.248279 0)
(2.99787 0.250286 0)
(2.81805 0.252135 0)
(2.63578 0.253824 0)
(2.45113 0.25535 0)
(2.26421 0.256717 0)
(2.07513 0.257926 0)
(1.88403 0.258983 0)
(1.69105 0.259895 0)
(1.49634 0.26067 0)
(1.30007 0.261316 0)
(1.10243 0.261843 0)
(0.903598 0.262259 0)
(0.703781 0.262576 0)
(0.503197 0.262798 0)
(0.302051 0.262978 0)
(0.10046 0.262694 0)
(10.0633 0.00707332 0)
(10.1691 0.0331877 0)
(10.144 0.0367899 0)
(10.0869 0.0577855 0)
(10.0268 0.0753876 0)
(9.98872 0.0636784 0)
(9.95997 0.0335225 0)
(9.93533 0.0208273 0)
(9.92623 0.0385326 0)
(9.9337 0.0633568 0)
(9.94346 0.0693954 0)
(9.94058 0.0565128 0)
(9.91957 0.0445363 0)
(9.88468 0.0500487 0)
(9.84537 0.071734 0)
(9.81066 0.0938613 0)
(9.78471 0.100536 0)
(9.76672 0.0871203 0)
(9.75379 0.0625352 0)
(9.7421 0.0426061 0)
(9.7269 0.0397229 0)
(9.70367 0.0563662 0)
(9.66973 0.0860663 0)
(9.62452 0.118967 0)
(9.56902 0.147194 0)
(9.50537 0.167236 0)
(9.43614 0.179402 0)
(9.36356 0.185934 0)
(9.28906 0.189273 0)
(9.21343 0.191197 0)
(9.13705 0.192699 0)
(9.06004 0.194213 0)
(8.9824 0.195874 0)
(8.90408 0.197697 0)
(8.82502 0.199667 0)
(8.74518 0.201769 0)
(8.6645 0.203996 0)
(8.58293 0.206343 0)
(8.50044 0.20881 0)
(8.41697 0.211398 0)
(8.33247 0.214108 0)
(8.2469 0.21694 0)
(8.16022 0.219896 0)
(8.07236 0.222976 0)
(7.9833 0.226183 0)
(7.89296 0.229516 0)
(7.80132 0.232976 0)
(7.70831 0.236564 0)
(7.61389 0.240281 0)
(7.51801 0.244125 0)
(7.42062 0.248098 0)
(7.32166 0.252198 0)
(7.2211 0.256426 0)
(7.11888 0.26078 0)
(7.01495 0.26526 0)
(6.90927 0.269862 0)
(6.80178 0.274586 0)
(6.69243 0.279428 0)
(6.58118 0.284385 0)
(6.46799 0.289454 0)
(6.3528 0.294631 0)
(6.23557 0.299912 0)
(6.11627 0.305293 0)
(5.99483 0.310768 0)
(5.87124 0.316333 0)
(5.74543 0.32198 0)
(5.61738 0.327699 0)
(5.48705 0.33348 0)
(5.3544 0.339318 0)
(5.2194 0.345206 0)
(5.08203 0.351135 0)
(4.94225 0.357095 0)
(4.80004 0.363072 0)
(4.65538 0.369051 0)
(4.50825 0.375018 0)
(4.35864 0.380957 0)
(4.20653 0.386852 0)
(4.05191 0.392685 0)
(3.89479 0.398439 0)
(3.73516 0.404096 0)
(3.57303 0.409637 0)
(3.40843 0.415043 0)
(3.24137 0.420295 0)
(3.07188 0.425375 0)
(2.9 0.430264 0)
(2.72578 0.434943 0)
(2.54928 0.439395 0)
(2.37057 0.443602 0)
(2.18973 0.447548 0)
(2.00685 0.451219 0)
(1.82205 0.4546 0)
(1.63545 0.457678 0)
(1.44718 0.460442 0)
(1.25741 0.462881 0)
(1.06629 0.464986 0)
(0.874011 0.466748 0)
(0.680758 0.468163 0)
(0.486727 0.469224 0)
(0.29217 0.470021 0)
(0.0971636 0.469685 0)
(9.97138 0.122038 0)
(10.0282 0.0608301 0)
(10.0124 0.101689 0)
(9.99845 0.104692 0)
(9.98501 0.0700543 0)
(9.97232 0.046784 0)
(9.95427 0.0436444 0)
(9.93474 0.0379796 0)
(9.92317 0.0198803 0)
(9.92077 0.00568427 0)
(9.91859 0.0135884 0)
(9.90806 0.0410506 0)
(9.8905 0.070067 0)
(9.87442 0.0867985 0)
(9.86462 0.0909209 0)
(9.8565 0.0889188 0)
(9.84075 0.0849097 0)
(9.8124 0.0801708 0)
(9.77502 0.0772521 0)
(9.73621 0.0812816 0)
(9.70045 0.0968959 0)
(9.66659 0.124309 0)
(9.63028 0.158581 0)
(9.58735 0.192546 0)
(9.53573 0.22055 0)
(9.47578 0.240347 0)
(9.40947 0.252686 0)
(9.33899 0.259767 0)
(9.26594 0.263864 0)
(9.19126 0.266616 0)
(9.11546 0.26895 0)
(9.03877 0.271278 0)
(8.96126 0.273746 0)
(8.88294 0.276383 0)
(8.80382 0.279192 0)
(8.72384 0.282166 0)
(8.643 0.285304 0)
(8.56123 0.288605 0)
(8.4785 0.292071 0)
(8.39477 0.295703 0)
(8.30998 0.299503 0)
(8.22409 0.303472 0)
(8.13704 0.307611 0)
(8.0488 0.311922 0)
(7.95931 0.316406 0)
(7.86853 0.321063 0)
(7.77639 0.325894 0)
(7.68286 0.330901 0)
(7.58788 0.336083 0)
(7.49141 0.34144 0)
(7.39339 0.346972 0)
(7.29377 0.352678 0)
(7.19251 0.358559 0)
(7.08955 0.364611 0)
(6.98485 0.370834 0)
(6.87835 0.377226 0)
(6.77002 0.383783 0)
(6.65979 0.390504 0)
(6.54763 0.397383 0)
(6.4335 0.404417 0)
(6.31734 0.411601 0)
(6.19911 0.418928 0)
(6.07878 0.426394 0)
(5.95631 0.433988 0)
(5.83165 0.441704 0)
(5.70478 0.449531 0)
(5.57566 0.457458 0)
(5.44426 0.465476 0)
(5.31055 0.473573 0)
(5.17452 0.481736 0)
(5.03614 0.48995 0)
(4.89539 0.498199 0)
(4.75226 0.506464 0)
(4.60675 0.514728 0)
(4.45885 0.522971 0)
(4.30856 0.531175 0)
(4.15588 0.539319 0)
(4.00083 0.547383 0)
(3.84342 0.555344 0)
(3.68367 0.563181 0)
(3.52161 0.57087 0)
(3.35728 0.578388 0)
(3.19071 0.585711 0)
(3.02195 0.592814 0)
(2.85106 0.599673 0)
(2.67809 0.606263 0)
(2.50313 0.612557 0)
(2.32624 0.618533 0)
(2.14752 0.624164 0)
(1.96706 0.629428 0)
(1.78498 0.6343 0)
(1.60137 0.638758 0)
(1.41638 0.64278 0)
(1.23014 0.646348 0)
(1.04279 0.649443 0)
(0.854481 0.652049 0)
(0.66538 0.654153 0)
(0.475639 0.655734 0)
(0.285486 0.656889 0)
(0.0949418 0.656407 0)
(10.072 0.0767981 0)
(10.0897 0.0274313 0)
(10.1041 0.0608767 0)
(10.1016 0.0996567 0)
(10.0751 0.116315 0)
(10.0458 0.100289 0)
(10.0265 0.0701036 0)
(10.0099 0.0508044 0)
(9.98725 0.0529589 0)
(9.96075 0.0690519 0)
(9.93902 0.084165 0)
(9.92669 0.0878071 0)
(9.91899 0.0813363 0)
(9.90627 0.0776727 0)
(9.88248 0.0899981 0)
(9.84834 0.117831 0)
(9.80875 0.144919 0)
(9.7696 0.153275 0)
(9.7357 0.139816 0)
(9.70854 0.119235 0)
(9.68518 0.111877 0)
(9.66026 0.129112 0)
(9.62897 0.167942 0)
(9.58848 0.216092 0)
(9.538 0.260853 0)
(9.47862 0.294908 0)
(9.41252 0.317105 0)
(9.34204 0.330055 0)
(9.26887 0.337335 0)
(9.19406 0.341816 0)
(9.11818 0.345229 0)
(9.04147 0.348403 0)
(8.96401 0.351657 0)
(8.88579 0.355087 0)
(8.80678 0.358715 0)
(8.72695 0.362544 0)
(8.64624 0.366577 0)
(8.56462 0.370816 0)
(8.48203 0.375264 0)
(8.39844 0.379925 0)
(8.31379 0.384801 0)
(8.22803 0.389894 0)
(8.14112 0.395207 0)
(8.05301 0.400741 0)
(7.96364 0.406498 0)
(7.87297 0.412479 0)
(7.78095 0.418684 0)
(7.68752 0.425115 0)
(7.59263 0.431773 0)
(7.49625 0.438656 0)
(7.3983 0.445766 0)
(7.29875 0.453101 0)
(7.19753 0.46066 0)
(7.09461 0.468442 0)
(6.98993 0.476445 0)
(6.88344 0.484665 0)
(6.77509 0.4931 0)
(6.66483 0.501746 0)
(6.55262 0.510597 0)
(6.43841 0.519649 0)
(6.32215 0.528895 0)
(6.2038 0.538327 0)
(6.08332 0.547937 0)
(5.96067 0.557714 0)
(5.8358 0.56765 0)
(5.70869 0.57773 0)
(5.57929 0.587944 0)
(5.44759 0.598276 0)
(5.31354 0.608712 0)
(5.17714 0.619234 0)
(5.03835 0.629826 0)
(4.89717 0.640467 0)
(4.75357 0.651135 0)
(4.60756 0.66181 0)
(4.45914 0.672469 0)
(4.30831 0.683086 0)
(4.15507 0.693635 0)
(3.99945 0.70409 0)
(3.84147 0.714423 0)
(3.68115 0.724605 0)
(3.51854 0.734606 0)
(3.35367 0.744394 0)
(3.18659 0.753939 0)
(3.01737 0.763208 0)
(2.84607 0.772169 0)
(2.67277 0.780788 0)
(2.49753 0.789031 0)
(2.32046 0.796866 0)
(2.14164 0.804258 0)
(1.96119 0.811176 0)
(1.77922 0.817587 0)
(1.59584 0.823459 0)
(1.41117 0.828763 0)
(1.22537 0.833471 0)
(1.03855 0.837557 0)
(0.850871 0.840999 0)
(0.66248 0.843778 0)
(0.473518 0.845865 0)
(0.284195 0.847382 0)
(0.0945116 0.846772 0)
(9.98118 0.0676288 0)
(9.98134 0.0503476 0)
(9.96213 0.0820239 0)
(9.95501 0.117491 0)
(9.96442 0.117197 0)
(9.98863 0.0970008 0)
(10.0079 0.0827351 0)
(10.0028 0.0773762 0)
(9.98021 0.0675502 0)
(9.95626 0.0514823 0)
(9.93863 0.0442346 0)
(9.92599 0.0578068 0)
(9.91259 0.0879776 0)
(9.89141 0.121581 0)
(9.85895 0.148184 0)
(9.81903 0.162763 0)
(9.78053 0.16349 0)
(9.7516 0.152141 0)
(9.73476 0.136779 0)
(9.72519 0.130228 0)
(9.71342 0.143199 0)
(9.69106 0.177966 0)
(9.65479 0.227753 0)
(9.60592 0.281306 0)
(9.54766 0.328624 0)
(9.48312 0.364403 0)
(9.41464 0.388255 0)
(9.34364 0.402804 0)
(9.27085 0.411476 0)
(9.19667 0.417088 0)
(9.12135 0.421422 0)
(9.04509 0.425399 0)
(8.96797 0.429416 0)
(8.89003 0.433615 0)
(8.81127 0.438043 0)
(8.73168 0.442714 0)
(8.65121 0.447633 0)
(8.56982 0.452807 0)
(8.48748 0.458238 0)
(8.40413 0.46393 0)
(8.31972 0.469886 0)
(8.23422 0.476109 0)
(8.14756 0.482601 0)
(8.0597 0.489363 0)
(7.97059 0.496398 0)
(7.88018 0.503708 0)
(7.78841 0.511293 0)
(7.69524 0.519155 0)
(7.60062 0.527294 0)
(7.50449 0.53571 0)
(7.4068 0.544404 0)
(7.30751 0.553374 0)
(7.20655 0.56262 0)
(7.10388 0.572139 0)
(6.99945 0.581929 0)
(6.8932 0.591988 0)
(6.78509 0.60231 0)
(6.67507 0.612892 0)
(6.56309 0.623728 0)
(6.44909 0.634811 0)
(6.33304 0.646133 0)
(6.21488 0.657685 0)
(6.09458 0.669457 0)
(5.9721 0.681438 0)
(5.84738 0.693614 0)
(5.7204 0.705971 0)
(5.59111 0.718494 0)
(5.4595 0.731166 0)
(5.32552 0.743968 0)
(5.18915 0.75688 0)
(5.05037 0.769879 0)
(4.90916 0.782942 0)
(4.76552 0.796045 0)
(4.61942 0.809159 0)
(4.47088 0.822257 0)
(4.31989 0.835308 0)
(4.16646 0.84828 0)
(4.01061 0.861139 0)
(3.85235 0.873851 0)
(3.69173 0.886378 0)
(3.52876 0.898685 0)
(3.36351 0.910731 0)
(3.19602 0.922477 0)
(3.02635 0.933883 0)
(2.85457 0.944908 0)
(2.68076 0.955511 0)
(2.505 0.96565 0)
(2.32739 0.975283 0)
(2.14801 0.98437 0)
(1.967 0.992871 0)
(1.78445 1.00075 0)
(1.60049 1.00796 0)
(1.41526 1.01447 0)
(1.22889 1.02025 0)
(1.04151 1.02527 0)
(0.853277 1.02949 0)
(0.664343 1.0329 0)
(0.474845 1.03547 0)
(0.284992 1.03733 0)
(0.0947781 1.03659 0)
(10.0427 0.0222515 0)
(10.079 0.0659313 0)
(10.0569 0.0961484 0)
(10.0329 0.112793 0)
(10.0167 0.0837337 0)
(10.0091 0.0523427 0)
(10.0043 0.0539665 0)
(10.0002 0.07924 0)
(9.9921 0.102558 0)
(9.97118 0.114415 0)
(9.93341 0.118193 0)
(9.88802 0.117695 0)
(9.85216 0.118784 0)
(9.83582 0.131854 0)
(9.83353 0.161729 0)
(9.83057 0.196275 0)
(9.81579 0.213061 0)
(9.78931 0.199809 0)
(9.75978 0.167308 0)
(9.73507 0.142305 0)
(9.71539 0.147975 0)
(9.69411 0.189561 0)
(9.6636 0.254841 0)
(9.61988 0.324942 0)
(9.56345 0.385059 0)
(9.49764 0.428895 0)
(9.42637 0.457246 0)
(9.35253 0.47431 0)
(9.2776 0.484599 0)
(9.20211 0.491455 0)
(9.12616 0.496858 0)
(9.04969 0.501799 0)
(8.97261 0.506711 0)
(8.89483 0.511772 0)
(8.8163 0.517056 0)
(8.73696 0.522599 0)
(8.65676 0.528421 0)
(8.57566 0.534535 0)
(8.4936 0.54095 0)
(8.41054 0.547673 0)
(8.32643 0.554707 0)
(8.24122 0.562056 0)
(8.15486 0.569724 0)
(8.0673 0.577712 0)
(7.97849 0.586024 0)
(7.88839 0.59466 0)
(7.79693 0.603623 0)
(7.70407 0.612913 0)
(7.60975 0.622533 0)
(7.51393 0.632481 0)
(7.41655 0.642759 0)
(7.31756 0.653364 0)
(7.21691 0.664297 0)
(7.11455 0.675556 0)
(7.01042 0.687136 0)
(6.90448 0.699036 0)
(6.79666 0.71125 0)
(6.68693 0.723773 0)
(6.57523 0.736599 0)
(6.46151 0.749719 0)
(6.34573 0.763126 0)
(6.22783 0.776808 0)
(6.10778 0.790753 0)
(5.98553 0.804948 0)
(5.86103 0.819379 0)
(5.73425 0.834029 0)
(5.60516 0.848879 0)
(5.47371 0.863909 0)
(5.33987 0.879097 0)
(5.20363 0.89442 0)
(5.06494 0.909851 0)
(4.92381 0.925363 0)
(4.7802 0.940925 0)
(4.63412 0.956505 0)
(4.48554 0.972069 0)
(4.33449 0.987581 0)
(4.18096 1.003 0)
(4.02496 1.01829 0)
(3.86652 1.03341 0)
(3.70567 1.04831 0)
(3.54244 1.06294 0)
(3.37686 1.07727 0)
(3.20901 1.09124 0)
(3.03892 1.10481 0)
(2.86668 1.11792 0)
(2.69236 1.13053 0)
(2.51604 1.14259 0)
(2.33781 1.15404 0)
(2.15779 1.16484 0)
(1.97608 1.17494 0)
(1.7928 1.18429 0)
(1.60807 1.19285 0)
(1.42204 1.20058 0)
(1.23482 1.20744 0)
(1.04658 1.21339 0)
(0.857461 1.2184 0)
(0.667619 1.22245 0)
(0.477198 1.22548 0)
(0.286409 1.22769 0)
(0.0952518 1.22681 0)
(10.0405 0.10773 0)
(10.0804 0.0635352 0)
(10.0829 0.1115 0)
(10.0815 0.153138 0)
(10.0649 0.145174 0)
(10.0476 0.114071 0)
(10.0387 0.0923398 0)
(10.0338 0.087019 0)
(10.0205 0.0921205 0)
(9.99421 0.104743 0)
(9.9631 0.122106 0)
(9.93758 0.135264 0)
(9.92022 0.138534 0)
(9.90775 0.140139 0)
(9.89784 0.153956 0)
(9.89019 0.181023 0)
(9.88285 0.204581 0)
(9.87111 0.207097 0)
(9.85061 0.189732 0)
(9.8199 0.173546 0)
(9.78002 0.182996 0)
(9.73316 0.228265 0)
(9.6811 0.300467 0)
(9.62448 0.380191 0)
(9.56315 0.449804 0)
(9.49726 0.500618 0)
(9.42767 0.532801 0)
(9.35552 0.551306 0)
(9.28171 0.561797 0)
(9.20683 0.568503 0)
(9.13118 0.573859 0)
(9.05491 0.578989 0)
(8.97801 0.584313 0)
(8.90045 0.589954 0)
(8.82216 0.595937 0)
(8.7431 0.602267 0)
(8.6632 0.608945 0)
(8.58241 0.615975 0)
(8.50068 0.62336 0)
(8.41795 0.631105 0)
(8.33418 0.639211 0)
(8.24931 0.647683 0)
(8.16329 0.656523 0)
(8.07608 0.665734 0)
(7.98762 0.675319 0)
(7.89787 0.68528 0)
(7.80676 0.695619 0)
(7.71425 0.706338 0)
(7.62029 0.717437 0)
(7.52483 0.728917 0)
(7.42781 0.740778 0)
(7.32917 0.753021 0)
(7.22888 0.765642 0)
(7.12687 0.778642 0)
(7.02308 0.792016 0)
(6.91748 0.805761 0)
(6.81001 0.819871 0)
(6.70061 0.834342 0)
(6.58923 0.849165 0)
(6.47583 0.864331 0)
(6.36036 0.879832 0)
(6.24276 0.895655 0)
(6.12298 0.911786 0)
(6.001 0.928211 0)
(5.87675 0.944913 0)
(5.75021 0.961872 0)
(5.62132 0.979069 0)
(5.49006 0.996479 0)
(5.3564 1.01408 0)
(5.22029 1.03184 0)
(5.08172 1.04973 0)
(4.94066 1.06772 0)
(4.7971 1.08577 0)
(4.65103 1.10385 0)
(4.50243 1.12192 0)
(4.35131 1.13993 0)
(4.19767 1.15784 0)
(4.04152 1.1756 0)
(3.88288 1.19317 0)
(3.72177 1.21049 0)
(3.55824 1.22751 0)
(3.39232 1.24417 0)
(3.22405 1.26042 0)
(3.05351 1.2762 0)
(2.88075 1.29146 0)
(2.70586 1.30613 0)
(2.52891 1.32016 0)
(2.35001 1.33348 0)
(2.16925 1.34605 0)
(1.98675 1.3578 0)
(1.80263 1.36868 0)
(1.61701 1.37864 0)
(1.43004 1.38763 0)
(1.24185 1.3956 0)
(1.0526 1.40252 0)
(0.86243 1.40834 0)
(0.671514 1.41304 0)
(0.479997 1.41657 0)
(0.288096 1.41913 0)
(0.0958147 1.41813 0)
(10.0386 0.185655 0)
(10.0481 0.0928941 0)
(10.0332 0.10512 0)
(10.0467 0.128506 0)
(10.0674 0.108177 0)
(10.074 0.0716086 0)
(10.0617 0.0665832 0)
(10.0351 0.101436 0)
(9.99956 0.148333 0)
(9.96175 0.177943 0)
(9.92938 0.180461 0)
(9.9082 0.164956 0)
(9.89867 0.150051 0)
(9.89453 0.152862 0)
(9.88684 0.177476 0)
(9.86986 0.21096 0)
(9.84379 0.233106 0)
(9.81381 0.233156 0)
(9.78609 0.219545 0)
(9.7627 0.213946 0)
(9.73974 0.235569 0)
(9.71073 0.289152 0)
(9.67152 0.364329 0)
(9.62174 0.443846 0)
(9.56322 0.513007 0)
(9.49836 0.564689 0)
(9.42938 0.599025 0)
(9.35787 0.620188 0)
(9.28477 0.633137 0)
(9.2106 0.641794 0)
(9.13561 0.648601 0)
(9.05993 0.654835 0)
(8.98356 0.661072 0)
(8.90647 0.667549 0)
(8.82862 0.674356 0)
(8.74997 0.681531 0)
(8.67047 0.689091 0)
(8.59008 0.697047 0)
(8.50873 0.705406 0)
(8.42639 0.714171 0)
(8.34301 0.723348 0)
(8.25854 0.73294 0)
(8.17292 0.742951 0)
(8.0861 0.753383 0)
(7.99804 0.764239 0)
(7.90869 0.775523 0)
(7.81799 0.787236 0)
(7.72589 0.799381 0)
(7.63233 0.811959 0)
(7.53728 0.824971 0)
(7.44066 0.838417 0)
(7.34244 0.852298 0)
(7.24255 0.86661 0)
(7.14094 0.881354 0)
(7.03755 0.896525 0)
(6.93235 0.91212 0)
(6.82526 0.928133 0)
(6.71624 0.944558 0)
(6.60524 0.961387 0)
(6.4922 0.97861 0)
(6.37708 0.996216 0)
(6.25982 1.01419 0)
(6.14037 1.03253 0)
(6.01869 1.0512 0)
(5.89473 1.07019 0)
(5.76846 1.08948 0)
(5.63982 1.10904 0)
(5.50877 1.12886 0)
(5.3753 1.1489 0)
(5.23935 1.16912 0)
(5.10091 1.1895 0)
(4.95994 1.21001 0)
(4.81644 1.23059 0)
(4.67037 1.25121 0)
(4.52174 1.27182 0)
(4.37054 1.29237 0)
(4.21678 1.31282 0)
(4.06045 1.33311 0)
(3.90158 1.35318 0)
(3.74019 1.37297 0)
(3.57631 1.39243 0)
(3.40998 1.41148 0)
(3.24125 1.43007 0)
(3.07018 1.44813 0)
(2.89683 1.46559 0)
(2.72128 1.48239 0)
(2.54361 1.49845 0)
(2.36393 1.51371 0)
(2.18233 1.5281 0)
(1.99893 1.54156 0)
(1.81384 1.55402 0)
(1.62721 1.56543 0)
(1.43917 1.57573 0)
(1.24987 1.58487 0)
(1.05946 1.59279 0)
(0.868098 1.59946 0)
(0.675956 1.60484 0)
(0.483189 1.60888 0)
(0.290018 1.61181 0)
(0.0964565 1.61069 0)
(9.94875 -0.045151 0)
(9.94102 0.0155684 0)
(9.97856 0.09025 0)
(9.98192 0.122956 0)
(9.98638 0.127477 0)
(9.98226 0.123079 0)
(9.96332 0.128851 0)
(9.9425 0.144172 0)
(9.93531 0.158543 0)
(9.94073 0.167206 0)
(9.9422 0.169276 0)
(9.92691 0.162924 0)
(9.8995 0.152416 0)
(9.8744 0.153384 0)
(9.85879 0.179972 0)
(9.8469 0.224763 0)
(9.82894 0.260011 0)
(9.80256 0.26308 0)
(9.77487 0.239349 0)
(9.75374 0.21947 0)
(9.73915 0.235029 0)
(9.72325 0.296252 0)
(9.69669 0.38904 0)
(9.65423 0.488287 0)
(9.59629 0.573225 0)
(9.5271 0.634672 0)
(9.45184 0.673684 0)
(9.37445 0.69641 0)
(9.29698 0.70954 0)
(9.22006 0.718041 0)
(9.14359 0.724815 0)
(9.06725 0.731257 0)
(8.99072 0.737919 0)
(8.91374 0.74498 0)
(8.83615 0.752487 0)
(8.75784 0.760446 0)
(8.67872 0.768859 0)
(8.59873 0.777725 0)
(8.5178 0.787047 0)
(8.43589 0.796828 0)
(8.35295 0.807071 0)
(8.26891 0.81778 0)
(8.18373 0.828957 0)
(8.09737 0.840607 0)
(8.00976 0.852732 0)
(7.92086 0.865337 0)
(7.83062 0.878423 0)
(7.73898 0.891993 0)
(7.64588 0.906049 0)
(7.55129 0.920592 0)
(7.45513 0.935623 0)
(7.35737 0.951142 0)
(7.25793 0.967148 0)
(7.15678 0.983639 0)
(7.05385 1.00061 0)
(6.94909 1.01806 0)
(6.84245 1.03598 0)
(6.73386 1.05437 0)
(6.62329 1.07321 0)
(6.51066 1.09251 0)
(6.39594 1.11223 0)
(6.27906 1.13238 0)
(6.15999 1.15293 0)
(6.03866 1.17386 0)
(5.91503 1.19517 0)
(5.78906 1.21681 0)
(5.66071 1.23877 0)
(5.52992 1.26102 0)
(5.39666 1.28353 0)
(5.2609 1.30625 0)
(5.12261 1.32916 0)
(4.98175 1.35222 0)
(4.83831 1.37537 0)
(4.69227 1.39857 0)
(4.54361 1.42178 0)
(4.39233 1.44493 0)
(4.23842 1.46797 0)
(4.0819 1.49083 0)
(3.92277 1.51346 0)
(3.76105 1.53579 0)
(3.59678 1.55775 0)
(3.43 1.57926 0)
(3.26074 1.60026 0)
(3.08908 1.62066 0)
(2.91506 1.64039 0)
(2.73877 1.65938 0)
(2.56029 1.67754 0)
(2.37972 1.6948 0)
(2.19716 1.71108 0)
(2.01273 1.72631 0)
(1.82656 1.74042 0)
(1.63878 1.75333 0)
(1.44953 1.76499 0)
(1.25896 1.77533 0)
(1.06724 1.78431 0)
(0.874521 1.79186 0)
(0.68099 1.79796 0)
(0.486805 1.80253 0)
(0.292197 1.80585 0)
(0.0971834 1.80461 0)
(10.1048 0.0582993 0)
(10.0777 0.0683719 0)
(10.0266 0.112264 0)
(10.0111 0.1249 0)
(10.0175 0.109428 0)
(10.016 0.0982544 0)
(10.0024 0.111288 0)
(9.9878 0.136269 0)
(9.97972 0.15815 0)
(9.97195 0.178669 0)
(9.9543 0.199786 0)
(9.92528 0.210119 0)
(9.89116 0.202169 0)
(9.85852 0.191523 0)
(9.83122 0.203175 0)
(9.81012 0.240713 0)
(9.79368 0.278577 0)
(9.77983 0.288437 0)
(9.76734 0.269292 0)
(9.75485 0.250148 0)
(9.73932 0.265768 0)
(9.7166 0.330659 0)
(9.68326 0.432243 0)
(9.6378 0.543237 0)
(9.58099 0.639117 0)
(9.51552 0.708061 0)
(9.44475 0.750677 0)
(9.37147 0.774222 0)
(9.29727 0.786868 0)
(9.22275 0.794662 0)
(9.148 0.801019 0)
(9.0729 0.807439 0)
(8.9973 0.814408 0)
(8.92106 0.822001 0)
(8.8441 0.830185 0)
(8.76635 0.838918 0)
(8.68776 0.848176 0)
(8.60827 0.857949 0)
(8.52784 0.868231 0)
(8.44642 0.879024 0)
(8.36396 0.890329 0)
(8.28042 0.90215 0)
(8.19574 0.914491 0)
(8.10988 0.927355 0)
(8.02277 0.940746 0)
(7.93438 0.954668 0)
(7.84465 0.969125 0)
(7.75352 0.984118 0)
(7.66094 0.999651 0)
(7.56685 1.01573 0)
(7.47121 1.03234 0)
(7.37396 1.0495 0)
(7.27504 1.0672 0)
(7.1744 1.08544 0)
(7.07198 1.10422 0)
(6.96772 1.12353 0)
(6.86157 1.14337 0)
(6.75348 1.16373 0)
(6.64338 1.1846 0)
(6.53122 1.20597 0)
(6.41695 1.22783 0)
(6.30051 1.25016 0)
(6.18186 1.27294 0)
(6.06093 1.29617 0)
(5.93768 1.3198 0)
(5.81206 1.34383 0)
(5.68402 1.36821 0)
(5.55353 1.39293 0)
(5.42053 1.41793 0)
(5.28499 1.4432 0)
(5.14687 1.46868 0)
(5.00615 1.49433 0)
(4.86279 1.5201 0)
(4.71678 1.54594 0)
(4.5681 1.57179 0)
(4.41673 1.59759 0)
(4.26268 1.62329 0)
(4.10594 1.6488 0)
(3.94653 1.67405 0)
(3.78447 1.69899 0)
(3.61977 1.72351 0)
(3.45248 1.74756 0)
(3.28265 1.77103 0)
(3.11031 1.79385 0)
(2.93555 1.81593 0)
(2.75843 1.83719 0)
(2.57904 1.85753 0)
(2.39748 1.87686 0)
(2.21385 1.89511 0)
(2.02827 1.91218 0)
(1.84087 1.928 0)
(1.6518 1.94248 0)
(1.46118 1.95556 0)
(1.26919 1.96717 0)
(1.07599 1.97724 0)
(0.881753 1.98571 0)
(0.686657 1.99256 0)
(0.490876 1.99769 0)
(0.294649 2.00141 0)
(0.0980019 2.00007 0)
(9.9096 0.0396947 0)
(9.89341 0.0847648 0)
(9.94029 0.11866 0)
(9.97804 0.122109 0)
(9.99701 0.119829 0)
(9.99456 0.132829 0)
(9.98282 0.150058 0)
(9.96821 0.158819 0)
(9.95105 0.166602 0)
(9.93322 0.185722 0)
(9.92036 0.211165 0)
(9.91699 0.224942 0)
(9.92032 0.220716 0)
(9.91938 0.215339 0)
(9.90283 0.229914 0)
(9.86808 0.263124 0)
(9.82169 0.289962 0)
(9.77398 0.288085 0)
(9.73414 0.263168 0)
(9.70626 0.247218 0)
(9.68741 0.273469 0)
(9.66985 0.352561 0)
(9.64573 0.468302 0)
(9.61037 0.591309 0)
(9.56292 0.696344 0)
(9.50537 0.771687 0)
(9.44079 0.818466 0)
(9.37196 0.844599 0)
(9.30072 0.858867 0)
(9.22807 0.867768 0)
(9.1545 0.874992 0)
(9.0802 0.882189 0)
(9.00522 0.889915 0)
(8.92952 0.898278 0)
(8.85307 0.90726 0)
(8.77583 0.916827 0)
(8.69775 0.926961 0)
(8.61878 0.937652 0)
(8.53888 0.9489 0)
(8.45799 0.960705 0)
(8.37608 0.97307 0)
(8.29307 0.986001 0)
(8.20894 0.999502 0)
(8.12363 1.01358 0)
(8.03708 1.02823 0)
(7.94924 1.04347 0)
(7.86007 1.05929 0)
(7.7695 1.0757 0)
(7.67749 1.09271 0)
(7.58398 1.11032 0)
(7.48891 1.12852 0)
(7.39223 1.14732 0)
(7.29388 1.16672 0)
(7.1938 1.18671 0)
(7.09194 1.2073 0)
(6.98824 1.22847 0)
(6.88264 1.25024 0)
(6.77509 1.27257 0)
(6.66553 1.29548 0)
(6.55389 1.31894 0)
(6.44013 1.34295 0)
(6.32418 1.36748 0)
(6.206 1.39252 0)
(6.08552 1.41806 0)
(5.9627 1.44405 0)
(5.83747 1.47048 0)
(5.7098 1.49732 0)
(5.57964 1.52454 0)
(5.44693 1.55209 0)
(5.31165 1.57993 0)
(5.17374 1.60803 0)
(5.03317 1.63632 0)
(4.88992 1.66476 0)
(4.74396 1.6933 0)
(4.59526 1.72186 0)
(4.44382 1.75038 0)
(4.28962 1.77879 0)
(4.13266 1.80701 0)
(3.97295 1.83497 0)
(3.81051 1.86259 0)
(3.64535 1.88976 0)
(3.47751 1.91642 0)
(3.30704 1.94246 0)
(3.13397 1.96779 0)
(2.95839 1.9923 0)
(2.78035 2.01591 0)
(2.59996 2.03852 0)
(2.4173 2.06001 0)
(2.23248 2.08031 0)
(2.04562 2.09931 0)
(1.85686 2.11691 0)
(1.66634 2.13304 0)
(1.47421 2.14761 0)
(1.28063 2.16053 0)
(1.08578 2.17175 0)
(0.889838 2.1812 0)
(0.692994 2.18883 0)
(0.495429 2.19456 0)
(0.297391 2.1987 0)
(0.0989172 2.19727 0)
(10.0218 0.0211426 0)
(10.0598 0.0239885 0)
(10.0525 0.0645499 0)
(10.041 0.0937313 0)
(10.0113 0.105366 0)
(9.9784 0.119971 0)
(9.96646 0.146708 0)
(9.97192 0.177075 0)
(9.97385 0.200975 0)
(9.95914 0.215681 0)
(9.93165 0.219629 0)
(9.90327 0.210676 0)
(9.88199 0.198277 0)
(9.86852 0.206355 0)
(9.85883 0.251897 0)
(9.84692 0.320817 0)
(9.82734 0.373065 0)
(9.79792 0.376718 0)
(9.76108 0.337974 0)
(9.72218 0.298407 0)
(9.68602 0.303911 0)
(9.65379 0.373681 0)
(9.62273 0.492496 0)
(9.58809 0.626277 0)
(9.54591 0.743869 0)
(9.49486 0.829648 0)
(9.43603 0.883493 0)
(9.37153 0.913788 0)
(9.30332 0.930333 0)
(9.23276 0.94052 0)
(9.16067 0.948606 0)
(9.08748 0.956527 0)
(9.01338 0.964961 0)
(8.93844 0.97406 0)
(8.86267 0.983817 0)
(8.78606 0.994205 0)
(8.70858 1.0052 0)
(8.63021 1.01681 0)
(8.55089 1.02901 0)
(8.47059 1.04183 0)
(8.38926 1.05525 0)
(8.30686 1.06928 0)
(8.22332 1.08394 0)
(8.13861 1.09922 0)
(8.05267 1.11513 0)
(7.96544 1.13168 0)
(7.87689 1.14886 0)
(7.78694 1.1667 0)
(7.69555 1.18518 0)
(7.60266 1.20431 0)
(7.50822 1.2241 0)
(7.41216 1.24454 0)
(7.31444 1.26563 0)
(7.21498 1.28738 0)
(7.11374 1.30978 0)
(7.01066 1.33283 0)
(6.90567 1.35653 0)
(6.79872 1.38085 0)
(6.68975 1.40581 0)
(6.57869 1.43138 0)
(6.46549 1.45754 0)
(6.35009 1.4843 0)
(6.23243 1.51162 0)
(6.11246 1.53948 0)
(5.99011 1.56786 0)
(5.86534 1.59673 0)
(5.73808 1.62606 0)
(5.60829 1.65581 0)
(5.47592 1.68595 0)
(5.34093 1.71642 0)
(5.20326 1.74718 0)
(5.06288 1.77817 0)
(4.91976 1.80934 0)
(4.77387 1.84063 0)
(4.62517 1.87196 0)
(4.47366 1.90327 0)
(4.31931 1.93447 0)
(4.16213 1.96549 0)
(4.00211 1.99624 0)
(3.83926 2.02662 0)
(3.67361 2.05654 0)
(3.50518 2.0859 0)
(3.33401 2.1146 0)
(3.16015 2.14253 0)
(2.98367 2.16958 0)
(2.80464 2.19565 0)
(2.62314 2.22061 0)
(2.43926 2.24437 0)
(2.25314 2.26681 0)
(2.06487 2.28782 0)
(1.8746 2.3073 0)
(1.68248 2.32516 0)
(1.48867 2.34129 0)
(1.29334 2.35561 0)
(1.09666 2.36804 0)
(0.898823 2.37851 0)
(0.700038 2.38697 0)
(0.50049 2.39331 0)
(0.30044 2.3979 0)
(0.0999348 2.39639 0)
(9.97316 0.107305 0)
(9.94445 0.0683061 0)
(9.93374 0.109916 0)
(9.94849 0.150533 0)
(9.96842 0.169652 0)
(9.96157 0.164363 0)
(9.94038 0.145906 0)
(9.93003 0.143144 0)
(9.93639 0.172304 0)
(9.94583 0.222119 0)
(9.94299 0.263863 0)
(9.92507 0.274776 0)
(9.90044 0.257755 0)
(9.87707 0.241164 0)
(9.85714 0.253692 0)
(9.83967 0.295943 0)
(9.82282 0.339201 0)
(9.80463 0.35378 0)
(9.7835 0.33816 0)
(9.75766 0.321613 0)
(9.72554 0.341114 0)
(9.68738 0.41508 0)
(9.64501 0.533633 0)
(9.59963 0.668278 0)
(9.55072 0.789944 0)
(9.49718 0.88195 0)
(9.43862 0.942195 0)
(9.37554 0.977735 0)
(9.30888 0.998025 0)
(9.23962 1.01072 0)
(9.16853 1.02049 0)
(9.09613 1.02963 0)
(9.02271 1.03906 0)
(8.94839 1.04906 0)
(8.87323 1.05968 0)
(8.79722 1.07094 0)
(8.72036 1.08283 0)
(8.6426 1.09535 0)
(8.5639 1.10852 0)
(8.48423 1.12234 0)
(8.40353 1.13681 0)
(8.32177 1.15194 0)
(8.23888 1.16775 0)
(8.15482 1.18423 0)
(8.06954 1.2014 0)
(7.98298 1.21925 0)
(7.89509 1.2378 0)
(7.80582 1.25704 0)
(7.71511 1.27699 0)
(7.6229 1.29765 0)
(7.52914 1.31902 0)
(7.43377 1.3411 0)
(7.33672 1.3639 0)
(7.23795 1.38741 0)
(7.13739 1.41162 0)
(7.03499 1.43655 0)
(6.93067 1.46218 0)
(6.82437 1.48851 0)
(6.71605 1.51552 0)
(6.60563 1.54321 0)
(6.49305 1.57156 0)
(6.37826 1.60055 0)
(6.26118 1.63017 0)
(6.14177 1.66039 0)
(6.01995 1.69119 0)
(5.89568 1.72253 0)
(5.76889 1.75438 0)
(5.63952 1.78671 0)
(5.50754 1.81947 0)
(5.37288 1.85262 0)
(5.23549 1.88609 0)
(5.09534 1.91984 0)
(4.95238 1.9538 0)
(4.80658 1.98791 0)
(4.6579 2.02209 0)
(4.50633 2.05627 0)
(4.35184 2.09035 0)
(4.19442 2.12425 0)
(4.03408 2.15787 0)
(3.87081 2.19112 0)
(3.70463 2.22388 0)
(3.53557 2.25605 0)
(3.36366 2.28752 0)
(3.18895 2.31816 0)
(3.0115 2.34785 0)
(2.83138 2.37648 0)
(2.64868 2.40392 0)
(2.46349 2.43004 0)
(2.27592 2.45473 0)
(2.08611 2.47786 0)
(1.89419 2.49932 0)
(1.70032 2.51899 0)
(1.50465 2.53677 0)
(1.30738 2.55256 0)
(1.10868 2.56628 0)
(0.908759 2.57783 0)
(0.707828 2.58717 0)
(0.506088 2.59417 0)
(0.303813 2.59924 0)
(0.101061 2.59765 0)
(10.0806 0.104737 0)
(10.076 0.0884368 0)
(10.0411 0.0778008 0)
(10.0394 0.0750781 0)