/*--------------------------------*- C++ -*----------------------------------*\
| =========                 |                                                 |
| \\      /  F ield         | OpenFOAM: The Open Source CFD Toolbox           |
|  \\    /   O peration     | Version:  4.1                                   |
|   \\  /    A nd           | Web:      www.OpenFOAM.org                      |
|    \\/     M anipulation  |                                                 |
\*---------------------------------------------------------------------------*/
FoamFile
{
    version     2.0;
    format      ascii;
    class       volVectorField;
    location    "0.05";
    object      UMean;
}
// * * * * * * * * * * * * * * * * * * * * * * * * * * * * * * * * * * * * * //

dimensions      [0 1 -1 0 0 0 0];

internalField   nonuniform List<vector> 
43750
(
(9.88661 0.00748883 0)
(10.0447 0.0103207 0)
(9.95273 0.0112333 0)
(9.96113 0.0118912 0)
(9.95235 0.0124937 0)
(9.93282 0.0135783 0)
(9.91083 0.0154713 0)
(9.88697 0.0173856 0)
(9.86055 0.0185191 0)
(9.83143 0.0191985 0)
(9.79954 0.0203392 0)
(9.76459 0.0222788 0)
(9.7263 0.0243658 0)
(9.68485 0.0256324 0)
(9.64082 0.0257759 0)
(9.59472 0.0254809 0)
(9.54661 0.0258377 0)
(9.49617 0.0274518 0)
(9.44296 0.0300148 0)
(9.38677 0.0326044 0)
(9.32784 0.034352 0)
(9.26685 0.0349187 0)
(9.20462 0.0345353 0)
(9.14179 0.0337189 0)
(9.07865 0.032943 0)
(9.01526 0.0324629 0)
(8.95151 0.0323212 0)
(8.88727 0.032445 0)
(8.82238 0.0327367 0)
(8.75676 0.0331212 0)
(8.69033 0.0335546 0)
(8.62306 0.034017 0)
(8.5549 0.0345016 0)
(8.4858 0.0350069 0)
(8.41572 0.0355328 0)
(8.34461 0.03608 0)
(8.27245 0.0366488 0)
(8.19917 0.0372395 0)
(8.12474 0.0378524 0)
(8.04911 0.0384875 0)
(7.97224 0.0391452 0)
(7.89407 0.0398256 0)
(7.81456 0.0405288 0)
(7.73366 0.0412549 0)
(7.65133 0.042004 0)
(7.56751 0.042776 0)
(7.48216 0.0435712 0)
(7.39523 0.0443892 0)
(7.30667 0.0452301 0)
(7.21643 0.0460938 0)
(7.12446 0.0469798 0)
(7.03071 0.0478881 0)
(6.93514 0.0488182 0)
(6.8377 0.0497697 0)
(6.73834 0.0507421 0)
(6.63701 0.0517347 0)
(6.53367 0.0527468 0)
(6.42828 0.0537777 0)
(6.32078 0.0548264 0)
(6.21115 0.0558921 0)
(6.09934 0.0569737 0)
(5.98531 0.05807 0)
(5.86903 0.0591798 0)
(5.75047 0.0603021 0)
(5.62959 0.0614354 0)
(5.50638 0.0625788 0)
(5.3808 0.0637308 0)
(5.25285 0.0648908 0)
(5.12252 0.0660536 0)
(4.98979 0.06721 0)
(4.85466 0.068353 0)
(4.71713 0.0694792 0)
(4.57721 0.0705861 0)
(4.4349 0.071671 0)
(4.29023 0.0727307 0)
(4.14323 0.0737621 0)
(3.99392 0.0747619 0)
(3.84235 0.075727 0)
(3.68855 0.0766544 0)
(3.5326 0.0775414 0)
(3.37453 0.0783851 0)
(3.21443 0.0791833 0)
(3.05236 0.079934 0)
(2.88841 0.0806355 0)
(2.72265 0.0812867 0)
(2.55518 0.0818868 0)
(2.3861 0.0824357 0)
(2.2155 0.0829338 0)
(2.04348 0.0833817 0)
(1.87016 0.0837809 0)
(1.69565 0.084133 0)
(1.52005 0.0844401 0)
(1.34349 0.0847045 0)
(1.16606 0.0849287 0)
(0.987897 0.0851153 0)
(0.809106 0.0852667 0)
(0.629804 0.0853854 0)
(0.450105 0.0854698 0)
(0.270137 0.0855198 0)
(0.0900033 0.0855388 0)
(9.90604 0.00669137 0)
(10.0702 0.00688053 0)
(9.98355 0.00898037 0)
(9.99612 0.0126977 0)
(9.98992 0.0172798 0)
(9.97312 0.0226077 0)
(9.95541 0.0281501 0)
(9.93722 0.0332519 0)
(9.91653 0.0377441 0)
(9.8926 0.0419073 0)
(9.86598 0.0460864 0)
(9.83739 0.0504226 0)
(9.80695 0.054919 0)
(9.7742 0.0595342 0)
(9.73864 0.0641325 0)
(9.70022 0.068472 0)
(9.6595 0.0723543 0)
(9.61722 0.0757963 0)
(9.57371 0.0790066 0)
(9.52862 0.082163 0)
(9.48113 0.085233 0)
(9.43056 0.0880138 0)
(9.37665 0.0903135 0)
(9.31965 0.0920871 0)
(9.26013 0.0934391 0)
(9.19876 0.0945413 0)
(9.13612 0.0955494 0)
(9.07254 0.0965637 0)
(9.00821 0.0976318 0)
(8.94317 0.0987681 0)
(8.87741 0.0999729 0)
(8.8109 0.101244 0)
(8.74358 0.102579 0)
(8.67543 0.103978 0)
(8.60638 0.105442 0)
(8.53639 0.106972 0)
(8.46543 0.108569 0)
(8.39343 0.110234 0)
(8.32036 0.111968 0)
(8.24617 0.113772 0)
(8.1708 0.115646 0)
(8.09421 0.117592 0)
(8.01635 0.119611 0)
(7.93716 0.121702 0)
(7.8566 0.123867 0)
(7.77462 0.126107 0)
(7.69115 0.128421 0)
(7.60615 0.130811 0)
(7.51956 0.133277 0)
(7.43133 0.135818 0)
(7.34141 0.138435 0)
(7.24973 0.141127 0)
(7.15624 0.143895 0)
(7.06088 0.146737 0)
(6.96361 0.149654 0)
(6.86435 0.152643 0)
(6.76306 0.155703 0)
(6.65969 0.158834 0)
(6.55416 0.162033 0)
(6.44644 0.165297 0)
(6.33646 0.168625 0)
(6.22418 0.172013 0)
(6.10953 0.175458 0)
(5.99247 0.178957 0)
(5.87295 0.182506 0)
(5.75093 0.186102 0)
(5.62635 0.18974 0)
(5.49918 0.193416 0)
(5.36937 0.197122 0)
(5.23688 0.200846 0)
(5.10169 0.20458 0)
(4.96377 0.208317 0)
(4.8231 0.21205 0)
(4.67965 0.21577 0)
(4.53341 0.219469 0)
(4.38438 0.223136 0)
(4.23256 0.226763 0)
(4.07795 0.230338 0)
(3.92057 0.233851 0)
(3.76043 0.237292 0)
(3.59757 0.240648 0)
(3.43202 0.24391 0)
(3.26384 0.247065 0)
(3.09308 0.250105 0)
(2.91981 0.253018 0)
(2.74411 0.255794 0)
(2.56607 0.258423 0)
(2.38578 0.260898 0)
(2.20336 0.26321 0)
(2.01893 0.265351 0)
(1.83262 0.267316 0)
(1.64458 0.269097 0)
(1.45495 0.27069 0)
(1.2639 0.272092 0)
(1.0716 0.273297 0)
(0.878221 0.274303 0)
(0.683958 0.275109 0)
(0.488999 0.275712 0)
(0.293545 0.276128 0)
(0.0977468 0.276099 0)
(9.87735 0.00441305 0)
(10.043 0.0148915 0)
(9.95444 0.023827 0)
(9.96446 0.0312181 0)
(9.95774 0.037308 0)
(9.94122 0.0431063 0)
(9.9235 0.0498189 0)
(9.90552 0.0574481 0)
(9.88554 0.064757 0)
(9.86191 0.0708823 0)
(9.83413 0.0762475 0)
(9.80269 0.0818442 0)
(9.76847 0.0881044 0)
(9.73223 0.0945662 0)
(9.69434 0.100425 0)
(9.65471 0.105297 0)
(9.61299 0.109546 0)
(9.56881 0.114008 0)
(9.52193 0.119415 0)
(9.47218 0.125922 0)
(9.41957 0.133035 0)
(9.36432 0.139931 0)
(9.30679 0.145893 0)
(9.2474 0.150589 0)
(9.18653 0.154081 0)
(9.12452 0.156676 0)
(9.06162 0.158738 0)
(8.99794 0.160564 0)
(8.93353 0.162343 0)
(8.86839 0.164177 0)
(8.8025 0.166107 0)
(8.73583 0.168146 0)
(8.66832 0.170296 0)
(8.59994 0.172558 0)
(8.53064 0.17493 0)
(8.46038 0.177414 0)
(8.38911 0.180012 0)
(8.31679 0.182724 0)
(8.24337 0.185552 0)
(8.16881 0.188499 0)
(8.09306 0.191565 0)
(8.01607 0.194753 0)
(7.93779 0.198063 0)
(7.85818 0.201497 0)
(7.77718 0.205058 0)
(7.69475 0.208745 0)
(7.61083 0.21256 0)
(7.52537 0.216505 0)
(7.43833 0.220579 0)
(7.34965 0.224785 0)
(7.25927 0.229121 0)
(7.16716 0.233589 0)
(7.07324 0.238188 0)
(6.97748 0.242919 0)
(6.87982 0.24778 0)
(6.78021 0.25277 0)
(6.67859 0.257888 0)
(6.57491 0.263131 0)
(6.46914 0.268499 0)
(6.3612 0.273986 0)
(6.25107 0.279591 0)
(6.13868 0.285308 0)
(6.02399 0.291133 0)
(5.90696 0.297062 0)
(5.78755 0.303087 0)
(5.66571 0.309202 0)
(5.54141 0.3154 0)
(5.41461 0.321673 0)
(5.28527 0.328011 0)
(5.15338 0.334407 0)
(5.0189 0.340852 0)
(4.88181 0.347335 0)
(4.7421 0.353842 0)
(4.59975 0.360361 0)
(4.45476 0.366876 0)
(4.30712 0.373371 0)
(4.15683 0.379829 0)
(4.00391 0.386234 0)
(3.84838 0.392566 0)
(3.69025 0.398807 0)
(3.52955 0.404937 0)
(3.36634 0.410936 0)
(3.20064 0.416783 0)
(3.03253 0.422457 0)
(2.86206 0.427937 0)
(2.68931 0.433201 0)
(2.51437 0.43823 0)
(2.33732 0.443001 0)
(2.15827 0.447494 0)
(1.97733 0.451691 0)
(1.79463 0.455571 0)
(1.61029 0.459118 0)
(1.42447 0.462315 0)
(1.23731 0.465147 0)
(1.04898 0.467599 0)
(0.859627 0.46966 0)
(0.669441 0.47132 0)
(0.478594 0.472572 0)
(0.287294 0.473443 0)
(0.0956613 0.473443 0)
(9.88212 0.00329049 0)
(10.0405 0.0153764 0)
(9.9504 0.0252622 0)
(9.96186 0.0332121 0)
(9.95631 0.0417637 0)
(9.93974 0.0513806 0)
(9.92157 0.0612613 0)
(9.90305 0.0711682 0)
(9.8826 0.0816397 0)
(9.85892 0.092945 0)
(9.83164 0.104423 0)
(9.80117 0.115075 0)
(9.76805 0.124465 0)
(9.73247 0.132916 0)
(9.69417 0.141014 0)
(9.65286 0.149142 0)
(9.60861 0.157444 0)
(9.56189 0.165995 0)
(9.51319 0.174817 0)
(9.46268 0.183749 0)
(9.41024 0.192384 0)
(9.35571 0.200197 0)
(9.29908 0.206779 0)
(9.24051 0.212008 0)
(9.18031 0.216057 0)
(9.1188 0.219265 0)
(9.05624 0.221993 0)
(8.9928 0.224525 0)
(8.92857 0.227046 0)
(8.86355 0.229651 0)
(8.79774 0.232384 0)
(8.73112 0.235261 0)
(8.66365 0.238286 0)
(8.5953 0.241463 0)
(8.52601 0.244793 0)
(8.45576 0.248278 0)
(8.38449 0.25192 0)
(8.31215 0.255722 0)
(8.23872 0.259686 0)
(8.16413 0.263815 0)
(8.08834 0.26811 0)
(8.01131 0.272573 0)
(7.93297 0.277208 0)
(7.8533 0.282015 0)
(7.77223 0.286997 0)
(7.68971 0.292155 0)
(7.60569 0.297492 0)
(7.52013 0.303007 0)
(7.43297 0.308703 0)
(7.34416 0.314581 0)
(7.25365 0.320641 0)
(7.16138 0.326883 0)
(7.0673 0.333308 0)
(6.97136 0.339914 0)
(6.87351 0.346702 0)
(6.77369 0.35367 0)
(6.67186 0.360815 0)
(6.56795 0.368135 0)
(6.46193 0.375628 0)
(6.35375 0.383289 0)
(6.24334 0.391114 0)
(6.13068 0.399098 0)
(6.0157 0.407234 0)
(5.89838 0.415516 0)
(5.77866 0.423934 0)
(5.6565 0.432481 0)
(5.53188 0.441146 0)
(5.40476 0.449916 0)
(5.2751 0.45878 0)
(5.14289 0.467726 0)
(5.00809 0.476737 0)
(4.87069 0.485798 0)
(4.73067 0.494888 0)
(4.58803 0.50399 0)
(4.44276 0.513083 0)
(4.29487 0.522146 0)
(4.14437 0.531156 0)
(3.99126 0.54009 0)
(3.83557 0.548922 0)
(3.67734 0.557626 0)
(3.51659 0.566176 0)
(3.35337 0.574545 0)
(3.18774 0.582703 0)
(3.01975 0.590622 0)
(2.84948 0.598274 0)
(2.67701 0.605628 0)
(2.50241 0.612655 0)
(2.32579 0.619328 0)
(2.14726 0.625616 0)
(1.96692 0.631492 0)
(1.78491 0.636931 0)
(1.60134 0.641905 0)
(1.41636 0.646393 0)
(1.23012 0.650371 0)
(1.04277 0.65382 0)
(0.854462 0.656723 0)
(0.665371 0.659065 0)
(0.475658 0.66083 0)
(0.285524 0.66205 0)
(0.0950742 0.662041 0)
(9.88823 0.0139998 0)
(10.0543 0.0258265 0)
(9.9666 0.0392963 0)
(9.97578 0.0515889 0)
(9.96668 0.0623572 0)
(9.94763 0.0729665 0)
(9.92742 0.0846681 0)
(9.90646 0.0974409 0)
(9.88345 0.110462 0)
(9.85789 0.122941 0)
(9.82973 0.134641 0)
(9.79881 0.145911 0)
(9.76491 0.157325 0)
(9.7281 0.169107 0)
(9.68875 0.180811 0)
(9.64731 0.191661 0)
(9.60404 0.201296 0)
(9.55904 0.210213 0)
(9.51217 0.219415 0)
(9.46315 0.229604 0)
(9.41169 0.240632 0)
(9.35772 0.251615 0)
(9.3014 0.261512 0)
(9.24303 0.269664 0)
(9.18296 0.275994 0)
(9.12156 0.280864 0)
(9.05911 0.284799 0)
(8.99578 0.288274 0)
(8.93166 0.291615 0)
(8.86677 0.295007 0)
(8.80111 0.298537 0)
(8.73464 0.30224 0)
(8.66733 0.30613 0)
(8.59914 0.310211 0)
(8.53002 0.314488 0)
(8.45994 0.318964 0)
(8.38884 0.323641 0)
(8.31669 0.328524 0)
(8.24343 0.333615 0)
(8.16903 0.338918 0)
(8.09342 0.344434 0)
(8.01657 0.350168 0)
(7.93842 0.356122 0)
(7.85893 0.362299 0)
(7.77804 0.368701 0)
(7.69571 0.37533 0)
(7.61189 0.382188 0)
(7.52651 0.389278 0)
(7.43954 0.3966 0)
(7.35091 0.404156 0)
(7.26058 0.411948 0)
(7.16849 0.419974 0)
(7.07459 0.428236 0)
(6.97882 0.436733 0)
(6.88114 0.445463 0)
(6.78149 0.454426 0)
(6.67981 0.463618 0)
(6.57606 0.473037 0)
(6.47018 0.482678 0)
(6.36213 0.492538 0)
(6.25185 0.502609 0)
(6.1393 0.512886 0)
(6.02442 0.52336 0)
(5.90719 0.534023 0)
(5.78754 0.544864 0)
(5.66544 0.555871 0)
(5.54086 0.567031 0)
(5.41376 0.57833 0)
(5.2841 0.589752 0)
(5.15186 0.601278 0)
(5.01702 0.612891 0)
(4.87955 0.624569 0)
(4.73945 0.63629 0)
(4.5967 0.648029 0)
(4.45129 0.659761 0)
(4.30324 0.671458 0)
(4.15254 0.683091 0)
(3.99922 0.694629 0)
(3.8433 0.706041 0)
(3.6848 0.717293 0)
(3.52377 0.72835 0)
(3.36025 0.739176 0)
(3.19429 0.749735 0)
(3.02597 0.759989 0)
(2.85534 0.769899 0)
(2.6825 0.779428 0)
(2.50753 0.788538 0)
(2.33052 0.79719 0)
(2.1516 0.805347 0)
(1.97087 0.812973 0)
(1.78846 0.820032 0)
(1.6045 0.826491 0)
(1.41913 0.832319 0)
(1.23251 0.837486 0)
(1.04477 0.841966 0)
(0.856094 0.845737 0)
(0.666634 0.848779 0)
(0.476557 0.851071 0)
(0.286063 0.852653 0)
(0.0952544 0.852646 0)
(9.87738 0.00199358 0)
(10.0428 0.0240031 0)
(9.95726 0.0416786 0)
(9.97106 0.0565836 0)
(9.9665 0.0707373 0)
(9.94986 0.0852774 0)
(9.93009 0.100275 0)
(9.90884 0.115373 0)
(9.88567 0.130632 0)
(9.86008 0.146478 0)
(9.83178 0.162912 0)
(9.80067 0.179218 0)
(9.76681 0.194542 0)
(9.7304 0.208506 0)
(9.69186 0.221261 0)
(9.65156 0.233243 0)
(9.60959 0.24501 0)
(9.56569 0.257146 0)
(9.51936 0.270038 0)
(9.47012 0.283606 0)
(9.41782 0.297228 0)
(9.36273 0.309988 0)
(9.30538 0.321092 0)
(9.24631 0.330167 0)
(9.18593 0.337318 0)
(9.12452 0.342978 0)
(9.06223 0.34769 0)
(8.99914 0.351927 0)
(8.93527 0.356027 0)
(8.87062 0.360186 0)
(8.80519 0.364505 0)
(8.73894 0.36903 0)
(8.67185 0.373779 0)
(8.60388 0.378761 0)
(8.53499 0.383981 0)
(8.46513 0.389445 0)
(8.39426 0.395155 0)
(8.32234 0.401117 0)
(8.24932 0.407334 0)
(8.17515 0.413809 0)
(8.09979 0.420546 0)
(8.02318 0.427549 0)
(7.94528 0.434822 0)
(7.86604 0.442367 0)
(7.78541 0.450187 0)
(7.70334 0.458286 0)
(7.61978 0.466665 0)
(7.53466 0.475328 0)
(7.44795 0.484276 0)
(7.35959 0.493511 0)
(7.26953 0.503034 0)
(7.1777 0.512845 0)
(7.08407 0.522946 0)
(6.98857 0.533334 0)
(6.89115 0.54401 0)
(6.79176 0.554971 0)
(6.69034 0.566214 0)
(6.58685 0.577736 0)
(6.48122 0.589532 0)
(6.37341 0.601597 0)
(6.26337 0.613924 0)
(6.15104 0.626503 0)
(6.03639 0.639327 0)
(5.91935 0.652384 0)
(5.7999 0.66566 0)
(5.67798 0.679143 0)
(5.55357 0.692817 0)
(5.42661 0.706663 0)
(5.29708 0.720663 0)
(5.16494 0.734795 0)
(5.03018 0.749035 0)
(4.89277 0.763359 0)
(4.75269 0.777739 0)
(4.60994 0.792145 0)
(4.4645 0.806546 0)
(4.31638 0.820907 0)
(4.16558 0.835194 0)
(4.01212 0.849369 0)
(3.85602 0.863392 0)
(3.69731 0.877221 0)
(3.53602 0.890813 0)
(3.3722 0.904126 0)
(3.2059 0.917111 0)
(3.03719 0.929725 0)
(2.86614 0.941918 0)
(2.69283 0.953645 0)
(2.51735 0.964856 0)
(2.3398 0.975507 0)
(2.16029 0.985549 0)
(1.97893 0.994937 0)
(1.79587 1.00363 0)
(1.61122 1.01158 0)
(1.42513 1.01876 0)
(1.23776 1.02513 0)
(1.04926 1.03065 0)
(0.85979 1.03529 0)
(0.669525 1.03904 0)
(0.478632 1.04186 0)
(0.287313 1.04381 0)
(0.0956716 1.04381 0)
(9.89942 0.0120689 0)
(10.0556 0.031347 0)
(9.9647 0.0499647 0)
(9.97546 0.0672797 0)
(9.96873 0.0851342 0)
(9.95095 0.104502 0)
(9.93139 0.124325 0)
(9.91086 0.143215 0)
(9.8878 0.160863 0)
(9.86167 0.17775 0)
(9.83313 0.194353 0)
(9.80301 0.210959 0)
(9.77139 0.227699 0)
(9.73762 0.244303 0)
(9.70088 0.260062 0)
(9.66086 0.2744 0)
(9.61785 0.287618 0)
(9.57243 0.300896 0)
(9.52494 0.315452 0)
(9.47526 0.33158 0)
(9.42306 0.34839 0)
(9.36822 0.364362 0)
(9.31095 0.378188 0)
(9.25171 0.389305 0)
(9.19101 0.397909 0)
(9.12928 0.404639 0)
(9.06677 0.410224 0)
(9.00361 0.415258 0)
(8.93979 0.420136 0)
(8.87528 0.425082 0)
(8.81004 0.430207 0)
(8.74401 0.435565 0)
(8.67717 0.44118 0)
(8.60945 0.447065 0)
(8.54082 0.453228 0)
(8.47123 0.459678 0)
(8.40063 0.466419 0)
(8.32899 0.473456 0)
(8.25625 0.480794 0)
(8.18237 0.488439 0)
(8.10729 0.496393 0)
(8.03098 0.504662 0)
(7.95338 0.513249 0)
(7.87444 0.522159 0)
(7.79411 0.531395 0)
(7.71234 0.540961 0)
(7.62909 0.550859 0)
(7.54429 0.561093 0)
(7.45789 0.571665 0)
(7.36984 0.582577 0)
(7.28009 0.59383 0)
(7.18859 0.605426 0)
(7.09527 0.617365 0)
(7.00009 0.629647 0)
(6.90298 0.642269 0)
(6.80391 0.655231 0)
(6.7028 0.668529 0)
(6.59961 0.682158 0)
(6.49428 0.696115 0)
(6.38676 0.710391 0)
(6.27701 0.72498 0)
(6.16496 0.739871 0)
(6.05057 0.755055 0)
(5.93379 0.770517 0)
(5.81457 0.786243 0)
(5.69288 0.802218 0)
(5.56866 0.818422 0)
(5.44189 0.834835 0)
(5.31252 0.851434 0)
(5.18052 0.868193 0)
(5.04587 0.885087 0)
(4.90854 0.902084 0)
(4.76851 0.919151 0)
(4.62578 0.936255 0)
(4.48032 0.953357 0)
(4.33214 0.970418 0)
(4.18124 0.987394 0)
(4.02764 1.00424 0)
(3.87136 1.02091 0)
(3.71241 1.03736 0)
(3.55084 1.05353 0)
(3.38669 1.06937 0)
(3.22001 1.08482 0)
(3.05087 1.09983 0)
(2.87933 1.11435 0)
(2.70548 1.12832 0)
(2.52941 1.14167 0)
(2.35121 1.15436 0)
(2.17101 1.16632 0)
(1.98891 1.17751 0)
(1.80505 1.18787 0)
(1.61956 1.19736 0)
(1.4326 1.20591 0)
(1.24431 1.2135 0)
(1.05486 1.22008 0)
(0.864418 1.22562 0)
(0.673152 1.23009 0)
(0.481237 1.23346 0)
(0.288881 1.23578 0)
(0.0961952 1.23579 0)
(9.93507 0.014877 0)
(10.0991 0.0368142 0)
(10.0099 0.0590811 0)
(10.0187 0.0786612 0)
(10.0093 0.0972341 0)
(9.98934 0.11684 0)
(9.96785 0.137682 0)
(9.94537 0.159009 0)
(9.92062 0.180241 0)
(9.89339 0.201055 0)
(9.86394 0.221168 0)
(9.83236 0.240568 0)
(9.79843 0.259678 0)
(9.76194 0.278867 0)
(9.72273 0.297888 0)
(9.68065 0.316066 0)
(9.63554 0.333136 0)
(9.58747 0.349735 0)
(9.53672 0.366925 0)
(9.48367 0.38521 0)
(9.42869 0.403992 0)
(9.37211 0.421865 0)
(9.31413 0.437435 0)
(9.25491 0.449989 0)
(9.19458 0.459662 0)
(9.13331 0.467157 0)
(9.07123 0.473333 0)
(9.00841 0.478908 0)
(8.94488 0.484357 0)
(8.88064 0.489937 0)
(8.81567 0.495768 0)
(8.74992 0.501896 0)
(8.68336 0.508339 0)
(8.61594 0.515104 0)
(8.54761 0.522197 0)
(8.47833 0.529623 0)
(8.40805 0.537387 0)
(8.33673 0.545494 0)
(8.26431 0.553949 0)
(8.19076 0.562758 0)
(8.11602 0.571925 0)
(8.04005 0.581455 0)
(7.9628 0.591354 0)
(7.88421 0.601625 0)
(7.80423 0.612273 0)
(7.72282 0.623302 0)
(7.63993 0.634716 0)
(7.55549 0.646518 0)
(7.46946 0.658712 0)
(7.38178 0.6713 0)
(7.2924 0.684283 0)
(7.20126 0.697663 0)
(7.10832 0.711441 0)
(7.0135 0.725616 0)
(6.91677 0.740188 0)
(6.81805 0.755153 0)
(6.71731 0.770509 0)
(6.61447 0.786252 0)
(6.50949 0.802375 0)
(6.40232 0.818871 0)
(6.2929 0.835731 0)
(6.18117 0.852946 0)
(6.06709 0.870501 0)
(5.9506 0.888383 0)
(5.83167 0.906576 0)
(5.71023 0.925061 0)
(5.58626 0.943816 0)
(5.4597 0.962818 0)
(5.33052 0.982041 0)
(5.19869 1.00146 0)
(5.06417 1.02103 0)
(4.92693 1.04073 0)
(4.78697 1.06052 0)
(4.64425 1.08036 0)
(4.49878 1.10021 0)
(4.35053 1.12001 0)
(4.19953 1.13972 0)
(4.04577 1.15929 0)
(3.88927 1.17865 0)
(3.73006 1.19777 0)
(3.56816 1.21657 0)
(3.40363 1.23499 0)
(3.23651 1.25297 0)
(3.06686 1.27044 0)
(2.89476 1.28734 0)
(2.72028 1.3036 0)
(2.54352 1.31916 0)
(2.36458 1.33394 0)
(2.18356 1.34788 0)
(2.0006 1.36092 0)
(1.81581 1.373 0)
(1.62935 1.38406 0)
(1.44136 1.39404 0)
(1.252 1.40289 0)
(1.06144 1.41057 0)
(0.86985 1.41703 0)
(0.677408 1.42224 0)
(0.484294 1.42617 0)
(0.290723 1.42888 0)
(0.0968097 1.4289 0)
(9.9107 0.0137991 0)
(10.0751 0.0416401 0)
(9.98694 0.0680815 0)
(9.99748 0.0923819 0)
(9.98894 0.116204 0)
(9.96889 0.141206 0)
(9.94712 0.166895 0)
(9.92494 0.191575 0)
(9.90127 0.214237 0)
(9.87557 0.235207 0)
(9.84778 0.255578 0)
(9.81779 0.276377 0)
(9.78521 0.298005 0)
(9.7497 0.32004 0)
(9.71119 0.341556 0)
(9.66995 0.361841 0)
(9.62632 0.380998 0)
(9.58058 0.399885 0)
(9.53272 0.419404 0)
(9.48252 0.43972 0)
(9.42981 0.460028 0)
(9.37469 0.478992 0)
(9.31753 0.495442 0)
(9.25877 0.508867 0)
(9.19877 0.519476 0)
(9.13781 0.527946 0)
(9.07607 0.535078 0)
(9.01361 0.541557 0)
(8.95045 0.547857 0)
(8.88658 0.554255 0)
(8.82197 0.560896 0)
(8.75658 0.56785 0)
(8.69038 0.575146 0)
(8.62331 0.582802 0)
(8.55534 0.590826 0)
(8.48642 0.599227 0)
(8.41651 0.608011 0)
(8.34555 0.617183 0)
(8.27351 0.626751 0)
(8.20034 0.636719 0)
(8.12599 0.647094 0)
(8.05041 0.657881 0)
(7.97355 0.669086 0)
(7.89536 0.680714 0)
(7.81579 0.69277 0)
(7.73479 0.705259 0)
(7.6523 0.718185 0)
(7.56828 0.731553 0)
(7.48267 0.745366 0)
(7.39542 0.759627 0)
(7.30646 0.774339 0)
(7.21575 0.789503 0)
(7.12323 0.80512 0)
(7.02884 0.82119 0)
(6.93252 0.837713 0)
(6.83423 0.854685 0)
(6.7339 0.872105 0)
(6.63148 0.889966 0)
(6.5269 0.908263 0)
(6.42012 0.926987 0)
(6.31108 0.94613 0)
(6.19973 0.965679 0)
(6.08601 0.985621 0)
(5.96987 1.00594 0)
(5.85125 1.02662 0)
(5.73012 1.04763 0)
(5.60643 1.06896 0)
(5.48012 1.09058 0)
(5.35117 1.11246 0)
(5.21952 1.13456 0)
(5.08516 1.15685 0)
(4.94805 1.1793 0)
(4.80816 1.20185 0)
(4.66547 1.22447 0)
(4.51998 1.2471 0)
(4.37167 1.26969 0)
(4.22054 1.29219 0)
(4.0666 1.31453 0)
(3.90987 1.33665 0)
(3.75035 1.3585 0)
(3.58809 1.37999 0)
(3.42312 1.40105 0)
(3.2555 1.42162 0)
(3.08528 1.44162 0)
(2.91253 1.46097 0)
(2.73734 1.4796 0)
(2.55979 1.49742 0)
(2.37998 1.51436 0)
(2.19803 1.53035 0)
(2.01407 1.5453 0)
(1.82822 1.55916 0)
(1.64064 1.57185 0)
(1.45147 1.5833 0)
(1.26087 1.59346 0)
(1.06903 1.60228 0)
(0.876117 1.6097 0)
(0.682319 1.61569 0)
(0.487822 1.6202 0)
(0.292847 1.62331 0)
(0.0975187 1.62335 0)
(9.89831 0.0143348 0)
(10.0614 0.0458428 0)
(9.9743 0.0742348 0)
(9.98643 0.100853 0)
(9.97998 0.126998 0)
(9.96216 0.153336 0)
(9.94308 0.179581 0)
(9.92404 0.205209 0)
(9.90328 0.23014 0)
(9.87923 0.254576 0)
(9.85149 0.278734 0)
(9.82078 0.302957 0)
(9.78792 0.327666 0)
(9.75314 0.352826 0)
(9.71602 0.377577 0)
(9.67614 0.400821 0)
(9.63353 0.422351 0)
(9.58857 0.443241 0)
(9.5415 0.464987 0)
(9.49214 0.488174 0)
(9.4401 0.511876 0)
(9.38522 0.534212 0)
(9.32774 0.553465 0)
(9.26822 0.568874 0)
(9.20732 0.580731 0)
(9.14556 0.589964 0)
(9.08327 0.597635 0)
(9.02054 0.604606 0)
(8.95735 0.611443 0)
(8.89362 0.618456 0)
(8.82925 0.625789 0)
(8.76417 0.633501 0)
(8.69832 0.641615 0)
(8.63162 0.650141 0)
(8.56404 0.659084 0)
(8.49551 0.66845 0)
(8.42601 0.678246 0)
(8.35547 0.688478 0)
(8.28385 0.699151 0)
(8.2111 0.710273 0)
(8.13719 0.72185 0)
(8.06204 0.733889 0)
(7.98563 0.746395 0)
(7.90789 0.759374 0)
(7.82878 0.772834 0)
(7.74824 0.786778 0)
(7.66622 0.801213 0)
(7.58267 0.816143 0)
(7.49753 0.831572 0)
(7.41075 0.847504 0)
(7.32228 0.863943 0)
(7.23204 0.88089 0)
(7.14 0.898346 0)
(7.04609 0.916313 0)
(6.95026 0.934788 0)
(6.85244 0.953771 0)
(6.75259 0.973259 0)
(6.65063 0.993245 0)
(6.54652 1.01372 0)
(6.44019 1.03469 0)
(6.33159 1.05612 0)
(6.22066 1.07802 0)
(6.10735 1.10037 0)
(5.9916 1.12314 0)
(5.87336 1.14632 0)
(5.75258 1.16989 0)
(5.6292 1.19382 0)
(5.50319 1.21809 0)
(5.3745 1.24265 0)
(5.24308 1.26747 0)
(5.1089 1.29252 0)
(4.97193 1.31775 0)
(4.83214 1.34311 0)
(4.6895 1.36856 0)
(4.544 1.39403 0)
(4.39562 1.41947 0)
(4.24437 1.44481 0)
(4.09024 1.46999 0)
(3.93324 1.49494 0)
(3.77339 1.51958 0)
(3.61072 1.54383 0)
(3.44527 1.56761 0)
(3.27708 1.59085 0)
(3.10622 1.61345 0)
(2.93274 1.63533 0)
(2.75674 1.65639 0)
(2.57829 1.67656 0)
(2.39751 1.69574 0)
(2.21451 1.71384 0)
(2.02942 1.73078 0)
(1.84236 1.74649 0)
(1.6535 1.76087 0)
(1.46298 1.77385 0)
(1.27099 1.78538 0)
(1.07768 1.79538 0)
(0.883265 1.8038 0)
(0.68792 1.81059 0)
(0.491846 1.81572 0)
(0.29527 1.81925 0)
(0.0983275 1.81932 0)
(9.88705 0.0137201 0)
(10.0506 0.0489649 0)
(9.96257 0.0816589 0)
(9.97482 0.112336 0)
(9.96857 0.142432 0)
(9.95094 0.172834 0)
(9.93172 0.202977 0)
(9.91203 0.232118 0)
(9.89011 0.260232 0)
(9.86491 0.287512 0)
(9.83666 0.313885 0)
(9.80614 0.33954 0)
(9.77387 0.365282 0)
(9.73995 0.391753 0)
(9.7042 0.418489 0)
(9.6663 0.444251 0)
(9.62596 0.468384 0)
(9.583 0.491639 0)
(9.53732 0.5155 0)
(9.48885 0.540731 0)
(9.43758 0.566533 0)
(9.38368 0.590965 0)
(9.32748 0.6121 0)
(9.26943 0.628988 0)
(9.20999 0.64187 0)
(9.14953 0.651776 0)
(9.08831 0.659932 0)
(9.02645 0.667351 0)
(8.96397 0.674688 0)
(8.90084 0.682287 0)
(8.837 0.690292 0)
(8.77241 0.698752 0)
(8.70702 0.707675 0)
(8.64078 0.717063 0)
(8.57365 0.726919 0)
(8.50558 0.737245 0)
(8.43653 0.748046 0)
(8.36646 0.759331 0)
(8.29531 0.771104 0)
(8.22304 0.783373 0)
(8.14961 0.796146 0)
(8.07495 0.809429 0)
(7.99903 0.82323 0)
(7.9218 0.837556 0)
(7.84319 0.852413 0)
(7.76317 0.867807 0)
(7.68167 0.883745 0)
(7.59864 0.900233 0)
(7.51403 0.917275 0)
(7.42779 0.934876 0)
(7.33985 0.953039 0)
(7.25015 0.971767 0)
(7.15865 0.991063 0)
(7.06528 1.01093 0)
(6.96998 1.03136 0)
(6.8727 1.05235 0)
(6.77337 1.07391 0)
(6.67194 1.09603 0)
(6.56834 1.1187 0)
(6.46252 1.14191 0)
(6.35442 1.16566 0)
(6.24397 1.18992 0)
(6.13113 1.21468 0)
(6.01582 1.23993 0)
(5.89801 1.26564 0)
(5.77762 1.29179 0)
(5.65462 1.31835 0)
(5.52894 1.34529 0)
(5.40055 1.37258 0)
(5.2694 1.40016 0)
(5.13544 1.42801 0)
(4.99864 1.45607 0)
(4.85896 1.4843 0)
(4.71639 1.51262 0)
(4.57089 1.54099 0)
(4.42245 1.56934 0)
(4.27107 1.5976 0)
(4.11673 1.62569 0)
(3.95945 1.65353 0)
(3.79924 1.68104 0)
(3.63613 1.70814 0)
(3.47014 1.73473 0)
(3.30134 1.76071 0)
(3.12976 1.786 0)
(2.95547 1.81049 0)
(2.77857 1.83409 0)
(2.59913 1.85668 0)
(2.41726 1.87819 0)
(2.23308 1.89849 0)
(2.04672 1.9175 0)
(1.85831 1.93513 0)
(1.66801 1.95128 0)
(1.47598 1.96587 0)
(1.2824 1.97881 0)
(1.08745 1.99005 0)
(0.891334 1.99952 0)
(0.694245 2.00716 0)
(0.49639 2.01292 0)
(0.298007 2.01689 0)
(0.0992408 2.017 0)
(9.88943 0.0192562 0)
(10.0505 0.0545376 0)
(9.96402 0.087329 0)
(9.97528 0.11981 0)
(9.96724 0.152634 0)
(9.94848 0.185066 0)
(9.92876 0.216635 0)
(9.90877 0.247624 0)
(9.88709 0.278351 0)
(9.86301 0.308511 0)
(9.8363 0.337622 0)
(9.80674 0.365853 0)
(9.77404 0.394045 0)
(9.73818 0.422751 0)
(9.69958 0.451496 0)
(9.65895 0.479289 0)
(9.61691 0.505849 0)
(9.57371 0.532119 0)
(9.52918 0.559455 0)
(9.48281 0.588267 0)
(9.43405 0.617384 0)
(9.38264 0.644631 0)
(9.32864 0.668015 0)
(9.27241 0.68664 0)
(9.2144 0.700859 0)
(9.15507 0.711816 0)
(9.09472 0.720848 0)
(9.03356 0.729048 0)
(8.97165 0.73713 0)
(8.90902 0.745473 0)
(8.84567 0.754243 0)
(8.78155 0.763497 0)
(8.71663 0.773251 0)
(8.65087 0.783511 0)
(8.58422 0.794279 0)
(8.51664 0.805561 0)
(8.44809 0.817363 0)
(8.37853 0.829694 0)
(8.30789 0.842559 0)
(8.23615 0.855969 0)
(8.16324 0.86993 0)
(8.08913 0.884452 0)
(8.01376 0.899541 0)
(7.93707 0.915206 0)
(7.85903 0.931454 0)
(7.77957 0.948293 0)
(7.69865 0.965729 0)
(7.6162 0.98377 0)
(7.53218 1.00242 0)
(7.44652 1.02169 0)
(7.35917 1.04157 0)
(7.27007 1.06208 0)
(7.17916 1.08321 0)
(7.08639 1.10497 0)
(6.99169 1.12736 0)
(6.895 1.15037 0)
(6.79626 1.17401 0)
(6.69542 1.19827 0)
(6.5924 1.22314 0)
(6.48714 1.24861 0)
(6.37959 1.27467 0)
(6.26969 1.30131 0)
(6.15736 1.32851 0)
(6.04256 1.35626 0)
(5.92522 1.38453 0)
(5.80529 1.41328 0)
(5.6827 1.44251 0)
(5.55741 1.47216 0)
(5.42937 1.5022 0)
(5.29852 1.5326 0)
(5.16481 1.56329 0)
(5.02822 1.59424 0)
(4.88869 1.62538 0)
(4.7462 1.65665 0)
(4.60072 1.68798 0)
(4.45223 1.71931 0)
(4.30071 1.75056 0)
(4.14617 1.78163 0)
(3.98859 1.81245 0)
(3.828 1.84293 0)
(3.6644 1.87296 0)
(3.49784 1.90244 0)
(3.32836 1.93127 0)
(3.156 1.95935 0)
(2.98083 1.98655 0)
(2.80293 2.01278 0)
(2.62239 2.03791 0)
(2.43932 2.06183 0)
(2.25383 2.08443 0)
(2.06605 2.10561 0)
(1.87614 2.12525 0)
(1.68424 2.14325 0)
(1.49052 2.15951 0)
(1.29517 2.17396 0)
(1.09839 2.1865 0)
(0.900371 2.19706 0)
(0.701329 2.20559 0)
(0.50148 2.21202 0)
(0.301073 2.21646 0)
(0.100264 2.21662 0)
(9.88096 0.0188751 0)
(10.0429 0.0577567 0)
(9.9543 0.0963726 0)
(9.96541 0.133301 0)
(9.95851 0.16974 0)
(9.94176 0.205805 0)
(9.92407 0.240842 0)
(9.90519 0.274482 0)
(9.88333 0.306937 0)
(9.85825 0.33861 0)
(9.83071 0.369899 0)
(9.80125 0.401359 0)
(9.76981 0.433517 0)
(9.73605 0.466112 0)
(9.69965 0.497789 0)
(9.66052 0.527041 0)
(9.61883 0.553701 0)
(9.57497 0.579407 0)
(9.52937 0.606424 0)
(9.4822 0.635833 0)
(9.43339 0.666611 0)
(9.38274 0.696233 0)
(9.33007 0.722156 0)
(9.27537 0.743035 0)
(9.2188 0.759024 0)
(9.16069 0.771296 0)
(9.10134 0.781318 0)
(9.04099 0.790329 0)
(8.97978 0.799147 0)
(8.91777 0.808215 0)
(8.85499 0.81773 0)
(8.79142 0.827764 0)
(8.72704 0.838337 0)
(8.66181 0.849457 0)
(8.5957 0.861129 0)
(8.52867 0.873359 0)
(8.46067 0.886153 0)
(8.39166 0.899522 0)
(8.32159 0.913472 0)
(8.25041 0.928014 0)
(8.17809 0.943155 0)
(8.10456 0.958907 0)
(8.02979 0.975276 0)
(7.95371 0.992273 0)
(7.87628 1.0099 0)
(7.79745 1.02818 0)
(7.71715 1.04711 0)
(7.63534 1.0667 0)
(7.55195 1.08695 0)
(7.46694 1.10788 0)
(7.38024 1.12948 0)
(7.29179 1.15176 0)
(7.20154 1.17473 0)
(7.10943 1.19839 0)
(7.01539 1.22274 0)
(6.91935 1.24777 0)
(6.82127 1.27349 0)
(6.72107 1.29989 0)
(6.61868 1.32697 0)
(6.51406 1.35471 0)
(6.40713 1.38311 0)
(6.29782 1.41214 0)
(6.18608 1.44181 0)
(6.07184 1.47207 0)
(5.95503 1.50292 0)
(5.83561 1.53431 0)
(5.71349 1.56623 0)
(5.58864 1.59863 0)
(5.46099 1.63148 0)
(5.33049 1.66473 0)
(5.19708 1.69832 0)
(5.06072 1.73221 0)
(4.92137 1.76633 0)
(4.779 1.80061 0)
(4.63355 1.83498 0)
(4.48502 1.86937 0)
(4.33339 1.90368 0)
(4.17863 1.93783 0)
(4.02075 1.97173 0)
(3.85974 2.00526 0)
(3.69564 2.03832 0)
(3.52846 2.07081 0)
(3.35824 2.10259 0)
(3.18504 2.13357 0)
(3.0089 2.1636 0)
(2.82992 2.19256 0)
(2.64818 2.22034 0)
(2.46379 2.24679 0)
(2.27686 2.2718 0)
(2.08753 2.29525 0)
(1.89595 2.317 0)
(1.70227 2.33695 0)
(1.50669 2.35498 0)
(1.30938 2.371 0)
(1.11056 2.38491 0)
(0.910428 2.39664 0)
(0.709215 2.40611 0)
(0.507147 2.41325 0)
(0.304487 2.41817 0)
(0.101404 2.41839 0)
(9.88699 0.02264 0)
(10.0525 0.0629225 0)
(9.96627 0.102973 0)
(9.97859 0.14116 0)
(9.97166 0.178033 0)
(9.9537 0.214533 0)
(9.93514 0.251648 0)
(9.91668 0.289303 0)
(9.89601 0.326325 0)
(9.87176 0.361528 0)
(9.84404 0.394692 0)
(9.81365 0.42681 0)
(9.78124 0.459358 0)
(9.7469 0.493041 0)
(9.71046 0.527128 0)
(9.67172 0.560154 0)
(9.63056 0.59139 0)
(9.58695 0.621592 0)
(9.54096 0.652292 0)
(9.49275 0.68433 0)
(9.44251 0.716946 0)
(9.39052 0.748091 0)
(9.33698 0.775561 0)
(9.282 0.798076 0)
(9.22564 0.815672 0)
(9.168 0.829389 0)
(9.10923 0.840638 0)
(9.04948 0.850681 0)
(8.98885 0.860398 0)
(8.9274 0.870294 0)
(8.86517 0.880613 0)
(8.80215 0.891455 0)
(8.73832 0.90286 0)
(8.67366 0.914844 0)
(8.60812 0.927417 0)
(8.54167 0.940589 0)
(8.47426 0.954369 0)
(8.40585 0.968767 0)
(8.33639 0.983793 0)
(8.26583 0.999458 0)
(8.19414 1.01577 0)
(8.12125 1.03274 0)
(8.04712 1.05038 0)
(7.9717 1.0687 0)
(7.89494 1.08771 0)
(7.81678 1.10742 0)
(7.73716 1.12783 0)
(7.65604 1.14896 0)
(7.57336 1.17081 0)
(7.48905 1.19339 0)
(7.40306 1.21671 0)
(7.31533 1.24076 0)
(7.22579 1.26557 0)
(7.1344 1.29112 0)
(7.04107 1.31743 0)
(6.94576 1.34449 0)
(6.84839 1.37229 0)
(6.74889 1.40084 0)
(6.64722 1.43014 0)
(6.54328 1.46016 0)
(6.43703 1.4909 0)
(6.32839 1.52235 0)
(6.21729 1.55449 0)
(6.10367 1.5873 0)
(5.98747 1.62076 0)
(5.86861 1.65482 0)
(5.74703 1.68947 0)
(5.62267 1.72467 0)
(5.49546 1.76036 0)
(5.36536 1.79651 0)
(5.23229 1.83306 0)
(5.09622 1.86995 0)
(4.95709 1.90711 0)
(4.81485 1.94448 0)
(4.66948 1.98197 0)
(4.52093 2.0195 0)
(4.36918 2.05697 0)
(4.21421 2.0943 0)
(4.05601 2.13136 0)
(3.89459 2.16806 0)
(3.72995 2.20427 0)
(3.56211 2.23987 0)
(3.39111 2.27473 0)
(3.217 2.30873 0)
(3.03983 2.34171 0)
(2.85967 2.37354 0)
(2.67662 2.40409 0)
(2.49078 2.4332 0)
(2.30228 2.46074 0)
(2.11125 2.48657 0)
(1.91784 2.51055 0)
(1.72222 2.53256 0)
(1.52458 2.55246 0)
(1.32511 2.57015 0)
(1.12403 2.58551 0)
(0.921564 2.59847 0)
(0.717949 2.60893 0)
(0.513425 2.61683 0)
(0.30827 2.62226 0)
(0.102667 2.62257 0)
(9.90657 0.0190826 0)
(10.0722 0.0649521 0)
(9.9848 0.108561 0)
(9.99641 0.152453 0)