/*--------------------------------*- C++ -*----------------------------------*\
| =========                 |                                                 |
| \\      /  F ield         | OpenFOAM: The Open Source CFD Toolbox           |
|  \\    /   O peration     | Version:  4.1                                   |
|   \\  /    A nd           | Web:      www.OpenFOAM.org                      |
|    \\/     M anipulation  |                                                 |
\*---------------------------------------------------------------------------*/
FoamFile
{
    version     2.0;
    format      ascii;
    class       volSymmTensorField;
    location    "0.05";
    object      UPrime2Mean;
}
// * * * * * * * * * * * * * * * * * * * * * * * * * * * * * * * * * * * * * //

dimensions      [0 2 -2 0 0 0 0];

internalField   nonuniform List<symmTensor> 
43750
(
(0.141533 0.00229729 0 0.0102104 0 0)
(0.0534507 0.0033042 0 0.00337155 0 0)
(0.0164312 0.000595698 0 0.00154528 0 0)
(0.00397166 0.000177405 0 0.000880665 0 0)
(0.00333742 1.0074e-05 0 0.000535874 0 0)
(0.00466823 -0.000100451 0 0.000413702 0 0)
(0.00616823 -0.000134313 0 0.000419056 0 0)
(0.00737723 -0.000140632 0 0.00044617 0 0)
(0.00877149 -0.00020694 0 0.00045125 0 0)
(0.0106723 -0.000303257 0 0.000429394 0 0)
(0.0130304 -0.000342028 0 0.000411135 0 0)
(0.0155664 -0.000274225 0 0.000389989 0 0)
(0.0179934 -0.000132069 0 0.000366645 0 0)
(0.0201714 -4.99504e-05 0 0.000359124 0 0)
(0.0221468 -0.00012642 0 0.000332981 0 0)
(0.0240078 -0.000278445 0 0.000284837 0 0)
(0.0257108 -0.000320142 0 0.000264546 0 0)
(0.027049 -0.000112312 0 0.000250512 0 0)
(0.0277154 0.000357918 0 0.000192457 0 0)
(0.0274249 0.000941786 0 0.0001275 0 0)
(0.0261067 0.00138945 0 0.000110354 0 0)
(0.0240149 0.00152518 0 0.000120803 0 0)
(0.0215922 0.00136851 0 0.000112696 0 0)
(0.0192168 0.00107215 0 8.06907e-05 0 0)
(0.0170804 0.000782594 0 4.69601e-05 0 0)
(0.0152208 0.000569616 0 2.53855e-05 0 0)
(0.0135972 0.000437696 0 1.52632e-05 0 0)
(0.0121491 0.000363423 0 1.13619e-05 0 0)
(0.0108292 0.000321639 0 1.00225e-05 0 0)
(0.0096108 0.000294991 0 9.60006e-06 0 0)
(0.0084818 0.000274166 0 9.47935e-06 0 0)
(0.00743663 0.000255159 0 9.44401e-06 0 0)
(0.00647226 0.000236621 0 9.42406e-06 0 0)
(0.00558675 0.000218235 0 9.4018e-06 0 0)
(0.00477846 0.000199988 0 9.37544e-06 0 0)
(0.00404568 0.000181909 0 9.34619e-06 0 0)
(0.00338663 0.000164018 0 9.31475e-06 0 0)
(0.00279956 0.000146324 0 9.28109e-06 0 0)
(0.00228272 0.000128833 0 9.24469e-06 0 0)
(0.00183439 0.000111548 0 9.20484e-06 0 0)
(0.00145281 9.44764e-05 0 9.16072e-06 0 0)
(0.00113626 7.76292e-05 0 9.11142e-06 0 0)
(0.000882984 6.10193e-05 0 9.056e-06 0 0)
(0.000691202 4.46641e-05 0 8.99348e-06 0 0)
(0.000559114 2.85846e-05 0 8.9228e-06 0 0)
(0.000484876 1.2806e-05 0 8.84289e-06 0 0)
(0.000466595 -2.64211e-06 0 8.75262e-06 0 0)
(0.000502314 -1.77256e-05 0 8.65082e-06 0 0)
(0.00059 -3.24053e-05 0 8.5363e-06 0 0)
(0.000727536 -4.66373e-05 0 8.40782e-06 0 0)
(0.000912704 -6.03722e-05 0 8.26416e-06 0 0)
(0.00114317 -7.35551e-05 0 8.10406e-06 0 0)
(0.00141649 -8.61256e-05 0 7.92633e-06 0 0)
(0.00173004 -9.80178e-05 0 7.72981e-06 0 0)
(0.0020811 -0.00010916 0 7.5134e-06 0 0)
(0.00246672 -0.000119475 0 7.27618e-06 0 0)
(0.00288382 -0.00012888 0 7.01733e-06 0 0)
(0.00332909 -0.00013729 0 6.73634e-06 0 0)
(0.00379904 -0.000144612 0 6.43292e-06 0 0)
(0.00428995 -0.000150756 0 6.10727e-06 0 0)
(0.0047979 -0.000155628 0 5.75998e-06 0 0)
(0.00531872 -0.000159136 0 5.3923e-06 0 0)
(0.00584805 -0.00016119 0 5.00563e-06 0 0)
(0.00638123 -0.000161704 0 4.60223e-06 0 0)
(0.00691346 -0.00016059 0 4.18438e-06 0 0)
(0.00743955 -0.000157797 0 3.75657e-06 0 0)
(0.00795426 -0.000153264 0 3.32298e-06 0 0)
(0.00845152 -0.00014702 0 2.89166e-06 0 0)
(0.00892495 -0.000138819 0 2.45946e-06 0 0)
(0.00936873 -0.000128226 0 2.02328e-06 0 0)
(0.00977724 -0.000114914 0 1.58864e-06 0 0)
(0.0101448 -9.87774e-05 0 1.17098e-06 0 0)
(0.0104655 -7.98537e-05 0 7.91235e-07 0 0)
(0.0107332 -5.82066e-05 0 4.71965e-07 0 0)
(0.0109423 -3.39148e-05 0 2.3738e-07 0 0)
(0.0110873 -7.10846e-06 0 1.14309e-07 0 0)
(0.0111633 2.20057e-05 0 1.32222e-07 0 0)
(0.0111659 5.31452e-05 0 3.2266e-07 0 0)
(0.0110916 8.59464e-05 0 7.18574e-07 0 0)
(0.0109375 0.000119961 0 1.3535e-06 0 0)
(0.0107023 0.000154652 0 2.26037e-06 0 0)
(0.0103855 0.000189391 0 3.47018e-06 0 0)
(0.00998838 0.000223464 0 5.01009e-06 0 0)
(0.00951375 0.000256081 0 6.90156e-06 0 0)
(0.00896618 0.000286385 0 9.158e-06 0 0)
(0.00835212 0.000313475 0 1.17826e-05 0 0)
(0.00767996 0.00033643 0 1.47657e-05 0 0)
(0.00696003 0.000354343 0 1.80834e-05 0 0)
(0.00620452 0.000366357 0 2.16953e-05 0 0)
(0.00542731 0.000371705 0 2.55441e-05 0 0)
(0.00464378 0.000369756 0 2.95554e-05 0 0)
(0.00387042 0.000360056 0 3.3639e-05 0 0)
(0.00312444 0.000342368 0 3.76908e-05 0 0)
(0.00242327 0.0003167 0 4.15969e-05 0 0)
(0.00178398 0.000283333 0 4.52373e-05 0 0)
(0.00122271 0.000242833 0 4.8494e-05 0 0)
(0.000754093 0.000196027 0 5.12499e-05 0 0)
(0.000390721 0.00014408 0 5.34445e-05 0 0)
(0.000142314 8.82238e-05 0 5.50257e-05 0 0)
(1.61194e-05 2.98665e-05 0 5.56759e-05 0 0)
(0.150996 -0.000563516 0 0.0121353 0 0)
(0.0479547 0.0051897 0 0.00388676 0 0)
(0.0174024 -0.000776585 0 0.00159243 0 0)
(0.00435027 2.42572e-05 0 0.00107097 0 0)
(0.0037074 -0.000198887 0 0.000954164 0 0)
(0.00542226 -0.000791843 0 0.000907176 0 0)
(0.00732838 -0.00126275 0 0.00084688 0 0)
(0.00904141 -0.00157401 0 0.000800186 0 0)
(0.0110756 -0.00178177 0 0.000781941 0 0)
(0.0136324 -0.00194019 0 0.000774625 0 0)
(0.0166842 -0.00206263 0 0.00075421 0 0)
(0.0201446 -0.00213503 0 0.000707512 0 0)
(0.0239157 -0.00212603 0 0.000633442 0 0)
(0.0278669 -0.00199375 0 0.000535821 0 0)
(0.031813 -0.00171877 0 0.000426283 0 0)
(0.035614 -0.00134074 0 0.000327296 0 0)
(0.0393359 -0.000938578 0 0.00025552 0 0)
(0.0431992 -0.000552937 0 0.00020722 0 0)
(0.0473067 -0.000157013 0 0.000168719 0 0)
(0.0514752 0.000293833 0 0.000131242 0 0)
(0.0552774 0.000810208 0 9.7136e-05 0 0)
(0.058177 0.00134476 0 7.66558e-05 0 0)
(0.0597236 0.0018057 0 7.41634e-05 0 0)
(0.0597537 0.00211366 0 8.19491e-05 0 0)
(0.0584616 0.00225152 0 8.95429e-05 0 0)
(0.0562737 0.00226031 0 9.24632e-05 0 0)
(0.0536322 0.00219921 0 9.1629e-05 0 0)
(0.050851 0.00211312 0 8.92554e-05 0 0)
(0.0480991 0.00202473 0 8.67085e-05 0 0)
(0.0454483 0.00194126 0 8.44195e-05 0 0)
(0.0429204 0.00186305 0 8.23809e-05 0 0)
(0.0405155 0.00178877 0 8.04897e-05 0 0)
(0.0382277 0.00171736 0 7.86706e-05 0 0)
(0.0360506 0.00164828 0 7.68884e-05 0 0)
(0.0339792 0.00158134 0 7.51318e-05 0 0)
(0.0320091 0.00151646 0 7.33983e-05 0 0)
(0.0301362 0.0014536 0 7.16868e-05 0 0)
(0.0283567 0.00139271 0 6.99955e-05 0 0)
(0.0266668 0.00133373 0 6.83224e-05 0 0)
(0.0250631 0.00127659 0 6.66646e-05 0 0)
(0.0235423 0.00122125 0 6.50192e-05 0 0)
(0.0221009 0.00116764 0 6.33831e-05 0 0)
(0.0207358 0.00111571 0 6.1753e-05 0 0)
(0.019444 0.00106541 0 6.01258e-05 0 0)
(0.0182223 0.00101668 0 5.8498e-05 0 0)
(0.0170679 0.000969463 0 5.68662e-05 0 0)
(0.015978 0.000923722 0 5.52269e-05 0 0)
(0.0149498 0.000879407 0 5.35769e-05 0 0)
(0.0139807 0.000836473 0 5.19126e-05 0 0)
(0.0130681 0.000794878 0 5.02307e-05 0 0)
(0.0122095 0.000754579 0 4.85281e-05 0 0)
(0.0114024 0.000715537 0 4.68015e-05 0 0)
(0.0106445 0.000677715 0 4.50482e-05 0 0)
(0.00993356 0.000641075 0 4.32655e-05 0 0)
(0.00926722 0.000605582 0 4.1451e-05 0 0)
(0.00864334 0.0005712 0 3.96028e-05 0 0)
(0.00805978 0.000537896 0 3.77194e-05 0 0)
(0.00751445 0.000505636 0 3.58002e-05 0 0)
(0.00700534 0.000474384 0 3.38448e-05 0 0)
(0.00653046 0.000444108 0 3.18542e-05 0 0)
(0.00608787 0.000414775 0 2.98302e-05 0 0)
(0.00567567 0.000386358 0 2.77768e-05 0 0)
(0.00529201 0.000358836 0 2.57006e-05 0 0)
(0.00493506 0.000332207 0 2.36114e-05 0 0)
(0.00460313 0.000306466 0 2.15212e-05 0 0)
(0.00429456 0.000281624 0 1.94455e-05 0 0)
(0.00400783 0.000257657 0 1.73968e-05 0 0)
(0.00374117 0.00023454 0 1.53897e-05 0 0)
(0.00349279 0.000212123 0 1.34245e-05 0 0)
(0.00326125 0.000190272 0 1.15037e-05 0 0)
(0.00304524 0.000168923 0 9.64402e-06 0 0)
(0.00284353 0.00014809 0 7.87547e-06 0 0)
(0.00265487 0.000127813 0 6.23268e-06 0 0)
(0.00247799 0.000108102 0 4.74799e-06 0 0)
(0.0023117 8.8942e-05 0 3.45276e-06 0 0)
(0.00215485 7.03212e-05 0 2.38036e-06 0 0)
(0.00200638 5.22458e-05 0 1.56665e-06 0 0)
(0.00186532 3.47365e-05 0 1.04911e-06 0 0)
(0.00173076 1.78296e-05 0 8.66014e-07 0 0)
(0.00160189 1.57966e-06 0 1.05547e-06 0 0)
(0.00147801 -1.39382e-05 0 1.65417e-06 0 0)
(0.0013585 -2.86278e-05 0 2.69574e-06 0 0)
(0.00124288 -4.23714e-05 0 4.20879e-06 0 0)
(0.00113078 -5.50303e-05 0 6.21467e-06 0 0)
(0.00102197 -6.64472e-05 0 8.7249e-06 0 0)
(0.000916352 -7.64502e-05 0 1.17386e-05 0 0)
(0.000813957 -8.4858e-05 0 1.52396e-05 0 0)
(0.000714972 -9.14881e-05 0 1.91943e-05 0 0)
(0.000619719 -9.61649e-05 0 2.35496e-05 0 0)
(0.000528648 -9.87309e-05 0 2.82314e-05 0 0)
(0.000442334 -9.90587e-05 0 3.31451e-05 0 0)
(0.000361447 -9.70613e-05 0 3.81759e-05 0 0)
(0.000286737 -9.27067e-05 0 4.31936e-05 0 0)
(0.000219005 -8.60258e-05 0 4.80564e-05 0 0)
(0.000159064 -7.71194e-05 0 5.26165e-05 0 0)
(0.000107713 -6.61587e-05 0 5.67239e-05 0 0)
(6.5682e-05 -5.33815e-05 0 6.02255e-05 0 0)
(3.36345e-05 -3.91263e-05 0 6.30139e-05 0 0)
(1.20246e-05 -2.36866e-05 0 6.47497e-05 0 0)
(1.19197e-06 -7.44644e-06 0 6.73715e-05 0 0)
(0.145659 -0.000681675 0 0.015598 0 0)
(0.0509517 0.00588446 0 0.00617331 0 0)
(0.0176201 -0.000651175 0 0.00332507 0 0)
(0.00480142 0.000405844 0 0.00251574 0 0)
(0.00406789 -1.19051e-05 0 0.00211281 0 0)
(0.0051917 -0.00104654 0 0.00193852 0 0)
(0.00656537 -0.00183355 0 0.00194429 0 0)
(0.00790611 -0.00234825 0 0.00195951 0 0)
(0.00965066 -0.00275251 0 0.00195583 0 0)
(0.0119859 -0.0031295 0 0.00196878 0 0)
(0.0147281 -0.00351054 0 0.00197469 0 0)
(0.0175855 -0.00381595 0 0.00195655 0 0)
(0.0204712 -0.00394784 0 0.00188388 0 0)
(0.0234824 -0.003942 0 0.00177211 0 0)
(0.026704 -0.00391759 0 0.00169139 0 0)
(0.0300964 -0.00394194 0 0.0016572 0 0)
(0.03351 -0.00398288 0 0.00163541 0 0)
(0.0367382 -0.00391637 0 0.00159969 0 0)
(0.0395442 -0.00356287 0 0.00149559 0 0)
(0.0416757 -0.00278436 0 0.00124846 0 0)
(0.0429221 -0.00160185 0 0.00087741 0 0)
(0.0431972 -0.000225482 0 0.000517548 0 0)
(0.0425643 0.00105302 0 0.00029087 0 0)
(0.0411945 0.00201497 0 0.00020992 0 0)
(0.0393151 0.00259275 0 0.000211244 0 0)
(0.0371576 0.00284494 0 0.000232369 0 0)
(0.0349053 0.0028826 0 0.000245139 0 0)
(0.0326702 0.00280729 0 0.000246533 0 0)
(0.0305073 0.00268572 0 0.000241476 0 0)
(0.0284405 0.00255226 0 0.000234192 0 0)
(0.0264775 0.00242071 0 0.000226677 0 0)
(0.0246172 0.00229487 0 0.000219525 0 0)
(0.0228557 0.00217482 0 0.000212771 0 0)
(0.021189 0.00205986 0 0.000206318 0 0)
(0.0196134 0.00194936 0 0.000200081 0 0)
(0.0181255 0.00184293 0 0.000194004 0 0)
(0.0167223 0.00174035 0 0.000188059 0 0)
(0.0154005 0.00164145 0 0.000182231 0 0)
(0.0141573 0.00154614 0 0.000176508 0 0)
(0.0129898 0.00145431 0 0.000170884 0 0)
(0.0118951 0.0013659 0 0.000165352 0 0)
(0.0108706 0.00128081 0 0.000159904 0 0)
(0.00991341 0.00119898 0 0.000154535 0 0)
(0.00902101 0.00112035 0 0.000149237 0 0)
(0.00819077 0.00104484 0 0.000144003 0 0)
(0.00742015 0.0009724 0 0.000138828 0 0)
(0.00670662 0.000902976 0 0.000133706 0 0)
(0.00604771 0.00083652 0 0.00012863 0 0)
(0.00544098 0.000772988 0 0.000123597 0 0)
(0.004884 0.000712339 0 0.0001186 0 0)
(0.00437439 0.000654539 0 0.000113636 0 0)
(0.00390976 0.000599555 0 0.000108702 0 0)
(0.00348777 0.000547358 0 0.000103795 0 0)
(0.00310607 0.000497921 0 9.8912e-05 0 0)
(0.00276236 0.000451217 0 9.40528e-05 0 0)
(0.00245434 0.00040722 0 8.92162e-05 0 0)
(0.0021797 0.000365906 0 8.44022e-05 0 0)
(0.00193619 0.000327246 0 7.96119e-05 0 0)
(0.00172156 0.000291212 0 7.48471e-05 0 0)
(0.00153358 0.000257775 0 7.01111e-05 0 0)
(0.00137008 0.000226903 0 6.5409e-05 0 0)
(0.0012289 0.000198563 0 6.07487e-05 0 0)
(0.00110794 0.000172725 0 5.61421e-05 0 0)
(0.00100516 0.000149352 0 5.16045e-05 0 0)
(0.000918553 0.000128402 0 4.71542e-05 0 0)
(0.000846155 0.000109806 0 4.2808e-05 0 0)
(0.000786081 9.34768e-05 0 3.85817e-05 0 0)
(0.000736548 7.93055e-05 0 3.44842e-05 0 0)
(0.000695895 6.72051e-05 0 3.05438e-05 0 0)
(0.000662563 5.70653e-05 0 2.67951e-05 0 0)
(0.00063509 4.87588e-05 0 2.3266e-05 0 0)
(0.000612132 4.21399e-05 0 1.99753e-05 0 0)
(0.000592471 3.70461e-05 0 1.69356e-05 0 0)
(0.000575015 3.3307e-05 0 1.41587e-05 0 0)
(0.000558813 3.07499e-05 0 1.16568e-05 0 0)
(0.000543058 2.9201e-05 0 9.44218e-06 0 0)
(0.000527077 2.84862e-05 0 7.52682e-06 0 0)
(0.000510331 2.84324e-05 0 5.92117e-06 0 0)
(0.000492405 2.887e-05 0 4.63359e-06 0 0)
(0.000473006 2.96359e-05 0 3.66981e-06 0 0)
(0.000451953 3.05766e-05 0 3.03228e-06 0 0)
(0.000429165 3.15513e-05 0 2.71968e-06 0 0)
(0.000404649 3.24346e-05 0 2.72636e-06 0 0)
(0.000378494 3.31195e-05 0 3.04192e-06 0 0)
(0.000350858 3.35191e-05 0 3.65078e-06 0 0)
(0.000321961 3.35684e-05 0 4.5319e-06 0 0)
(0.000292076 3.32245e-05 0 5.65862e-06 0 0)
(0.000261525 3.24669e-05 0 6.99864e-06 0 0)
(0.000230673 3.12956e-05 0 8.51426e-06 0 0)
(0.000199923 2.97288e-05 0 1.01628e-05 0 0)
(0.000169715 2.77998e-05 0 1.18972e-05 0 0)
(0.000140517 2.55531e-05 0 1.36671e-05 0 0)
(0.000112819 2.30397e-05 0 1.54203e-05 0 0)
(8.71227e-05 2.03132e-05 0 1.71044e-05 0 0)
(6.39277e-05 1.74254e-05 0 1.86685e-05 0 0)
(4.37115e-05 1.44258e-05 0 2.00645e-05 0 0)
(2.69207e-05 1.13504e-05 0 2.12461e-05 0 0)
(1.39394e-05 8.23934e-06 0 2.21729e-05 0 0)
(5.07818e-06 5.07571e-06 0 2.26029e-05 0 0)
(5.7767e-07 2.06297e-06 0 2.47585e-05 0 0)
(0.142495 -0.00553259 0 0.0148216 0 0)
(0.0522961 0.00757137 0 0.0071913 0 0)
(0.0147643 -0.0022822 0 0.00433971 0 0)
(0.00380561 -0.000218872 0 0.00367957 0 0)
(0.00337701 -0.000263382 0 0.00380838 0 0)
(0.00456805 -0.00136417 0 0.00408425 0 0)
(0.00596008 -0.00241664 0 0.00426157 0 0)
(0.00731455 -0.00324051 0 0.00436331 0 0)
(0.00910963 -0.00391227 0 0.00436508 0 0)
(0.0114715 -0.00445593 0 0.0041687 0 0)
(0.0142353 -0.00484924 0 0.00381388 0 0)
(0.0172067 -0.00512346 0 0.00348673 0 0)
(0.0203121 -0.00532861 0 0.00327401 0 0)
(0.0235117 -0.00545091 0 0.00312925 0 0)
(0.0266691 -0.00542732 0 0.00298733 0 0)
(0.0295619 -0.00519069 0 0.00280605 0 0)
(0.0320292 -0.00469754 0 0.00256182 0 0)
(0.0340892 -0.00393196 0 0.00223707 0 0)
(0.0358474 -0.00290003 0 0.00182146 0 0)
(0.0373097 -0.00163941 0 0.00134174 0 0)
(0.0383442 -0.000241293 0 0.000884235 0 0)
(0.038782 0.00113978 0 0.000555047 0 0)
(0.0385212 0.00232295 0 0.000400683 0 0)
(0.0375774 0.003176 0 0.000380899 0 0)
(0.0360829 0.00366806 0 0.000418086 0 0)
(0.0342352 0.00386029 0 0.000455487 0 0)
(0.0322192 0.00385372 0 0.000473313 0 0)
(0.0301618 0.00373993 0 0.000474018 0 0)
(0.0281342 0.00357991 0 0.000465458 0 0)
(0.0261728 0.00340601 0 0.00045336 0 0)
(0.0242948 0.00323211 0 0.000440463 0 0)
(0.0225062 0.00306284 0 0.000427709 0 0)
(0.0208082 0.00289917 0 0.000415293 0 0)
(0.0191997 0.00274106 0 0.000403196 0 0)
(0.0176791 0.00258828 0 0.000391367 0 0)
(0.0162439 0.00244065 0 0.00037977 0 0)
(0.0148916 0.00229803 0 0.00036838 0 0)
(0.0136196 0.00216028 0 0.000357181 0 0)
(0.012425 0.0020273 0 0.000346158 0 0)
(0.0113052 0.00189898 0 0.000335295 0 0)
(0.0102576 0.00177522 0 0.000324579 0 0)
(0.00927959 0.00165591 0 0.000313995 0 0)
(0.00836864 0.00154098 0 0.000303528 0 0)
(0.00752225 0.00143035 0 0.000293164 0 0)
(0.00673799 0.00132394 0 0.000282889 0 0)
(0.00601345 0.0012217 0 0.00027269 0 0)
(0.00534625 0.00112357 0 0.000262555 0 0)
(0.00473405 0.00102951 0 0.000252473 0 0)
(0.00417452 0.000939487 0 0.000242434 0 0)
(0.00366536 0.00085347 0 0.00023243 0 0)
(0.00320428 0.000771444 0 0.000222455 0 0)
(0.00278899 0.000693397 0 0.000212504 0 0)
(0.0024172 0.000619323 0 0.000202573 0 0)
(0.00208665 0.00054922 0 0.000192662 0 0)
(0.00179504 0.000483092 0 0.000182773 0 0)
(0.00154009 0.000420944 0 0.000172909 0 0)
(0.00131951 0.000362783 0 0.000163076 0 0)
(0.001131 0.000308614 0 0.000153284 0 0)
(0.000972255 0.000258445 0 0.000143544 0 0)
(0.000840977 0.000212277 0 0.000133874 0 0)
(0.00073486 0.00017011 0 0.000124294 0 0)
(0.000651604 0.000131933 0 0.000114827 0 0)
(0.000588916 9.77268e-05 0 0.000105501 0 0)
(0.000544511 6.74539e-05 0 9.63446e-05 0 0)
(0.000516122 4.10626e-05 0 8.73876e-05 0 0)
(0.000501513 1.84856e-05 0 7.86618e-05 0 0)
(0.000498497 -3.58846e-07 0 7.02036e-05 0 0)
(0.000504953 -1.55698e-05 0 6.20555e-05 0 0)
(0.00051883 -2.72734e-05 0 5.42669e-05 0 0)
(0.000538152 -3.56254e-05 0 4.68861e-05 0 0)
(0.000561039 -4.07998e-05 0 3.99553e-05 0 0)
(0.000585727 -4.29895e-05 0 3.35121e-05 0 0)
(0.000610584 -4.24122e-05 0 2.75962e-05 0 0)
(0.000634127 -3.93123e-05 0 2.22514e-05 0 0)
(0.000655032 -3.39591e-05 0 1.75224e-05 0 0)
(0.000672143 -2.6646e-05 0 1.34504e-05 0 0)
(0.000684494 -1.76884e-05 0 1.00714e-05 0 0)
(0.000691313 -7.42059e-06 0 7.4149e-06 0 0)
(0.00069203 3.80898e-06 0 5.50224e-06 0 0)
(0.000686283 1.56426e-05 0 4.34493e-06 0 0)
(0.000673916 2.77194e-05 0 3.94324e-06 0 0)
(0.000654975 3.96819e-05 0 4.28507e-06 0 0)
(0.000629701 5.11831e-05 0 5.3451e-06 0 0)
(0.000598515 6.18936e-05 0 7.08437e-06 0 0)
(0.000562003 7.15091e-05 0 9.4502e-06 0 0)
(0.000520899 7.97573e-05 0 1.23766e-05 0 0)
(0.000476054 8.64037e-05 0 1.57852e-05 0 0)
(0.00042842 9.12578e-05 0 1.95865e-05 0 0)
(0.000379016 9.41767e-05 0 2.36818e-05 0 0)
(0.0003289 9.50685e-05 0 2.79654e-05 0 0)
(0.000279149 9.38934e-05 0 3.23269e-05 0 0)
(0.000230821 9.06642e-05 0 3.66544e-05 0 0)
(0.000184939 8.54432e-05 0 4.08356e-05 0 0)
(0.000142466 7.83419e-05 0 4.4762e-05 0 0)
(0.000104283 6.95166e-05 0 4.83309e-05 0 0)
(7.11808e-05 5.91686e-05 0 5.14505e-05 0 0)
(4.38183e-05 4.7525e-05 0 5.40404e-05 0 0)
(2.27736e-05 3.48797e-05 0 5.60641e-05 0 0)
(8.36744e-06 2.13428e-05 0 5.70665e-05 0 0)
(1.05095e-06 7.93197e-06 0 6.20313e-05 0 0)
(0.148775 -0.00569934 0 0.0150405 0 0)
(0.0477349 0.0081481 0 0.00687345 0 0)
(0.0168369 -0.00343235 0 0.00493915 0 0)
(0.00374734 -0.000345918 0 0.00474789 0 0)
(0.00321546 -0.000623478 0 0.0048953 0 0)
(0.00469336 -0.00228389 0 0.00514912 0 0)
(0.00625623 -0.00363823 0 0.00541777 0 0)
(0.00753027 -0.00446058 0 0.00557905 0 0)
(0.00905339 -0.00499337 0 0.00562955 0 0)
(0.0111509 -0.00548075 0 0.00562728 0 0)
(0.013755 -0.00600177 0 0.00557684 0 0)
(0.016588 -0.00647106 0 0.00544498 0 0)
(0.019401 -0.00672414 0 0.00519315 0 0)
(0.0220799 -0.00664563 0 0.00480126 0 0)
(0.0246482 -0.00629373 0 0.00434384 0 0)
(0.0271822 -0.00585893 0 0.00396603 0 0)
(0.0297181 -0.00546983 0 0.00371728 0 0)
(0.0322206 -0.005066 0 0.00352013 0 0)
(0.0345717 -0.00444423 0 0.00325472 0 0)
(0.0365704 -0.00339966 0 0.00278898 0 0)
(0.037985 -0.00187071 0 0.00209275 0 0)
(0.0386422 -2.51054e-05 0 0.00135559 0 0)
(0.0384853 0.00179818 0 0.0008392 0 0)
(0.0375802 0.00327118 0 0.000633748 0 0)
(0.0360909 0.00423154 0 0.000636403 0 0)
(0.0342301 0.00470606 0 0.00070267 0 0)
(0.0321922 0.00482983 0 0.000752077 0 0)
(0.0301114 0.00475014 0 0.000768653 0 0)
(0.028064 0.00457437 0 0.000762904 0 0)
(0.0260887 0.00436329 0 0.000746837 0 0)
(0.0242024 0.00414478 0 0.00072727 0 0)
(0.02241 0.00392923 0 0.000706977 0 0)
(0.0207108 0.00371965 0 0.000686812 0 0)
(0.0191027 0.00351663 0 0.000666961 0 0)
(0.0175832 0.00332019 0 0.000647442 0 0)
(0.0161495 0.0031302 0 0.000628245 0 0)
(0.0147987 0.00294656 0 0.000609362 0 0)
(0.0135281 0.00276914 0 0.000590781 0 0)
(0.0123348 0.00259783 0 0.000572489 0 0)
(0.0112162 0.0024325 0 0.000554466 0 0)
(0.0101697 0.00227303 0 0.000536692 0 0)
(0.00919259 0.00211928 0 0.000519144 0 0)
(0.00828247 0.00197116 0 0.000501798 0 0)
(0.00743683 0.00182856 0 0.000484632 0 0)
(0.00665326 0.00169138 0 0.000467622 0 0)
(0.00592938 0.00155954 0 0.000450748 0 0)
(0.00526283 0.00143297 0 0.000433988 0 0)
(0.00465132 0.00131163 0 0.000417324 0 0)
(0.00409254 0.00119545 0 0.000400739 0 0)
(0.00358422 0.0010844 0 0.000384218 0 0)
(0.00312412 0.000978462 0 0.000367749 0 0)
(0.00270997 0.000877613 0 0.000351324 0 0)
(0.00233955 0.000781848 0 0.000334935 0 0)
(0.00201061 0.000691166 0 0.00031858 0 0)
(0.00172091 0.000605574 0 0.00030226 0 0)
(0.0014682 0.000525082 0 0.000285982 0 0)
(0.00125024 0.000449704 0 0.000269755 0 0)
(0.00106478 0.000379456 0 0.000253595 0 0)
(0.000909543 0.000314353 0 0.000237523 0 0)
(0.000782269 0.000254405 0 0.000221564 0 0)
(0.000680684 0.000199619 0 0.000205751 0 0)
(0.000602514 0.00014999 0 0.00019012 0 0)
(0.000545484 0.000105501 0 0.000174714 0 0)
(0.000507322 6.61228e-05 0 0.000159577 0 0)
(0.000485771 3.1806e-05 0 0.000144762 0 0)
(0.000478595 2.48512e-06 0 0.000130324 0 0)
(0.000483593 -2.19267e-05 0 0.000116329 0 0)
(0.000498606 -4.15425e-05 0 0.000102846 0 0)
(0.000521534 -5.65056e-05 0 8.99515e-05 0 0)
(0.000550339 -6.69913e-05 0 7.77201e-05 0 0)
(0.000583065 -7.32058e-05 0 6.62276e-05 0 0)
(0.000617848 -7.53877e-05 0 5.55494e-05 0 0)
(0.000652934 -7.38113e-05 0 4.57614e-05 0 0)
(0.000686699 -6.87885e-05 0 3.69384e-05 0 0)
(0.000717658 -6.06676e-05 0 2.91499e-05 0 0)
(0.000744486 -4.98307e-05 0 2.24573e-05 0 0)
(0.00076603 -3.66907e-05 0 1.69119e-05 0 0)
(0.000781325 -2.16881e-05 0 1.25536e-05 0 0)
(0.000789603 -5.28677e-06 0 9.40857e-06 0 0)
(0.000790305 1.20324e-05 0 7.48718e-06 0 0)
(0.000783091 2.9778e-05 0 6.78194e-06 0 0)
(0.000767837 4.74565e-05 0 7.26594e-06 0 0)
(0.000744645 6.45814e-05 0 8.89177e-06 0 0)
(0.000713831 8.06825e-05 0 1.1591e-05 0 0)
(0.000675922 9.53164e-05 0 1.52744e-05 0 0)
(0.000631642 0.000108077 0 1.98326e-05 0 0)
(0.000581893 0.000118603 0 2.51382e-05 0 0)
(0.000527738 0.000126592 0 3.10474e-05 0 0)
(0.000470369 0.000131802 0 3.74035e-05 0 0)
(0.000411082 0.000134065 0 4.40404e-05 0 0)
(0.000351243 0.000133285 0 5.07865e-05 0 0)
(0.000292251 0.000129446 0 5.74689e-05 0 0)
(0.000235503 0.00012261 0 6.3917e-05 0 0)
(0.000182356 0.000112916 0 6.99674e-05 0 0)
(0.000134089 0.000100575 0 7.54666e-05 0 0)
(9.18753e-05 8.58716e-05 0 8.02765e-05 0 0)
(5.67251e-05 6.9135e-05 0 8.42699e-05 0 0)
(2.9538e-05 5.08085e-05 0 8.74033e-05 0 0)
(1.08581e-05 3.10792e-05 0 8.89684e-05 0 0)
(1.35797e-06 1.14652e-05 0 9.68461e-05 0 0)
(0.141914 -0.00765508 0 0.0162398 0 0)
(0.0504312 0.00860048 0 0.008502 0 0)
(0.0161506 -0.0047028 0 0.00667632 0 0)
(0.00368712 -0.00121235 0 0.00683029 0 0)
(0.00305626 -0.00112886 0 0.00742362 0 0)
(0.00462195 -0.00278225 0 0.00815856 0 0)
(0.00628561 -0.00428431 0 0.00877515 0 0)
(0.00761617 -0.00536302 0 0.00917124 0 0)
(0.00921742 -0.00620076 0 0.00934648 0 0)
(0.0113559 -0.00688316 0 0.00923373 0 0)
(0.0139429 -0.00739645 0 0.00876639 0 0)
(0.0167448 -0.00770553 0 0.0080802 0 0)
(0.0195697 -0.0078196 0 0.0074279 0 0)
(0.0223624 -0.00779526 0 0.00693258 0 0)
(0.0251891 -0.00768419 0 0.0065636 0 0)
(0.0281326 -0.00748583 0 0.00623954 0 0)
(0.0311787 -0.0071372 0 0.00587643 0 0)
(0.0341815 -0.00651881 0 0.00537698 0 0)
(0.0368747 -0.00547179 0 0.0046354 0 0)
(0.0389159 -0.00387161 0 0.0036265 0 0)
(0.0400136 -0.00176857 0 0.00251299 0 0)
(0.040084 0.000543348 0 0.00158715 0 0)
(0.0392741 0.0026562 0 0.00105357 0 0)
(0.0378407 0.00426382 0 0.000895456 0 0)
(0.0360314 0.00527016 0 0.000947802 0 0)
(0.0340354 0.0057539 0 0.00104908 0 0)
(0.0319756 0.00587086 0 0.00111843 0 0)
(0.0299205 0.00577192 0 0.00114273 0 0)
(0.0279073 0.00556549 0 0.00113612 0 0)
(0.0259593 0.00531525 0 0.00111409 0 0)
(0.0240913 0.00505281 0 0.00108603 0 0)
(0.0223104 0.00479153 0 0.00105621 0 0)
(0.0206187 0.00453624 0 0.00102622 0 0)
(0.0190162 0.00428845 0 0.000996575 0 0)
(0.0175014 0.00404853 0 0.000967398 0 0)
(0.016072 0.00381652 0 0.000938719 0 0)
(0.0147252 0.00359229 0 0.00091053 0 0)
(0.0134585 0.0033757 0 0.000882813 0 0)
(0.012269 0.00316659 0 0.000855542 0 0)
(0.011154 0.0029648 0 0.000828684 0 0)
(0.010111 0.00277015 0 0.000802206 0 0)
(0.00913721 0.0025825 0 0.00077607 0 0)
(0.00823027 0.0024017 0 0.000750241 0 0)
(0.00738767 0.00222762 0 0.000724682 0 0)
(0.00660701 0.00206015 0 0.000699358 0 0)
(0.00588592 0.00189918 0 0.000674237 0 0)
(0.00522205 0.00174463 0 0.000649287 0 0)
(0.00461312 0.00159644 0 0.000624479 0 0)
(0.00405684 0.00145453 0 0.000599788 0 0)
(0.00355095 0.00131887 0 0.000575192 0 0)
(0.00309322 0.00118943 0 0.000550672 0 0)
(0.00268142 0.00106618 0 0.000526214 0 0)
(0.0023133 0.000949129 0 0.000501809 0 0)
(0.00198665 0.000838268 0 0.000477452 0 0)
(0.00169924 0.000733609 0 0.000453145 0 0)
(0.00144884 0.000635166 0 0.000428897 0 0)
(0.00123321 0.00054296 0 0.000404722 0 0)
(0.0010501 0.000457012 0 0.000380641 0 0)
(0.000897267 0.00037734 0 0.000356686 0 0)
(0.00077244 0.000303963 0 0.000332892 0 0)
(0.000673356 0.000236888 0 0.000309306 0 0)
(0.000597742 0.000176115 0 0.00028598 0 0)
(0.000543325 0.000121628 0 0.000262975 0 0)
(0.000507837 7.33955e-05 0 0.000240361 0 0)
(0.00048902 3.13667e-05 0 0.000218214 0 0)
(0.000484635 -4.53306e-06 0 0.000196622 0 0)
(0.000492476 -3.44053e-05 0 0.00017568 0 0)
(0.000510373 -5.83829e-05 0 0.000155492 0 0)
(0.000536211 -7.66341e-05 0 0.000136166 0 0)
(0.000567935 -8.93656e-05 0 0.000117815 0 0)
(0.000603568 -9.6824e-05 0 0.000100555 0 0)
(0.000641221 -9.92975e-05 0 8.45034e-05 0 0)
(0.000679113 -9.71181e-05 0 6.9775e-05 0 0)
(0.000715587 -9.06629e-05 0 5.64795e-05 0 0)
(0.000749123 -8.03539e-05 0 4.47192e-05 0 0)
(0.000778359 -6.66548e-05 0 3.45857e-05 0 0)
(0.000802101 -5.00687e-05 0 2.61574e-05 0 0)
(0.000819339 -3.11343e-05 0 1.94957e-05 0 0)
(0.000829261 -1.04202e-05 0 1.4642e-05 0 0)
(0.000831265 1.14815e-05 0 1.16144e-05 0 0)
(0.000824964 3.39639e-05 0 1.04052e-05 0 0)
(0.000810198 5.64146e-05 0 1.09785e-05 0 0)
(0.000787031 7.82262e-05 0 1.32684e-05 0 0)
(0.000755751 9.88081e-05 0 1.71779e-05 0 0)
(0.000716867 0.000117599 0 2.25792e-05 0 0)
(0.000671098 0.000134079 0 2.93141e-05 0 0)
(0.000619357 0.000147782 0 3.71961e-05 0 0)
(0.00056273 0.000158309 0 4.60136e-05 0 0)
(0.000502458 0.000165339 0 5.55338e-05 0 0)
(0.000439901 0.000168635 0 6.55075e-05 0 0)
(0.000376508 0.000168057 0 7.56749e-05 0 0)
(0.000313783 0.000163563 0 8.57719e-05 0 0)
(0.000253238 0.000155215 0 9.55364e-05 0 0)
(0.000196361 0.000143173 0 0.000104715 0 0)
(0.000144563 0.000127699 0 0.000113068 0 0)
(9.91523e-05 0.000109149 0 0.000120381 0 0)
(6.12619e-05 8.79453e-05 0 0.000126453 0 0)
(3.19094e-05 6.4661e-05 0 0.00013122 0 0)
(1.17273e-05 3.95529e-05 0 0.000133617 0 0)
(1.46224e-06 1.45655e-05 0 0.000145443 0 0)
(0.140635 -0.00935958 0 0.0156715 0 0)
(0.0527092 0.0128158 0 0.00984266 0 0)
(0.0161669 -0.00443366 0 0.00878418 0 0)
(0.00370028 -0.000448844 0 0.00916707 0 0)
(0.00310232 -0.000682884 0 0.0100377 0 0)
(0.00443328 -0.0028718 0 0.010812 0 0)
(0.00609879 -0.00462694 0 0.0112261 0 0)
(0.00762148 -0.00573422 0 0.0115154 0 0)
(0.0092965 -0.0065417 0 0.0118034 0 0)
(0.0113402 -0.00729137 0 0.0119677 0 0)
(0.0138336 -0.00805093 0 0.0118869 0 0)
(0.0167436 -0.00877474 0 0.0115431 0 0)
(0.019973 -0.00935921 0 0.0109723 0 0)
(0.0233995 -0.00968808 0 0.0102692 0 0)
(0.0268421 -0.0097148 0 0.00961194 0 0)
(0.0300796 -0.00951929 0 0.00911872 0 0)
(0.0329936 -0.00916349 0 0.00872197 0 0)
(0.0356114 -0.00851145 0 0.00823514 0 0)
(0.0379436 -0.00730385 0 0.00738563 0 0)
(0.0398373 -0.00536448 0 0.00595559 0 0)
(0.041016 -0.00275168 0 0.00413683 0 0)
(0.0412456 0.000175635 0 0.00251711 0 0)
(0.0404844 0.00288084 0 0.00155723 0 0)
(0.038909 0.004932 0 0.00125274 0 0)
(0.0368214 0.00619013 0 0.00130704 0 0)
(0.0345187 0.00677358 0 0.00144583 0 0)
(0.0322037 0.00690413 0 0.00154272 0 0)
(0.029973 0.00678174 0 0.00157898 0 0)
(0.0278557 0.00653899 0 0.00157386 0 0)
(0.0258539 0.00624814 0 0.00154743 0 0)
(0.0239621 0.00594325 0 0.00151171 0 0)
(0.0221735 0.00563855 0 0.00147239 0 0)
(0.0204821 0.00533958 0 0.0014319 0 0)
(0.0188834 0.00504845 0 0.00139127 0 0)
(0.0173738 0.00476602 0 0.00135095 0 0)
(0.01595 0.00449257 0 0.00131113 0 0)
(0.014609 0.00422815 0 0.00127191 0 0)
(0.0133479 0.00397267 0 0.00123332 0 0)
(0.0121638 0.00372597 0 0.00119533 0 0)
(0.0110541 0.00348788 0 0.00115793 0 0)
(0.010016 0.00325821 0 0.00112105 0 0)
(0.00904712 0.00303677 0 0.00108466 0 0)
(0.00814482 0.00282341 0 0.00104869 0 0)
(0.00730672 0.00261795 0 0.00101311 0 0)
(0.0065304 0.00242027 0 0.00097786 0 0)
(0.00581352 0.00223025 0 0.00094289 0 0)
(0.00515377 0.00204778 0 0.00090816 0 0)
(0.00454887 0.00187279 0 0.000873627 0 0)
(0.00399654 0.0017052 0 0.000839256 0 0)
(0.00349457 0.00154496 0 0.000805015 0 0)
(0.00304072 0.00139205 0 0.000770877 0 0)
(0.00263277 0.00124644 0 0.000736821 0 0)
(0.00226853 0.00110813 0 0.000702835 0 0)
(0.00194576 0.00097712 0 0.00066891 0 0)
(0.00166227 0.000853427 0 0.000635049 0 0)
(0.00141583 0.000737072 0 0.000601262 0 0)
(0.00120421 0.000628083 0 0.000567567 0 0)
(0.00102517 0.000526491 0 0.000533995 0 0)
(0.000876469 0.000432323 0 0.000500585 0 0)
(0.000755839 0.000345604 0 0.000467387 0 0)
(0.000661011 0.000266353 0 0.000434462 0 0)
(0.000589707 0.000194572 0 0.000401885 0 0)
(0.000539646 0.000130254 0 0.00036974 0 0)
(0.000508545 7.33685e-05 0 0.000338125 0 0)
(0.00049413 2.38622e-05 0 0.000307148 0 0)
(0.000494144 -1.83459e-05 0 0.000276932 0 0)
(0.000506351 -5.33698e-05 0 0.000247609 0 0)
(0.000528554 -8.13609e-05 0 0.000219322 0 0)
(0.000558601 -0.000102513 0 0.000192224 0 0)
(0.0005944 -0.000117063 0 0.000166472 0 0)
(0.000633932 -0.000125301 0 0.000142229 0 0)
(0.000675267 -0.000127563 0 0.00011966 0 0)
(0.000716581 -0.000124241 0 9.89257e-05 0 0)
(0.00075617 -0.000115781 0 8.01806e-05 0 0)
(0.000792471 -0.00010268 0 6.35712e-05 0 0)
(0.000824079 -8.54924e-05 0 4.92303e-05 0 0)
(0.00084976 -6.48165e-05 0 3.7273e-05 0 0)
(0.000868467 -4.12976e-05 0 2.77915e-05 0 0)
(0.00087936 -1.56188e-05 0 2.08507e-05 0 0)
(0.00088181 1.15067e-05 0 1.64837e-05 0 0)
(0.000875418 3.9345e-05 0 1.46878e-05 0 0)
(0.000860016 6.7153e-05 0 1.54207e-05 0 0)
(0.000835673 9.41912e-05 0 1.85982e-05 0 0)
(0.000802692 0.000119738 0 2.40921e-05 0 0)
(0.00076161 0.000143103 0 3.17294e-05 0 0)
(0.000713186 0.000163645 0 4.12937e-05 0 0)
(0.000658382 0.000180787 0 5.25267e-05 0 0)
(0.000598351 0.00019403 0 6.51323e-05 0 0)