/*--------------------------------*- C++ -*----------------------------------*\
| =========                 |                                                 |
| \\      /  F ield         | OpenFOAM: The Open Source CFD Toolbox           |
|  \\    /   O peration     | Version:  4.1                                   |
|   \\  /    A nd           | Web:      www.OpenFOAM.org                      |
|    \\/     M anipulation  |                                                 |
\*---------------------------------------------------------------------------*/
FoamFile
{
    version     2.0;
    format      ascii;
    class       volScalarField;
    location    "0.19";
    object      nut;
}
// * * * * * * * * * * * * * * * * * * * * * * * * * * * * * * * * * * * * * //

dimensions      [0 2 -1 0 0 0 0];

internalField   nonuniform List<scalar> 
43750
(
0.00139176
0.00140768
0.00142293
0.00143749
0.00145138
0.00146459
0.00147714
0.00148902
0.00150022
0.00151076
0.00152063
0.00152983
0.00153835
0.00154619
0.00155335
0.00155982
0.00156561
0.0015707
0.00157509
0.00157878
0.00158176
0.00158402
0.00158557
0.00158639
0.00158647
0.00158582
0.00158442
0.00158226
0.00157933
0.00157563
0.00157114
0.00156586
0.00155976
0.00155285
0.0015451
0.0015365
0.00152705
0.00151673
0.00150555
0.00149349
0.00148057
0.0014668
0.00145221
0.00143684
0.00142076
0.00140404
0.00138681
0.00136921
0.0013514
0.0013336
0.00131604
0.00129897
0.00128266
0.00126734
0.00125323
0.00124051
0.00122927
0.00121955
0.00121132
0.00120449
0.00119895
0.00119457
0.00119119
0.00118861
0.00118655
0.00118463
0.00118241
0.00117936
0.00117493
0.00116864
0.00116008
0.00114899
0.00113527
0.00111897
0.00110028
0.00107945
0.00105676
0.00103327
0.00100993
0.00098608
0.000961157
0.000934767
0.00090665
0.000876677
0.000844841
0.00081126
0.000776203
0.000740124
0.000703905
0.000669694
0.000643489
0.000624338
0.000603403
0.00057969
0.000554326
0.000528878
0.000504746
0.000482815
0.000462142
0.000434187
0.000845988
0.000841657
0.00083885
0.000837434
0.000837302
0.00083833
0.00084039
0.000843359
0.000847116
0.00085154
0.000856517
0.000861934
0.00086769
0.000873694
0.00087987
0.000886158
0.000892518
0.00089893
0.000905393
0.00091193
0.00091858
0.000925403
0.000932475
0.000939889
0.000947749
0.000956171
0.000965283
0.000975222
0.000986134
0.000998175
0.00101151
0.00102632
0.0010428
0.00106114
0.00108158
0.00110435
0.00112971
0.00115795
0.00118938
0.00122433
0.00126314
0.00130621
0.00135392
0.00140667
0.00146488
0.00152893
0.0015992
0.00167603
0.00175969
0.00185037
0.00194816
0.00205302
0.00216479
0.00228309
0.0024074
0.00253696
0.00267085
0.00280795
0.00294706
0.00308692
0.00322634
0.0033642
0.00349947
0.00363108
0.00375781
0.00387821
0.00399062
0.0040932
0.00418413
0.00426173
0.00432466
0.00437195
0.00440296
0.00441739
0.00441525
0.00439707
0.00436402
0.00431763
0.00425931
0.00418985
0.00410924
0.004017
0.00391258
0.0037956
0.00366576
0.00352273
0.0033662
0.00319585
0.00301244
0.00281802
0.00260474
0.00235994
0.00210325
0.00185051
0.00161383
0.001403
0.00122468
0.00107705
0.000919184
0.000467118
0.000843657
0.000835914
0.000828822
0.000822313
0.000816331
0.000810833
0.000805786
0.000801164
0.000796947
0.000793121
0.000789675
0.000786601
0.000783893
0.000781549
0.000779564
0.000777937
0.000776664
0.000775742
0.000775167
0.000774931
0.000775027
0.000775445
0.000776172
0.000777194
0.000778495
0.000780057
0.000781861
0.000783889
0.000786124
0.000788551
0.00079116
0.000793947
0.000796917
0.000800085
0.000803482
0.000807154
0.000811169
0.000815614
0.000820605
0.000826281
0.000832811
0.00084039
0.000849242
0.000859616
0.000871781
0.00088603
0.000902667
0.00092201
0.000944386
0.000970131
0.000999589
0.00103312
0.00107109
0.0011139
0.00116196
0.00121572
0.00127563
0.00134214
0.00141566
0.00149652
0.00158494
0.00168101
0.00178469
0.00189581
0.00201412
0.00213919
0.00227046
0.00240711
0.00254799
0.00269148
0.00283535
0.00297676
0.00311228
0.0032382
0.00335095
0.00344757
0.00352628
0.00358658
0.00362912
0.003655
0.00366514
0.00365977
0.00363828
0.00359949
0.00354195
0.00346417
0.00336483
0.00324285
0.00309782
0.00293045
0.00274247
0.00253654
0.00231747
0.0020912
0.00186705
0.00165497
0.00146544
0.00130359
0.00113161
0.000511887
0.000843648
0.000835876
0.000828726
0.000822117
0.000815984
0.00081027
0.00080493
0.000799923
0.000795218
0.000790787
0.000786606
0.000782656
0.000778921
0.000775387
0.000772043
0.000768881
0.000765894
0.000763078
0.00076043
0.000757948
0.000755632
0.000753484
0.000751507
0.000749702
0.000748076
0.000746632
0.000745376
0.000744313
0.000743449
0.000742789
0.000742338
0.000742098
0.000742072
0.000742261
0.000742664
0.000743278
0.000744098
0.000745119
0.000746333
0.000747734
0.000749316
0.000751076
0.000753019
0.000755154
0.000757504
0.000760107
0.000763017
0.000766307
0.000770074
0.000774439
0.000779549
0.000785577
0.000792728
0.000801242
0.000811397
0.000823512
0.000837957
0.000855147
0.000875543
0.000899636
0.000927927
0.000960908
0.000999043
0.00104275
0.00109242
0.00114838
0.00121094
0.00128033
0.00135666
0.00143981
0.0015293
0.00162418
0.00172293
0.00182347
0.00192329
0.00201974
0.00211031
0.00219306
0.00226685
0.00233133
0.00238662
0.00243278
0.00246935
0.00249529
0.00250905
0.0025089
0.00249315
0.00246034
0.00240945
0.00234019
0.00225316
0.00215007
0.002034
0.00190938
0.00178191
0.00165786
0.00154208
0.00143553
0.00129395
0.000556825
0.000843648
0.000835876
0.000828725
0.000822114
0.000815977
0.000810257
0.000804908
0.000799889
0.000795165
0.000790708
0.000786493
0.000782496
0.0007787
0.000775087
0.000771644
0.000768357
0.000765215
0.00076221
0.000759334
0.000756578
0.000753939
0.00075141
0.000748988
0.000746672
0.000744458
0.000742346
0.000740337
0.000738431
0.00073663
0.000734936
0.000733353
0.000731885
0.000730536
0.000729312
0.000728219
0.000727261
0.000726445
0.000725776
0.00072526
0.0007249
0.0007247
0.000724661
0.000724782
0.00072506
0.000725491
0.000726067
0.00072678
0.000727619
0.000728575
0.000729643
0.00073082
0.000732113
0.00073354
0.000735132
0.000736941
0.000739044
0.000741547
0.000744591
0.000748362
0.000753092
0.000759067
0.000766616
0.000776108
0.00078794
0.000802518
0.000820252
0.000841544
0.000866776
0.000896291
0.000930355
0.000969103
0.00101247
0.00106016
0.00111155
0.0011658
0.00122181
0.00127836
0.0013342
0.00138827
0.00143981
0.00148841
0.00153389
0.00157605
0.00161449
0.00164853
0.00167725
0.00169968
0.00171488
0.00172211
0.00172089
0.00171115
0.0016933
0.00166832
0.00163776
0.00160355
0.00156757
0.00153106
0.00149187
0.00139771
0.000592513
0.000843648
0.000835876
0.000828725
0.000822114
0.000815976
0.000810257
0.000804907
0.000799887
0.000795164
0.000790706
0.000786489
0.000782491
0.000778693
0.000775076
0.000771628
0.000768333
0.000765182
0.000762163
0.000759267
0.000756487
0.000753816
0.000751246
0.000748774
0.000746393
0.0007441
0.000741892
0.000739765
0.000737718
0.000735749
0.000733856
0.00073204
0.0007303
0.000728637
0.000727053
0.00072555
0.000724129
0.000722795
0.000721551
0.000720401
0.00071935
0.000718403
0.000717565
0.000716842
0.000716239
0.00071576
0.000715409
0.000715189
0.000715101
0.000715144
0.000715314
0.000715606
0.000716011
0.000716519
0.000717115
0.000717787
0.000718521
0.000719307
0.00072014
0.000721031
0.000722007
0.000723122
0.000724468
0.000726179
0.000728438
0.000731476
0.000735569
0.000741032
0.000748205
0.000757439
0.000769079
0.00078343
0.000800731
0.000821123
0.00084463
0.000871154
0.000900456
0.000932145
0.000965661
0.0010003
0.00103531
0.00107
0.00110394
0.00113689
0.00116883
0.00119975
0.00122958
0.00125822
0.00128555
0.00131151
0.00133612
0.00135958
0.0013822
0.00140443
0.0014267
0.00144921
0.00147144
0.00149167
0.00150413
0.00144997
0.000615487
0.000843648
0.000835876
0.000828725
0.000822114
0.000815977
0.000810257
0.000804907
0.000799887
0.000795163
0.000790705
0.000786488
0.000782489
0.00077869
0.000775073
0.000771624
0.000768328
0.000765175
0.000762155
0.000759258
0.000756475
0.0007538
0.000751226
0.000748748
0.00074636
0.000744057
0.000741835
0.000739692
0.000737623
0.000735627
0.000733701
0.000731842
0.00073005
0.000728324
0.000726662
0.000725065
0.000723533
0.000722067
0.000720667
0.000719335
0.000718075
0.000716888
0.000715778
0.00071475
0.000713808
0.000712957
0.000712205
0.000711556
0.000711018
0.000710596
0.000710297
0.000710127
0.000710087
0.000710182
0.000710409
0.000710767
0.000711247
0.00071184
0.000712533
0.000713309
0.000714152
0.000715049
0.000715993
0.00071699
0.000718066
0.000719274
0.000720705
0.000722489
0.000724808
0.000727892
0.000732022
0.000737515
0.000744706
0.000753921
0.000765456
0.000779543
0.000796328
0.000815815
0.000837803
0.00086184
0.000887248
0.000913258
0.000939214
0.000964753
0.000989849
0.00101473
0.00103972
0.00106515
0.00109137
0.00111875
0.00114776
0.00117902
0.00121325
0.00125126
0.00129376
0.00134098
0.00139205
0.00144419
0.00148959
0.00146474
0.000629237
0.000843649
0.000835877
0.000828726
0.000822115
0.000815978
0.000810257
0.000804908
0.000799888
0.000795164
0.000790706
0.000786489
0.000782491
0.000778692
0.000775075
0.000771626
0.000768331
0.000765179
0.000762159
0.000759262
0.00075648
0.000753805
0.000751231
0.000748753
0.000746364
0.00074406
0.000741838
0.000739692
0.000737621
0.000735621
0.000733689
0.000731823
0.000730021
0.000728282
0.000726605
0.000724987
0.000723429
0.00072193
0.00072049
0.000719109
0.000717789
0.00071653
0.000715334
0.000714203
0.000713141
0.000712151
0.000711238
0.000710408
0.000709666
0.000709019
0.000708475
0.000708042
0.000707728
0.000707542
0.000707493
0.000707587
0.00070783
0.000708228
0.000708784
0.000709497
0.000710368
0.000711395
0.000712578
0.000713916
0.000715416
0.000717093
0.000718971
0.000721098
0.000723545
0.00072642
0.000729873
0.000734108
0.000739369
0.000745931
0.000754067
0.000764023
0.000775993
0.000790095
0.000806322
0.000824471
0.000844115
0.000864656
0.000885498
0.000906236
0.000926774
0.000947299
0.000968167
0.00098979
0.0010126
0.00103707
0.00106382
0.00109364
0.00112757
0.00116687
0.00121283
0.0012664
0.00132743
0.00139348
0.00145626
0.00145006
0.000635916
0.000843649
0.000835877
0.000828726
0.000822116
0.000815979
0.000810259
0.000804909
0.000799889
0.000795166
0.000790708
0.000786491
0.000782493
0.000778694
0.000775078
0.000771629
0.000768334
0.000765182
0.000762162
0.000759265
0.000756483
0.000753809
0.000751235
0.000748757
0.000746368
0.000744065
0.000741842
0.000739697
0.000737625
0.000735624
0.000733692
0.000731825
0.000730022
0.000728281
0.000726601
0.000724979
0.000723416
0.000721911
0.000720462
0.00071907
0.000717735
0.000716458
0.000715238
0.000714078
0.000712979
0.000711943
0.000710974
0.000710076
0.000709252
0.000708509
0.000707852
0.000707289
0.000706827
0.000706475
0.000706244
0.000706144
0.000706185
0.000706379
0.000706739
0.000707278
0.00070801
0.000708952
0.000710121
0.000711541
0.000713239
0.000715249
0.000717612
0.000720383
0.000723631
0.000727447
0.000731947
0.000737278
0.000743611
0.000751111
0.000759902
0.000770031
0.000781461
0.000794112
0.000807896
0.000822728
0.000838479
0.000854928
0.000871791
0.000888831
0.000905962
0.000923296
0.000941094
0.000959688
0.000979446
0.00100079
0.00102426
0.00105064
0.001081
0.00111679
0.0011597
0.00121136
0.00127249
0.00134152
0.0014107
0.00141434
0.000637803
0.000843649
0.000835878
0.000828727
0.000822117
0.00081598
0.00081026
0.000804911
0.000799892
0.000795168
0.000790711
0.000786494
0.000782497
0.000778698
0.000775082
0.000771634
0.000768339
0.000765188
0.000762168
0.000759272
0.00075649
0.000753816
0.000751243
0.000748765
0.000746377
0.000744074
0.000741852
0.000739707
0.000737635
0.000735635
0.000733702
0.000731835
0.000730032
0.000728291
0.000726611
0.000724989
0.000723425
0.000721919
0.000720469
0.000719075
0.000717737
0.000716456
0.000715232
0.000714065
0.000712957
0.00071191
0.000710926
0.000710007
0.000709157
0.000708379
0.00070768
0.000707063
0.000706536
0.000706106
0.00070578
0.00070557
0.000705486
0.000705539
0.000705745
0.000706121
0.000706687
0.000707468
0.000708494
0.000709802
0.000711438
0.000713459
0.000715932
0.000718941
0.000722586
0.000726989
0.000732293
0.000738664
0.000746273
0.00075526
0.000765668
0.000777383
0.000790119
0.000803478
0.000817093
0.000830759
0.000844459
0.000858275
0.000872281
0.000886497
0.000900949
0.000915726
0.000931012
0.000947062
0.000964173
0.000982686
0.00100305
0.00102591
0.00105226
0.0010835
0.00112145
0.00116807
0.00122474
0.00129074
0.00135923
0.00136618
0.000636948
0.000843649
0.000835879
0.000828728
0.000822118
0.000815982
0.000810262
0.000804913
0.000799894
0.000795171
0.000790714
0.000786498
0.000782501
0.000778703
0.000775087
0.000771639
0.000768345
0.000765194
0.000762175
0.000759279
0.000756498
0.000753825
0.000751252
0.000748775
0.000746387
0.000744084
0.000741862
0.000739718
0.000737647
0.000735646
0.000733714
0.000731848
0.000730045
0.000728304
0.000726623
0.000725002
0.000723438
0.000721931
0.000720482
0.000719088
0.00071775
0.000716469
0.000715245
0.000714078
0.000712969
0.000711921
0.000710934
0.000710011
0.000709155
0.000708369
0.000707658
0.000707024
0.000706474
0.000706014
0.000705651
0.000705392
0.000705248
0.000705228
0.000705348
0.000705623
0.000706075
0.00070673
0.000707621
0.000708791
0.000710295
0.000712199
0.000714591
0.000717574
0.000721276
0.000725849
0.000731473
0.00073835
0.000746685
0.000756643
0.00076827
0.000781411
0.000795652
0.000810376
0.000824943
0.000838918
0.000852206
0.00086499
0.000877559
0.000890141
0.000902882
0.000915892
0.000929314
0.000943346
0.000958232
0.000974254
0.000991782
0.00101136
0.00103383
0.00106048
0.00109306
0.00113361
0.00118386
0.00124367
0.00130721
0.00131299
0.000634989
0.00084365
0.000835879
0.000828729
0.00082212
0.000815983
0.000810264
0.000804916
0.000799897
0.000795174
0.000790718
0.000786503
0.000782506
0.000778708
0.000775093
0.000771646
0.000768352
0.000765202
0.000762183
0.000759288
0.000756508
0.000753835
0.000751263
0.000748786
0.000746399
0.000744097
0.000741875
0.000739731
0.00073766
0.00073566
0.000733729
0.000731862
0.00073006
0.000728319
0.000726638
0.000725017
0.000723453
0.000721947
0.000720497
0.000719104
0.000717767
0.000716486
0.000715262
0.000714096
0.000712988
0.000711941
0.000710955
0.000710033
0.000709177
0.00070839
0.000707677
0.00070704
0.000706485
0.000706017
0.000705642
0.000705367
0.0007052
0.000705152
0.000705235
0.000705464
0.000705858
0.000706444
0.000707254
0.000708331
0.000709731
0.000711525
0.000713805
0.000716685
0.000720306
0.000724838
0.000730482
0.000737464
0.000746017
0.00075634
0.000768519
0.000782429
0.000797661
0.00081353
0.000829248
0.000844181
0.000858069
0.000871037
0.000883417
0.000895542
0.000907637
0.00091984
0.000932268
0.000945069
0.000958425
0.000972555
0.000987747
0.00100444
0.00102336
0.00104563
0.00107288
0.0011071
0.00115013
0.00120221
0.00125839
0.00126014
0.000633098
0.00084365
0.00083588
0.00082873
0.000822121
0.000815985
0.000810267
0.000804919
0.0007999
0.000795178
0.000790722
0.000786507
0.000782511
0.000778714
0.0007751
0.000771653
0.00076836
0.00076521
0.000762193
0.000759298
0.000756518
0.000753846
0.000751275
0.000748799
0.000746412
0.00074411
0.00074189
0.000739746
0.000737676
0.000735676
0.000733745
0.000731879
0.000730077
0.000728336
0.000726656
0.000725034
0.000723471
0.000721965
0.000720516
0.000719122
0.000717786
0.000716505
0.000715282
0.000714116
0.00071301
0.000711963
0.000710978
0.000710057
0.000709203
0.000708417
0.000707705
0.000707069
0.000706514
0.000706045
0.000705667
0.000705389
0.000705217
0.00070516
0.000705232
0.000705445
0.000705819
0.000706378
0.000707152
0.000708185
0.000709531
0.000711259
0.000713463
0.000716256
0.000719783
0.000724217
0.000729764
0.000736658
0.000745142
0.000755431
0.00076765
0.00078173
0.00079733
0.000813816
0.00083038
0.000846293
0.000861142
0.000874913
0.000887875
0.000900367
0.000912653
0.000924889
0.000937178
0.000949614
0.000962306
0.000975378
0.000989006
0.0010035
0.00101944
0.00103778
0.00106001
0.00108801
0.00112363
0.00116734
0.00121498
0.00121105
0.00063202
0.000843651
0.000835881
0.000828732
0.000822123
0.000815987
0.000810269
0.000804922
0.000799904
0.000795182
0.000790727
0.000786513
0.000782517
0.000778721
0.000775107
0.000771661
0.000768369
0.00076522
0.000762203
0.000759309
0.00075653
0.000753859
0.000751288
0.000748813
0.000746427
0.000744126
0.000741906
0.000739763
0.000737693
0.000735694
0.000733763
0.000731897
0.000730095
0.000728355
0.000726675
0.000725054
0.000723491
0.000721985
0.000720536
0.000719143
0.000717806
0.000716526
0.000715303
0.000714138
0.000713032
0.000711986
0.000711002
0.000710082
0.000709229
0.000708445
0.000707734
0.000707099
0.000706545
0.000706076
0.0007057
0.000705422
0.000705249
0.000705193
0.000705263
0.000705474
0.000705844
0.000706397
0.000707163
0.000708182
0.000709509
0.000711211
0.000713378
0.000716123
0.000719585
0.000723935
0.000729374
0.000736129
0.000744438
0.000754518
0.00076651
0.000780396
0.000795913
0.000812524
0.000829493
0.000846087
0.000861804
0.000876495
0.000890316
0.000903558
0.00091649
0.000929287
0.000942044
0.000954815
0.000967629
0.000980499
0.00099346
0.00100664
0.00102042
0.00103556
0.00105335
0.00107554
0.00110396
0.00113926
0.00117801
0.00116763
0.00063216
0.000843651
0.000835882
0.000828733
0.000822124
0.00081599
0.000810272
0.000804925
0.000799908
0.000795187
0.000790732
0.000786519
0.000782524
0.000778728
0.000775115
0.00077167
0.000768379
0.00076523
0.000762214
0.000759321
0.000756543
0.000753872
0.000751302
0.000748828
0.000746443
0.000744142
0.000741923
0.000739781
0.000737712
0.000735713
0.000733783
0.000731917
0.000730116
0.000728376
0.000726696
0.000725075
0.000723512
0.000722007
0.000720557
0.000719165
0.000717828
0.000716549
0.000715326
0.000714162
0.000713056
0.000712011
0.000711027
0.000710108
0.000709256
0.000708472
0.000707762
0.000707128
0.000706575
0.000706108
0.000705733
0.000705456
0.000705285
0.000705229
0.000705301
0.000705514
0.000705886
0.000706441
0.000707209
0.000708229
0.000709554
0.000711252
0.000713408
0.000716133
0.000719561
0.000723857
0.000729213
0.000735845
0.000743977
0.000753817
0.000765508
0.000779057
0.000794264
0.000810687
0.000827692
0.000844604
0.000860896
0.000876327
0.000890942
0.000904968
0.000918658
0.000932204
0.000945712
0.000959216
0.000972685
0.000986027
0.000999122
0.0010119
0.00102447
0.00103732
0.00105151
0.00106858
0.00109035
0.00111763
0.00114771
0.00113075
0.00063368
0.000843651
0.000835882
0.000828734
0.000822126
0.000815992
0.000810275
0.000804928
0.000799912
0.000795192
0.000790738
0.000786525
0.000782531
0.000778736
0.000775124
0.000771679
0.000768389
0.000765241
0.000762226
0.000759334
0.000756557
0.000753887
0.000751318
0.000748844
0.00074646
0.00074416
0.000741942
0.0007398
0.000737732
0.000735734
0.000733804
0.000731939
0.000730138
0.000728398
0.000726719
0.000725098
0.000723536
0.00072203
0.000720581
0.000719188
0.000717852
0.000716573
0.00071535
0.000714186
0.000713081
0.000712036
0.000711053
0.000710134
0.000709282
0.0007085
0.00070779
0.000707157
0.000706605
0.000706139
0.000705764
0.000705489
0.000705319
0.000705266
0.00070534
0.000705555
0.00070593
0.000706489
0.000707261
0.000708286
0.000709616
0.000711316
0.000713472
0.000716191
0.000719604
0.000723869
0.000729169
0.000735709
0.000743701
0.000753339
0.000764758
0.000777971
0.000792815
0.000808917
0.000825737
0.000842678
0.000859237
0.000875126
0.000890312
0.000904956
0.000919292
0.00093353
0.000947798
0.000962137
0.000976489
0.000990689
0.00100448
0.00101759
0.00102986
0.00104143
0.00105301
0.00106591
0.00108185
0.00110183
0.00112386
0.0011006
0.000636579
0.000843652
0.000835883
0.000828736
0.000822128
0.000815994
0.000810278
0.000804932
0.000799916
0.000795197
0.000790743
0.000786531
0.000782538
0.000778744
0.000775133
0.000771689
0.000768399
0.000765253
0.000762239
0.000759347
0.000756571
0.000753902
0.000751334
0.000748861
0.000746478
0.000744179
0.000741962
0.000739821
0.000737753
0.000735756
0.000733827
0.000731963
0.000730162
0.000728423
0.000726743
0.000725123
0.000723561
0.000722055
0.000720606
0.000719214
0.000717878
0.000716598
0.000715376
0.000714212
0.000713106
0.000712062
0.000711079
0.000710161
0.000709309
0.000708527
0.000707818
0.000707185
0.000706634
0.000706168
0.000705795
0.00070552
0.000705352
0.0007053
0.000705376
0.000705594
0.000705972
0.000706535
0.000707311
0.000708341
0.000709675
0.000711379
0.000713537
0.000716254
0.000719658
0.000723901
0.000729163
0.000735638
0.000743528
0.000753018
0.000764229
0.000777173
0.000791699
0.000807474
0.000824023
0.000840824
0.000857418
0.000873509
0.000889017
0.000904051
0.000918829
0.000933571
0.00094844
0.000963504
0.000978714
0.000993876
0.00100865
0.00102259
0.00103525
0.00104645
0.00105648
0.00106629
0.00107745
0.00109111
0.00110597
0.00107698
0.000640761
0.000843652
0.000835884
0.000828737
0.00082213
0.000815997
0.000810281
0.000804936
0.000799921
0.000795202
0.00079075
0.000786538
0.000782546
0.000778753
0.000775142
0.000771699
0.000768411
0.000765265
0.000762252
0.000759362
0.000756586
0.000753919
0.000751352
0.00074888
0.000746497
0.0007442
0.000741983
0.000739843
0.000737776
0.00073578
0.000733851
0.000731987
0.000730187
0.000728448
0.00072677
0.000725149
0.000723587
0.000722082
0.000720633
0.000719241
0.000717904
0.000716625
0.000715403
0.000714238
0.000713133
0.000712088
0.000711106
0.000710187
0.000709336
0.000708554
0.000707845
0.000707213
0.000706662
0.000706197
0.000705824
0.00070555
0.000705383
0.000705332
0.00070541
0.00070563
0.000706011
0.000706576
0.000707356
0.000708389
0.000709726
0.000711432
0.000713591
0.000716304
0.000719699
0.000723924
0.000729154
0.000735579
0.000743396
0.000752781
0.000763848
0.000776601
0.00079089
0.000806397
0.000822685
0.000839283
0.000855779
0.000871892
0.000887521
0.000902742
0.000917753
0.000932785
0.000948031
0.000963604
0.000979488
0.000995507
0.00101129
0.00102627
0.00103981
0.00105136
0.00106079
0.00106863
0.00107619
0.00108467
0.00109344
0.00105947
0.000646094
0.000843653
0.000835885
0.000828739
0.000822132
0.000816
0.000810285
0.00080494
0.000799926
0.000795207
0.000790756
0.000786545
0.000782554
0.000778761
0.000775152
0.00077171
0.000768423
0.000765278
0.000762266
0.000759377
0.000756602
0.000753936
0.00075137
0.000748899
0.000746517
0.000744221
0.000742005
0.000739866
0.0007378
0.000735804
0.000733876
0.000732014
0.000730214
0.000728476
0.000726797
0.000725177
0.000723615
0.00072211
0.000720661
0.000719269
0.000717933
0.000716653
0.000715431
0.000714266
0.000713161
0.000712116
0.000711133
0.000710215
0.000709363
0.000708581
0.000707872
0.00070724
0.000706688
0.000706224
0.000705851
0.000705578
0.000705411
0.000705362
0.000705441
0.000705662
0.000706045
0.000706613
0.000707394
0.000708429
0.000709768
0.000711474
0.00071363
0.000716338
0.00071972
0.000723926
0.000729126
0.000735509
0.000743267
0.000752575
0.000763543
0.000776171
0.000790303
0.000805622
0.000821702
0.000838105
0.000854456
0.000870496
0.000886119
0.000901383
0.000916467
0.000931605
0.000947019
0.000962864
0.000979178
0.000995831
0.00101247
0.00102849
0.00104311
0.00105551
0.00106514
0.00107205
0.0010772
0.00108175
0.00108562
0.0010475
0.000652435
0.000843653
0.000835886
0.00082874
0.000822134
0.000816002
0.000810288
0.000804944
0.000799931
0.000795213
0.000790762
0.000786553
0.000782562
0.000778771
0.000775162
0.000771721
0.000768435
0.000765292
0.00076228
0.000759392
0.000756619
0.000753954
0.000751389
0.000748919
0.000746539
0.000744243
0.000742028
0.00073989
0.000737825
0.00073583
0.000733903
0.000732041
0.000730242
0.000728504
0.000726826
0.000725207
0.000723645
0.00072214
0.000720691
0.000719299
0.000717962
0.000716682
0.00071546
0.000714295
0.000713189
0.000712144
0.000711161
0.000710242
0.00070939
0.000708608
0.000707898
0.000707266
0.000706715
0.00070625
0.000705877
0.000705604
0.000705438
0.000705389
0.000705468
0.000705691
0.000706075
0.000706644
0.000707426
0.000708462
0.0007098
0.000711505
0.000713656
0.000716354
0.000719722
0.000723906
0.000729075
0.000735416
0.000743123
0.000752369
0.000763266
0.000775812
0.000789848
0.000805049
0.000820991
0.000837244
0.000853458
0.000869397
0.000884959
0.000900187
0.000915247
0.000930369
0.000945791
0.000961708
0.000978216
0.000995249
0.00101251
0.00102942
0.00104513
0.00105863
0.00106902
0.00107589
0.00107977
0.00108163
0.00108181
0.00104042
0.000659654
0.000843654
0.000835887
0.000828742
0.000822137
0.000816005
0.000810292
0.000804948
0.000799936
0.000795219
0.000790769
0.00078656
0.000782571
0.000778781
0.000775173
0.000771733
0.000768448
0.000765306
0.000762296
0.000759409
0.000756637
0.000753972
0.000751409
0.00074894
0.000746561
0.000744266
0.000742053
0.000739915
0.000737851
0.000735858
0.000733931
0.00073207
0.000730271
0.000728534
0.000726857
0.000725237
0.000723676
0.000722171
0.000720722
0.00071933
0.000717993
0.000716713
0.00071549
0.000714325
0.000713219
0.000712173
0.00071119
0.00071027
0.000709418
0.000708635
0.000707925
0.000707292
0.00070674
0.000706275
0.000705902
0.000705628
0.000705462
0.000705413
0.000705492
0.000705715
0.0007061
0.000706669
0.000707452
0.000708487
0.000709823
0.000711523
0.000713667
0.000716354
0.000719704
0.000723863
0.000728999
0.000735298
0.000742954
0.000752144
0.000762984
0.000775474
0.000789453
0.000804591
0.000820454
0.000836614
0.00085273
0.000868582
0.000884077
0.000899249
0.000914247
0.000929292
0.000944629
0.000960482
0.000976998
0.000994181
0.00101181
0.00102938
0.00104605
0.00106072
0.00107222
0.00107974
0.00108332
0.00108368
0.00108134
0.00103755
0.000667644
0.000843654
0.000835888
0.000828743
0.000822139
0.000816008
0.000810295
0.000804953
0.000799941
0.000795225
0.000790776
0.000786568
0.00078258
0.000778791
0.000775184
0.000771745
0.000768461
0.00076532
0.000762311
0.000759426
0.000756655
0.000753992
0.000751429
0.000748962
0.000746584
0.000744291
0.000742078
0.000739942
0.000737879
0.000735886
0.00073396
0.0007321
0.000730302
0.000728565
0.000726888
0.000725269
0.000723708
0.000722203
0.000720755
0.000719362
0.000718025
0.000716745
0.000715522
0.000714356
0.00071325
0.000712203
0.000711219
0.000710299
0.000709446
0.000708662
0.000707951
0.000707317
0.000706764
0.000706298
0.000705925
0.00070565
0.000705483
0.000705434
0.000705513
0.000705736
0.00070612
0.000706688
0.00070747
0.000708503
0.000709836
0.00071153
0.000713664
0.000716337
0.000719668
0.000723799
0.000728899
0.000735153
0.000742758
0.000751894
0.000762681
0.000775127
0.000789071
0.00080418
0.000820011
0.000836126
0.000852191
0.000867995
0.00088345
0.000898583
0.000913526
0.000928486
0.000943707
0.000959426
0.000975831
0.000992992
0.00101078
0.00102877
0.00104621
0.00106196
0.00107474
0.00108336
0.00108744
0.00108733
0.0010836
0.0010382
0.000676316
0.000843655
0.00083589
0.000828745
0.000822141
0.000816011
0.000810299
0.000804957
0.000799946
0.000795231
0.000790783
0.000786577
0.000782589
0.000778801
0.000775195
0.000771758
0.000768475
0.000765335
0.000762327
0.000759443
0.000756673
0.000754012
0.00075145
0.000748984
0.000746607
0.000744316
0.000742104
0.000739969
0.000737907
0.000735915
0.000733991
0.000732131
0.000730334
0.000728598
0.000726921
0.000725303
0.000723742
0.000722237
0.000720788
0.000719396
0.000718059
0.000716778
0.000715554
0.000714388
0.000713281
0.000712234
0.000711249
0.000710328
0.000709474
0.000708689
0.000707977
0.000707342
0.000706788
0.000706321
0.000705946
0.000705671
0.000705503
0.000705452
0.00070553
0.000705752
0.000706135
0.000706702
0.000707482
0.000708511
0.000709839
0.000711525
0.000713648
0.000716305
0.000719613
0.000723714
0.000728775
0.000734981
0.000742532
0.000751611
0.000762346
0.000774752
0.000788672
0.000803773
0.000819601
0.000835712
0.000851769
0.000867567
0.000883022
0.000898154
0.00091308
0.000927987
0.000943106
0.00095868
0.000974924
0.000991961
0.00100974
0.00102796
0.00104595
0.00106265
0.00107669
0.0010867
0.00109187
0.00109216
0.00108799
0.00104172
0.000685599
0.000843655
0.000835891
0.000828747
0.000822144
0.000816014
0.000810303
0.000804962
0.000799952
0.000795238
0.000790791
0.000786585
0.000782598
0.000778811
0.000775207
0.000771771
0.000768489
0.00076535
0.000762344
0.000759461
0.000756693
0.000754032
0.000751472
0.000749007
0.000746632
0.000744341
0.000742131
0.000739997
0.000737936
0.000735946
0.000734022
0.000732163
0.000730367
0.000728632
0.000726955
0.000725337
0.000723777
0.000722272
0.000720823
0.00071943
0.000718093
0.000716812
0.000715588
0.000714421
0.000713313
0.000712266
0.00071128
0.000710358
0.000709502
0.000708716
0.000708003
0.000707366
0.000706811
0.000706342
0.000705966
0.000705689
0.00070552
0.000705468
0.000705544
0.000705764
0.000706145
0.00070671
0.000707486
0.000708511
0.000709832
0.00071151
0.000713619
0.000716257
0.00071954
0.000723608
0.000728627
0.000734783
0.000742276
0.000751295
0.000761975
0.000774339
0.00078824
0.000803342
0.000819188
0.000835322
0.000851404
0.000867236
0.000882734
0.000897912
0.000912871
0.000927778
0.000942845
0.000958309
0.000974398
0.000991274
0.00100896
0.00102725
0.00104561
0.00106307
0.00107831
0.00108981
0.00109647
0.00109781
0.00109403
0.00104751
0.000695434
0.000843656
0.000835892
0.000828749
0.000822146
0.000816018
0.000810307
0.000804967
0.000799957
0.000795244
0.000790798
0.000786594
0.000782608
0.000778822
0.000775219
0.000771784
0.000768504
0.000765366
0.000762361
0.000759479
0.000756712
0.000754053
0.000751495
0.000749031
0.000746657
0.000744368
0.000742159
0.000740026
0.000737967
0.000735977
0.000734054
0.000732196
0.000730401
0.000728666
0.000726991
0.000725373
0.000723813
0.000722308
0.00072086
0.000719467
0.000718129
0.000716848
0.000715623
0.000714456
0.000713347
0.000712298
0.000711311
0.000710388
0.000709531
0.000708743
0.000708029
0.000707391
0.000706834
0.000706363
0.000705985
0.000705706
0.000705534
0.00070548
0.000705555
0.000705773
0.000706151
0.000706712
0.000707484
0.000708504
0.000709817
0.000711483
0.000713578
0.000716195
0.00071945
0.000723483
0.000728456
0.000734558
0.000741989
0.000750943
0.000761564
0.000773884
0.000787765
0.000802875
0.000818751
0.000834927
0.000851059
0.000866953
0.000882531
0.000897802
0.000912848
0.000927817
0.0009429
0.000958319
0.000974302