/*--------------------------------*- C++ -*----------------------------------*\
| =========                 |                                                 |
| \\      /  F ield         | OpenFOAM: The Open Source CFD Toolbox           |
|  \\    /   O peration     | Version:  4.1                                   |
|   \\  /    A nd           | Web:      www.OpenFOAM.org                      |
|    \\/     M anipulation  |                                                 |
\*---------------------------------------------------------------------------*/
FoamFile
{
    version     2.0;
    format      ascii;
    class       volScalarField;
    location    "0.19";
    object      p;
}
// * * * * * * * * * * * * * * * * * * * * * * * * * * * * * * * * * * * * * //

dimensions      [0 2 -2 0 0 0 0];

internalField   nonuniform List<scalar> 
43750
(
111.493
111.389
111.337
111.357
111.409
111.473
111.551
111.65
111.768
111.906
112.06
112.232
112.422
112.628
112.852
113.093
113.351
113.625
113.917
114.225
114.55
114.892
115.251
115.626
116.017
116.426
116.85
117.291
117.748
118.221
118.71
119.214
119.734
120.268
120.817
121.38
121.956
122.545
123.146
123.759
124.383
125.017
125.66
126.314
126.976
127.647
128.328
129.019
129.72
130.433
131.158
131.896
132.648
133.415
134.196
134.991
135.798
136.614
137.438
138.266
139.095
139.923
140.749
141.572
142.391
143.206
144.015
144.816
145.606
146.384
147.145
147.89
148.619
149.332
150.032
150.72
151.399
152.069
152.73
153.382
154.023
154.652
155.268
155.87
156.459
157.035
157.598
158.151
158.695
159.228
159.753
160.27
160.775
161.255
161.701
162.1
162.442
162.713
162.904
162.995
111.319
111.293
111.274
111.294
111.343
111.411
111.495
111.597
111.718
111.856
112.012
112.185
112.375
112.582
112.807
113.047
113.305
113.58
113.871
114.179
114.503
114.845
115.202
115.577
115.968
116.375
116.798
117.238
117.694
118.166
118.654
119.158
119.677
120.21
120.759
121.322
121.899
122.489
123.092
123.707
124.333
124.971
125.62
126.278
126.946
127.624
128.312
129.009
129.717
130.436
131.167
131.91
132.668
133.439
134.225
135.023
135.834
136.655
137.482
138.313
139.145
139.976
140.804
141.628
142.449
143.266
144.077
144.879
145.671
146.449
147.21
147.953
148.679
149.387
150.083
150.767
151.442
152.11
152.77
153.421
154.061
154.688
155.301
155.899
156.483
157.053
157.612
158.159
158.697
159.229
159.76
160.283
160.788
161.268
161.715
162.117
162.46
162.731
162.919
163.026
111.235
111.235
111.24
111.265
111.315
111.383
111.468
111.569
111.688
111.825
111.979
112.149
112.337
112.542
112.763
113.002
113.256
113.528
113.816
114.121
114.442
114.779
115.133
115.503
115.89
116.292
116.711
117.146
117.596
118.063
118.545
119.042
119.554
120.081
120.623
121.179
121.749
122.332
122.928
123.537
124.158
124.792
125.436
126.092
126.76
127.438
128.127
128.828
129.541
130.265
131.002
131.751
132.514
133.289
134.077
134.876
135.687
136.505
137.331
138.161
138.993
139.825
140.656
141.486
142.311
143.133
143.948
144.755
145.551
146.333
147.1
147.85
148.583
149.301
150.005
150.699
151.383
152.059
152.727
153.386
154.034
154.671
155.292
155.899
156.492
157.071
157.638
158.196
158.747
159.292
159.831
160.359
160.872
161.361
161.815
162.227
162.577
162.855
163.046
163.162
111.142
111.147
111.16
111.19
111.24
111.309
111.395
111.497
111.616
111.754
111.908
112.079
112.267
112.471
112.693
112.931
113.186
113.457
113.744
114.048
114.369
114.705
115.058
115.428
115.813
116.214
116.632
117.065
117.513
117.978
118.457
118.952
119.461
119.985
120.524
121.076
121.642
122.222
122.814
123.419
124.036
124.664
125.305
125.957
126.62
127.295
127.98
128.677
129.386
130.106
130.838
131.583
132.339
133.107
133.887
134.678
135.479
136.288
137.104
137.925
138.75
139.576
140.404
141.23
142.055
142.877
143.693
144.503
145.305
146.095
146.873
147.637
148.386
149.121
149.843
150.554
151.255
151.948
152.632
153.307
153.971
154.623
155.261
155.884
156.494
157.091
157.678
158.256
158.828
159.393
159.952
160.501
161.034
161.541
162.012
162.429
162.786
163.069
163.266
163.384
111.043
111.051
111.071
111.108
111.161
111.231
111.319
111.422
111.542
111.68
111.833
112.004
112.191
112.395
112.615
112.852
113.105
113.374
113.66
113.962
114.28
114.615
114.965
115.332
115.715
116.113
116.528
116.958
117.403
117.864
118.34
118.832
119.338
119.858
120.393
120.942
121.504
122.08
122.669
123.27
123.884
124.51
125.148
125.798
126.459
127.132
127.816
128.512
129.219
129.937
130.668
131.41
132.163
132.927
133.702
134.487
135.281
136.083
136.891
137.704
138.521
139.34
140.16
140.98
141.799
142.615
143.428
144.236
145.037
145.829
146.612
147.384
148.144
148.892
149.63
150.358
151.077
151.788
152.491
153.184
153.866
154.536
155.193
155.836
156.467
157.086
157.696
158.298
158.895
159.486
160.07
160.643
161.199
161.728
162.218
162.658
163.034
163.332
163.544
163.679
110.933
110.943
110.967
111.006
111.061
111.132
111.22
111.324
111.444
111.581
111.734
111.904
112.09
112.293
112.512
112.747
112.999
113.267
113.551
113.852
114.169
114.501
114.85
115.215
115.595
115.991
116.403
116.831
117.274
117.732
118.205
118.693
119.196
119.714
120.245
120.791
121.35
121.923
122.508
123.107
123.718
124.342
124.977
125.625
126.284
126.955
127.638
128.332
129.038
129.755
130.483
131.223
131.974
132.735
133.507
134.287
135.076
135.873
136.675
137.483
138.294
139.107
139.922
140.737
141.551
142.363
143.172
143.977
144.776
145.569
146.353
147.129
147.895
148.652
149.4
150.138
150.87
151.594
152.31
153.019
153.717
154.403
155.076
155.736
156.383
157.021
157.65
158.272
158.889
159.501
160.107
160.702
161.281
161.833
162.347
162.809
163.204
163.516
163.738
163.88
110.812
110.822
110.848
110.889
110.946
111.018
111.106
111.211
111.331
111.468
111.621
111.79
111.976
112.178
112.396
112.63
112.88
113.147
113.429
113.728
114.042
114.373
114.719
115.081
115.459
115.853
116.262
116.686
117.126
117.581
118.05
118.535
119.034
119.548
120.076
120.618
121.174
121.743
122.325
122.92
123.528
124.149
124.782
125.427
126.084
126.752
127.433
128.125
128.829
129.545
130.271
131.009
131.758
132.516
133.285
134.063
134.848
135.641
136.44
137.244
138.052
138.863
139.675
140.488
141.3
142.111
142.919
143.723
144.522
145.316
146.103
146.883
147.654
148.417
149.171
149.917
150.655
151.386
152.11
152.828
153.536
154.233
154.916
155.586
156.243
156.89
157.529
158.16
158.787
159.408
160.024
160.632
161.225
161.794
162.328
162.811
163.225
163.554
163.788
163.94
110.677
110.688
110.714
110.757
110.815
110.888
110.976
111.081
111.201
111.338
111.49
111.659
111.843
112.044
112.26
112.493
112.742
113.007
113.287
113.584
113.896
114.224
114.568
114.928
115.303
115.693
116.099
116.521
116.957
117.409
117.875
118.356
118.852
119.362
119.886
120.424
120.976
121.542
122.12
122.712
123.317
123.934
124.563
125.205
125.859
126.526
127.204
127.893
128.595
129.308
130.032
130.767
131.513
132.269
133.035
133.809
134.592
135.382
136.178
136.98
137.786
138.595
139.406
140.218
141.03
141.842
142.651
143.457
144.259
145.057
145.848
146.634
147.412
148.182
148.944
149.697
150.441
151.177
151.906
152.627
153.339
154.041
154.729
155.402
156.062
156.71
157.348
157.978
158.601
159.218
159.829
160.434
161.026
161.599
162.141
162.636
163.065
163.409
163.654
163.814
110.528
110.539
110.566
110.61
110.668
110.742
110.83
110.935
111.055
111.191
111.343
111.511
111.694
111.894
112.109
112.34
112.587
112.85
113.129
113.423
113.733
114.059
114.4
114.757
115.129
115.516
115.919
116.337
116.77
117.218
117.681
118.159
118.65
119.157
119.677
120.211
120.759
121.32
121.895
122.483
123.084
123.697
124.323
124.962
125.612
126.275
126.95
127.637
128.335
129.045
129.766
130.498
131.24
131.993
132.755
133.526
134.306
135.093
135.886
136.686
137.489
138.297
139.107
139.919
140.732
141.545
142.357
143.166
143.973
144.775
145.574
146.366
147.153
147.932
148.704
149.466
150.219
150.962
151.696
152.419
153.133
153.834
154.522
155.196
155.854
156.497
157.128
157.748
158.358
158.96
159.554
160.14
160.716
161.275
161.808
162.3
162.731
163.08
163.33
163.493
110.365
110.376
110.404
110.447
110.506
110.58
110.669
110.773
110.893
111.028
111.179
111.346
111.528
111.727
111.94
112.17
112.415
112.676
112.952
113.244
113.552
113.875
114.213
114.567
114.936
115.321
115.72
116.135
116.564
117.008
117.467
117.941
118.429
118.931
119.447
119.977
120.521
121.078
121.648
122.232
122.829
123.438
124.061
124.695
125.342
126.001
126.672
127.355
128.05
128.756
129.474
130.202
130.941
131.69
132.448
133.215
133.991
134.775
135.565
136.361
137.163
137.968
138.778
139.589
140.402
141.217
142.03
142.843
143.654
144.463
145.267
146.068
146.864
147.654
148.436
149.21
149.974
150.726
151.465
152.192
152.907
153.608
154.295
154.966
155.62
156.257
156.879
157.485
158.077
158.657
159.226
159.784
160.33
160.861
161.369
161.841
162.259
162.601
162.846
163.006
110.187
110.198
110.226
110.27
110.329
110.403
110.491
110.595
110.715
110.849
111
111.165
111.346
111.543
111.755
111.983
112.226
112.485
112.759
113.048
113.353
113.674
114.009
114.36
114.726
115.107
115.503
115.914
116.339
116.78
117.234
117.704
118.187
118.685
119.197
119.723
120.262
120.815
121.381
121.96
122.553
123.158
123.776
124.406
125.049
125.704
126.371
127.05
127.74
128.442
129.156
129.88
130.614
131.359
132.113
132.877
133.649
134.428
135.215
136.008
136.807
137.61
138.417
139.228
140.041
140.855
141.671
142.486
143.301
144.114
144.925
145.733
146.537
147.337
148.13
148.915
149.689
150.451
151.198
151.931
152.649
153.351
154.037
154.706
155.356
155.987
156.599
157.192
157.766
158.322
158.862
159.387
159.897
160.39
160.861
161.299
161.69
162.012
162.244
162.395
109.995
110.006
110.034
110.078
110.137
110.21
110.299
110.402
110.521
110.655
110.804
110.968
111.148
111.343
111.554
111.779
112.02
112.277
112.549
112.835
113.138
113.455
113.787
114.135
114.497
114.875
115.267
115.674
116.095
116.532
116.982
117.447
117.927
118.42
118.927
119.448
119.983
120.531
121.092
121.667
122.255
122.855
123.468
124.094
124.732
125.383
126.045
126.719
127.405
128.103
128.812
129.531
130.261
131.001
131.751
132.51
133.278
134.053
134.836
135.625
136.421
137.221
138.026
138.835
139.647
140.462
141.278
142.094
142.911
143.728
144.543
145.357
146.168
146.975
147.777
148.571
149.355
150.126
150.882
151.622
152.344
153.049
153.736
154.404
155.052
155.678
156.282
156.863
157.42
157.954
158.467
158.958
159.429
159.88
160.308
160.705
161.058
161.351
161.562
161.699
109.788
109.799
109.827
109.871
109.93
110.003
110.091
110.194
110.311
110.444
110.592
110.755
110.934
111.127
111.336
111.559
111.798
112.052
112.321
112.605
112.905
113.219
113.548
113.892
114.251
114.624
115.013
115.416
115.833
116.265
116.711
117.172
117.646
118.135
118.637
119.154
119.683
120.226
120.783
121.352
121.935
122.53
123.139
123.759
124.392
125.038
125.695
126.365
127.045
127.738
128.442
129.156
129.881
130.616
131.361
132.115
132.878
133.649
134.428
135.213
136.005
136.802
137.605
138.411
139.222
140.035
140.85
141.668
142.486
143.304
144.122
144.939
145.755
146.567
147.375
148.176
148.967
149.746
150.509
151.256
151.984
152.693
153.382
154.051
154.698
155.321
155.919
156.49
157.033
157.548
158.035
158.496
158.93
159.34
159.723
160.075
160.387
160.645
160.831
160.951
109.566
109.578
109.605
109.649
109.708
109.78
109.868
109.97
110.087
110.219
110.365
110.527
110.704
110.895
111.102
111.323
111.56
111.811
112.077
112.359
112.655
112.966
113.291
113.632
113.987
114.356
114.741
115.139
115.552
115.98
116.422
116.877
117.347
117.831
118.328
118.839
119.363
119.901
120.452
121.017
121.594
122.184
122.786
123.402
124.029
124.669
125.321
125.985
126.66
127.347
128.045
128.754
129.474
130.204
130.943
131.692
132.45
133.216
133.99
134.771
135.558
136.352
137.151
137.955
138.763
139.574
140.388
141.205
142.023
142.842
143.661
144.48
145.297
146.112
146.923
147.728
148.524
149.308
150.077
150.829
151.563
152.276
152.969
153.639
154.286
154.907
155.5
156.064
156.595
157.095
157.561
157.995
158.397
158.768
159.109
159.418
159.688
159.91
160.068
160.171
109.33
109.342
109.369
109.413
109.471
109.543
109.63
109.731
109.847
109.977
110.123
110.283
110.458
110.647
110.852
111.071
111.305
111.554
111.817
112.095
112.388
112.695
113.017
113.354
113.705
114.071
114.451
114.845
115.254
115.676
116.113
116.564
117.028
117.507
117.999
118.504
119.023
119.556
120.101
120.659
121.231
121.815
122.412
123.021
123.643
124.277
124.923
125.581
126.25
126.931
127.623
128.326
129.04
129.764
130.497
131.24
131.992
132.753
133.521
134.297
135.08
135.869
136.664
137.465
138.269
139.078
139.89
140.705
141.521
142.339
143.158
143.977
144.794
145.61
146.422
147.228
148.026
148.813
149.586
150.342
151.079
151.795
152.49
153.163
153.81
154.43
155.019
155.577
156.1
156.587
157.036
157.448
157.822
158.161
158.465
158.734
158.964
159.153
159.284
159.371
109.08
109.091
109.119
109.162
109.219
109.291
109.377
109.477
109.592
109.721
109.865
110.023
110.196
110.384
110.586
110.803
111.034
111.28
111.54
111.815
112.105
112.408
112.727
113.059
113.406
113.768
114.143
114.533
114.937
115.354
115.786
116.231
116.691
117.164
117.65
118.15
118.663
119.189
119.729
120.281
120.847
121.425
122.015
122.618
123.234
123.861
124.501
125.152
125.815
126.49
127.175
127.871
128.579
129.296
130.023
130.76
131.505
132.26
133.023
133.793
134.57
135.354
136.145
136.94
137.741
138.546
139.355
140.167
140.981
141.797
142.614
143.431
144.247
145.061
145.872
146.677
147.475
148.262
149.036
149.793
150.531
151.25
151.946
152.619
153.265
153.884
154.471
155.024
155.54
156.017
156.453
156.847
157.199
157.511
157.784
158.019
158.215
158.373
158.481
158.552
108.815
108.827
108.854
108.896
108.953
109.024
109.109
109.208
109.322
109.45
109.592
109.749
109.92
110.105
110.305
110.519
110.748
110.99
111.248
111.519
111.805
112.105
112.419
112.748
113.091
113.447
113.818
114.203
114.602
115.014
115.441
115.881
116.334
116.801
117.282
117.776
118.283
118.803
119.336
119.882
120.441
121.012
121.596
122.193
122.801
123.422
124.055
124.699
125.355
126.022
126.701
127.39
128.09
128.8
129.52
130.25
130.989
131.737
132.493
133.257
134.028
134.806
135.591
136.381
137.177
137.977
138.782
139.589
140.4
141.212
142.026
142.84
143.653
144.464
145.272
146.075
146.87
147.655
148.428
149.184
149.922
150.639
151.335
152.007
152.652
153.268
153.852
154.4
154.911
155.38
155.806
156.186
156.522
156.812
157.06
157.268
157.436
157.567
157.655
157.714
108.537
108.548
108.574
108.617
108.673
108.743
108.827
108.925
109.038
109.164
109.305
109.459
109.628
109.811
110.008
110.22
110.445
110.685
110.939
111.207
111.489
111.785
112.096
112.42
112.758
113.11
113.476
113.856
114.249
114.656
115.077
115.511
115.959
116.42
116.895
117.382
117.883
118.396
118.923
119.462
120.014
120.578
121.155
121.744
122.346
122.959
123.584
124.221
124.87
125.53
126.2
126.882
127.574
128.277
128.989
129.712
130.443
131.183
131.932
132.689
133.453
134.225
135.003
135.787
136.576
137.371
138.17
138.972
139.778
140.585
141.394
142.204
143.012
143.819
144.623
145.422
146.213
146.994
147.762
148.515
149.25
149.965
150.658
151.326
151.968
152.581
153.161
153.705
154.21
154.673
155.091
155.461
155.784
156.058
156.287
156.474
156.62
156.73
156.801
156.85
108.244
108.255
108.281
108.323
108.379
108.448
108.531
108.628
108.739
108.864
109.002
109.155
109.322
109.502
109.697
109.906
110.128
110.365
110.615
110.879
111.157
111.45
111.755
112.075
112.409
112.756
113.117
113.491
113.879
114.281
114.696
115.124
115.566
116.02
116.488
116.969
117.463
117.97
118.489
119.021
119.566
120.123
120.692
121.274
121.867
122.473
123.09
123.719
124.36
125.011
125.674
126.347
127.031
127.726
128.43
129.144
129.867
130.599
131.34
132.089
132.845
133.609
134.38
135.157
135.939
136.727
137.519
138.315
139.114
139.915
140.718
141.521
142.324
143.126
143.924
144.716
145.502
146.277
147.04
147.788
148.517
149.227
149.915
150.578
151.215
151.822
152.397
152.936
153.436
153.893
154.304
154.667
154.98
155.244
155.46
155.63
155.76
155.855
155.914
155.955
107.937
107.948
107.974
108.015
108.07
108.139
108.221
108.316
108.426
108.549
108.686
108.836
109.001
109.179
109.371
109.576
109.795
110.029
110.275
110.536
110.81
111.098
111.399
111.714
112.043
112.385
112.741
113.11
113.492
113.888
114.297
114.719
115.154
115.602
116.063
116.537
117.024
117.523
118.035
118.56
119.097
119.646
120.208
120.781
121.366
121.964
122.573
123.193
123.825
124.468
125.122
125.786
126.461
127.147
127.842
128.547
129.261
129.985
130.716
131.456
132.204
132.959
133.721
134.49
135.264
136.044
136.828
137.616
138.407
139.201
139.997
140.793
141.588
142.382
143.173
143.959
144.737
145.505
146.261
147.001
147.723
148.426
149.106
149.763
150.393
150.994
151.562
152.095
152.588
153.039
153.445
153.802
154.108
154.364
154.571
154.732
154.85
154.934
154.984
155.02
107.617
107.628
107.653
107.694
107.748
107.816
107.896
107.991
108.098
108.22
108.355
108.503
108.665
108.84
109.029
109.232
109.448
109.678
109.921
110.177
110.447
110.731
111.027
111.338
111.661
111.998
112.348
112.711
113.088
113.477
113.88
114.296
114.724
115.165
115.619
116.086
116.565
117.057
117.562
118.078
118.607
119.148
119.701
120.266
120.843
121.431
122.031
122.643
123.265
123.899
124.544
125.199
125.864
126.54
127.226
127.921
128.625
129.339
130.061
130.791
131.53
132.275
133.028
133.787
134.551
135.322
136.097
136.876
137.658
138.443
139.229
140.017
140.804
141.589
142.371
143.148
143.917
144.676
145.423
146.154
146.867
147.561
148.233
148.881
149.502
150.094
150.655
151.18
151.666
152.111
152.511
152.863
153.165
153.416
153.617
153.771
153.883
153.96
154.005
154.037
107.283
107.294
107.319
107.359
107.413
107.479
107.559
107.651
107.758
107.877
108.01
108.156
108.315
108.488
108.674
108.873
109.086
109.312
109.551
109.803
110.069
110.348
110.64
110.945
111.263
111.595
111.939
112.297
112.667
113.05
113.446
113.855
114.276
114.711
115.157
115.616
116.088
116.572
117.068
117.576
118.097
118.629
119.173
119.729
120.297
120.876
121.467
122.069
122.681
123.305
123.94
124.585
125.24
125.905
126.581
127.265
127.959
128.662
129.374
130.094
130.821
131.556
132.298
133.046
133.801
134.56
135.325
136.093
136.865
137.64
138.416
139.193
139.969
140.744
141.516
142.283
143.042
143.791
144.527
145.247
145.95
146.633
147.294
147.931
148.542
149.124
149.675
150.191
150.67
151.108
151.501
151.848
152.146
152.394
152.592
152.744
152.852
152.926
152.968
152.998
106.937
106.947
106.972
107.011
107.064
107.129
107.207
107.299
107.403
107.521
107.651
107.795
107.952
108.121
108.304
108.5
108.709
108.932
109.167
109.415
109.676
109.95
110.237
110.537
110.85
111.176
111.514
111.865
112.229
112.606
112.995
113.397
113.811
114.238
114.677
115.128
115.592
116.067
116.555
117.055
117.566
118.09
118.625
119.171
119.729
120.298
120.879
121.471
122.073
122.686
123.31
123.945
124.589
125.243
125.907
126.581
127.263
127.955
128.655
129.363
130.079
130.802
131.532
132.269
133.012
133.76
134.512
135.269
136.029
136.792
137.556
138.321
139.085
139.848
140.608
141.363
142.11
142.847
143.57
144.278
144.969
145.639
146.288
146.913
147.512
148.083
148.622
149.128
149.598
150.027
150.414
150.756
151.05
151.296
151.493
151.643
151.751
151.824
151.865
151.895
106.576
106.587
106.611
106.65
106.701
106.766
106.843
106.932
107.035
107.151
107.279
107.42
107.574
107.741
107.921
108.113
108.319
108.537
108.768
109.012
109.268
109.537
109.819
110.114
110.421
110.741
111.073
111.418
111.776
112.145
112.528
112.922
113.329
113.748
114.179
114.622
115.077
115.544
116.023
116.513
117.016
117.529
118.055
118.591
119.139
119.698
120.268
120.849
121.441
122.043
122.656
123.278
123.911
124.554
125.206
125.867
126.538
127.217
127.904
128.6
129.303
130.014
130.731
131.455
132.184
132.919
133.658
134.402
135.148
135.898
136.648
137.4
138.151
138.9
139.646
140.387
141.12
141.843
142.553
143.247
143.923
144.58
145.214
145.825
146.411
146.968
147.496
147.99
148.448
148.868
149.248
149.583
149.873
150.117
150.313
150.464
150.572
150.646
150.687
150.719
106.204
106.214
106.238
106.276
106.326
106.389
106.465
106.553
106.654
106.767
106.893
107.032
107.183
107.347
107.524
107.713
107.914
108.128
108.355
108.594
108.846
109.11
109.387
109.676
109.977
110.291
110.617
110.955
111.306
111.669
112.044
112.431
112.83
113.24
113.663
114.098
114.544
115.002
115.472
115.953
116.445
116.949
117.464
117.991
118.528
119.076
119.635
120.205
120.785
121.375
121.976
122.586
123.207
123.837
124.476
125.125
125.782
126.448
127.122
127.804
128.493
129.19
129.893
130.603
131.318
132.038
132.763
133.492
134.224
134.958
135.693
136.43
137.165
137.899
138.63
139.355
140.073
140.78
141.474
142.152
142.812
143.452
144.071
144.667
145.237
145.779
146.292
146.773
147.219
147.628
147.998
148.327
148.612
148.852
149.047
149.199
149.309
149.384
149.427
149.46
105.818
105.828
105.851
105.889
105.939
106
106.075
106.161
106.26
106.371
106.495
106.631
106.779
106.94
107.113
107.298
107.496
107.706
107.928
108.163
108.409
108.668
108.94
109.223
109.518
109.826
110.145
110.477
110.821
111.176
111.543
111.923
112.314
112.716
113.13
113.556
113.993
114.442
114.902
115.373
115.856
116.349
116.854
117.369
117.895
118.432
118.979
119.537
120.105
120.683
121.271
121.869
122.476
123.093
123.719
124.353
124.997
125.648
126.308
126.975
127.65
128.332
129.02
129.714
130.413
131.118
131.826
132.539
133.254
133.972
134.691
135.41
136.128
136.845
137.558
138.266
138.966
139.656
140.332
140.992
141.634
142.256
142.857
143.434
143.987
144.513
145.01
145.475
145.907
146.303
146.662
146.982
147.261
147.497
147.69
147.842
147.953
148.031
148.075
148.109
105.42
105.43
105.453
105.489
105.538
105.599
105.672
105.756
105.853
105.962
106.084
106.217
106.362
106.52
106.689
106.871
107.064
107.27
107.488
107.717
107.959
108.213
108.478
108.756
109.045
109.346
109.659
109.984
110.32
110.668
111.027
111.399
111.781
112.175
112.581
112.997
113.425
113.864
114.314
114.775
115.247
115.73
116.223
116.727
117.242
117.766
118.302
118.847
119.402
119.967
120.542
121.126
121.72
122.322
122.934
123.554
124.182
124.819
125.463
126.115
126.773
127.438
128.11
128.787
129.47
130.157
130.848
131.543
132.24
132.939
133.639
134.34
135.039
135.737
136.43
137.119
137.799
138.469
139.125
139.765
140.387
140.988
141.569
142.127
142.66
143.167
143.645
144.093
144.508
144.89
145.236
145.545
145.815
146.045
146.235
146.386
146.497
146.576
146.622
146.657
105.01
105.02
105.042
105.078
105.126
105.185
105.256
105.339
105.434
105.541
105.66
105.79
105.932
106.087
106.252
106.43
106.62
106.821
107.034
107.259
107.495
107.743
108.003
108.274
108.557
108.852
109.158
109.475
109.804
110.144
110.496
110.859
111.233
111.618
112.014
112.421
112.839
113.268
113.708
114.158
114.619
115.091
115.573
116.065
116.567
117.08
117.602
118.135
118.676
119.228
119.789
120.359
120.938
121.525
122.122
122.726
123.339
123.959
124.587
125.222
125.863
126.511
127.165
127.824
128.488
129.156
129.828
130.504
131.181
131.86
132.54
133.22
133.898
134.574
135.246
135.913
136.571
137.219
137.853
138.47
139.069
139.647
140.205
140.74
141.251
141.736
142.194
142.622
143.019
143.383
143.713
144.008
144.267
144.489
144.673
144.821
144.931
145.011
145.057
145.094
104.588
104.598
104.62
104.655
104.701
104.76
104.829
104.91
105.003
105.108
105.224
105.351
105.49
105.641
105.803
105.977
106.162
106.359
106.567
106.787
107.018
107.26
107.514
107.779
108.056
108.344
108.642
108.953
109.274
109.606
109.949
110.304
110.669
111.045
111.431
111.829
112.237
112.655
113.084
113.524
113.973
114.433
114.903
115.383
115.873
116.373
116.882
117.4
117.928
118.466
119.012
119.567
120.13
120.702
121.283
121.871
122.466
123.07
123.68
124.297
124.92
125.549
126.184
126.824
127.468
128.116
128.767
129.422
130.078
130.735
131.392
132.049
132.704
133.357
134.005
134.648
135.282
135.905
136.513
137.105
137.678
138.231
138.763
139.273
139.758
140.219
140.652
141.057
141.432
141.776
142.088
142.366
142.611
142.821
142.997
143.139
143.246
143.324
143.37
143.407
104.155
104.164
104.185
104.22
104.265
104.322
104.39
104.469
104.56
104.662
104.776
104.9
105.036
105.183
105.342
105.511
105.692
105.884
106.088
106.302
106.528
106.764
107.012
107.271
107.541
107.821
108.113
108.416
108.729
109.053
109.388
109.733
110.089
110.456
110.833
111.22
111.618
112.026
112.444
112.872
113.31
113.757
114.215
114.682
115.159
115.645
116.14
116.645
117.158
117.68
118.211
118.751
119.298
119.854
120.417
120.988
121.566
122.151
122.743
123.341
123.944
124.554
125.168
125.787
126.41
127.036
127.665
128.297
128.929
129.563
130.196
130.828
131.458
132.084
132.706
133.322
133.929
134.525
135.106
135.669
136.214
136.737
137.24
137.72
138.177
138.61
139.016
139.394
139.743
140.063
140.352
140.61
140.837
141.032
141.196
141.328
141.43
141.504
141.548
141.585
103.71
103.719
103.74
103.773
103.818
103.873
103.94
104.017
104.106
104.205
104.316
104.437
104.57
104.714
104.868
105.034
105.21
105.397
105.596
105.805
106.025
106.256
106.497
106.749
107.012
107.286
107.57
107.865
108.17
108.486
108.812
109.148
109.495
109.852
110.219
110.596
110.983
111.38
111.786
112.202
112.628
113.064
113.508
113.962
114.425
114.898
115.379
115.868
116.367
116.873
117.388
117.911
118.442
118.98
119.526
120.078
120.638
121.204
121.776
122.354
122.937
123.525
124.118
124.714
125.314
125.917
126.522
127.129
127.737
128.344
128.951
129.556
130.158
130.756
131.35
131.936
132.514
133.079
133.629
134.161
134.673
135.164
135.633
136.081
136.505
136.905
137.278
137.626
137.945
138.236
138.498
138.731
138.935
139.111
139.258
139.378
139.47
139.538
139.578
139.614
103.254
103.263
103.283
103.316
103.359
103.413
103.478
103.553
103.64
103.737
103.845
103.963
104.092
104.232
104.383
104.544
104.716
104.899
105.092
105.295
105.51
105.734
105.969
106.215
106.471
106.737
107.014
107.301
107.598
107.905
108.222
108.549
108.886
109.233
109.59
109.956
110.332
110.718
111.112
111.517
111.93
112.352
112.784
113.224
113.673
114.131
114.597
115.071
115.554
116.045
116.543
117.049
117.562
118.082
118.609
119.143
119.683
120.228
120.78
121.336
121.898
122.463
123.033
123.606
124.182
124.76
125.339
125.919
126.5
127.08
127.658
128.233
128.805
129.373
129.935
130.489
131.034
131.565
132.081
132.578
133.054
133.508
133.94
134.35
134.736
135.099
135.436
135.746
136.03
136.287
136.516
136.719
136.895
137.046
137.171
137.273
137.351
137.41
137.444
137.478
102.787
102.796
102.816
102.847
102.89
102.942
103.005
103.079
103.163
103.257
103.362
103.478
103.603
103.74
103.886
104.043
104.21
104.388
104.576
104.774
104.982
105.201
105.43
105.668
105.917
106.176
106.445
106.724
107.012
107.31
107.618
107.936
108.263
108.6
108.946
109.302
109.666
110.04
110.423
110.814
111.215
111.624
112.042
112.468
112.903
113.346
113.796
114.255
114.721
115.195
115.676
116.164
116.659
117.16
117.668
118.181
118.701
119.225
119.755
120.289
120.828
121.37
121.915
122.463
123.013
123.564
124.116
124.668
125.22
125.769
126.317
126.861
127.4
127.934
128.462
128.981
129.489
129.984
130.462
130.92
131.355
131.768
132.158
132.525
132.868
133.187
133.481
133.749
133.991
134.207
134.397
134.562
134.704
134.823
134.92
134.999
135.058
135.102
135.127
135.157
102.31
102.318
102.337
102.368
102.41
102.461
102.522
102.593
102.675
102.767
102.869
102.981
103.104
103.236
103.378
103.531
103.693
103.866
104.049
104.241
104.443
104.656
104.878
105.11
105.351
105.602
105.863
106.134
106.414
106.703
107.002
107.31
107.627
107.953
108.288
108.632
108.985
109.347
109.718
110.097
110.484
110.879
111.283
111.695
112.115
112.542
112.977
113.419
113.868
114.325
114.788
115.257
115.733
116.215
116.702
117.195
117.693
118.196
118.702
119.213
119.727
120.244
120.764
121.285
121.808
122.331
122.854
123.376
123.896
124.414
124.928
125.438
125.942
126.44
126.93
127.411
127.879
128.333
128.769
129.184
129.575
129.942
130.284
130.602
130.896
131.165
131.409
131.627
131.819
131.986
132.129
132.248
132.347
132.426
132.488
132.536
132.569
132.595
132.607
132.632
101.822
101.83
101.849
101.879
101.919
101.969
102.028
102.098
102.177
102.266
102.365
102.474
102.593
102.722
102.86
103.008
103.166
103.333
103.51
103.697
103.893
104.099
104.314
104.539
104.773
105.017
105.27
105.531
105.803
106.083
106.372
106.67
106.977
107.292
107.617
107.949
108.291
108.64
108.998
109.364
109.737
110.119
110.508
110.905
111.309
111.721
112.139
112.564
112.996
113.435
113.879
114.329
114.785
115.247
115.713
116.185
116.66
117.14
117.623
118.109
118.598
119.089
119.581
120.074
120.568
121.061
121.553
122.043
122.531
123.014
123.493
123.966
124.433
124.891
125.34
125.779
126.205
126.614
127.004
127.371
127.712
128.027
128.316
128.578
128.815
129.027
129.212
129.372
129.505
129.614
129.699
129.763
129.808
129.838
129.854
129.862
129.862
129.863
129.857
129.874
101.325
101.332
101.351
101.38
101.419
101.467
101.525
101.592
101.669
101.755
101.852
101.957
102.072
102.197
102.331
102.474
102.627
102.789
102.961
103.142
103.332
103.531
103.74
103.957
104.184
104.42
104.664
104.917
105.18
105.45
105.73
106.018
106.314
106.619
106.932
107.253
107.582
107.919
108.263
108.616
108.976
109.343
109.717
110.099
110.487
110.882
111.284
111.692
112.106
112.525
112.951
113.381
113.817
114.257
114.702
115.151
115.603
116.059
116.517
116.977
117.44
117.903
118.367
118.831
119.294
119.756
120.215
120.672
121.124
121.571
122.012
122.446
122.872
123.288
123.693
124.086
124.465
124.825
125.165
125.479
125.765
126.022
126.25
126.45
126.623
126.768
126.886
126.976
127.04
127.079
127.095
127.091
127.07
127.037
126.996
126.953
126.91
126.876
126.848
126.855
100.818
100.825
100.843
100.871
100.909
100.955
101.011
101.076
101.151
101.235
101.328
101.43
101.541
101.662
101.792
101.931
102.079
102.236
102.402
102.576
102.76
102.953
103.154
103.365
103.584
103.811
104.047
104.292
104.545
104.806
105.076
105.353
105.639
105.933
106.234
106.543
106.86
107.184
107.515
107.854
108.2
108.552
108.911
109.277
109.649
110.028
110.412
110.802
111.197
111.598
112.004
112.414
112.828
113.247
113.669
114.095
114.523
114.953
115.386
115.82
116.254
116.689
117.123
117.557
117.988
118.416
118.841
119.262
119.677
120.085
120.486
120.878
121.26
121.631
121.989
122.333
122.66
122.968
123.252
123.508
123.733
123.926
124.087
124.216
124.315
124.384
124.423
124.433
124.414
124.37
124.302
124.215
124.112