/*--------------------------------*- C++ -*----------------------------------*\
| =========                 |                                                 |
| \\      /  F ield         | OpenFOAM: The Open Source CFD Toolbox           |
|  \\    /   O peration     | Version:  4.1                                   |
|   \\  /    A nd           | Web:      www.OpenFOAM.org                      |
|    \\/     M anipulation  |                                                 |
\*---------------------------------------------------------------------------*/
FoamFile
{
    version     2.0;
    format      ascii;
    class       surfaceScalarField;
    location    "0.19";
    object      phi;
}
// * * * * * * * * * * * * * * * * * * * * * * * * * * * * * * * * * * * * * //

dimensions      [0 3 -1 0 0 0 0];

internalField   nonuniform List<scalar> 
87025
(
0.0199663
3.36526e-05
0.0199096
5.67291e-05
0.0198414
6.82395e-05
0.0197637
7.77285e-05
0.019677
8.66246e-05
0.0195823
9.47283e-05
0.0194802
0.000102098
0.0193712
0.000109024
0.0192555
0.000115716
0.0191332
0.000122258
0.0190045
0.000128684
0.0188695
0.000135035
0.0187281
0.000141352
0.0185805
0.000147668
0.0184265
0.00015401
0.0182661
0.000160397
0.0180992
0.000166848
0.0179258
0.000173378
0.0177458
0.00018
0.0175591
0.000186726
0.0173655
0.000193566
0.017165
0.00020053
0.0169574
0.000207629
0.0167425
0.000214877
0.0165202
0.000222287
0.0162903
0.000229874
0.0160527
0.00023765
0.0158071
0.000245629
0.0155532
0.000253823
0.015291
0.000262238
0.0150201
0.000270874
0.0147404
0.000279726
0.0144516
0.00028878
0.0141536
0.000298009
0.0138462
0.000307373
0.0135294
0.000316816
0.0132032
0.00032626
0.0128675
0.000335611
0.0125228
0.00034475
0.0121693
0.000353534
0.0118075
0.000361801
0.0114381
0.000369366
0.0110621
0.000376031
0.0106805
0.00038159
0.0102946
0.000385842
0.00990604
0.0003886
0.00951632
0.000389714
0.00912724
0.000389083
0.00874057
0.000386672
0.00835803
0.000382534
0.00798121
0.00037682
0.00761143
0.000369784
0.00724964
0.000361784
0.00689637
0.000353273
0.0065516
0.000344768
0.00621479
0.000336813
0.00588488
0.000329912
0.00556044
0.000324442
0.00523988
0.000320555
0.00492178
0.000318102
0.00460515
0.000316633
0.00428963
0.000315513
0.0039755
0.000314136
0.00366335
0.000312151
0.00335378
0.000309565
0.0030471
0.000306685
0.00274316
0.000303939
0.00244147
0.000301686
0.0021414
0.000300068
0.00184248
0.000298922
0.00154473
0.00029775
0.00124894
0.000295791
0.00095668
0.000292261
0.000670044
0.000286636
0.000391219
0.000278825
0.000122126
0.000269092
-0.000135722
0.000257848
-0.000381316
0.000245594
-0.000613885
0.000232569
-0.000832922
0.000219037
-0.00103817
0.000205251
-0.00122943
0.000191261
-0.0014063
0.000176867
-0.00156798
0.000161676
-0.00171317
0.000145191
-0.00184002
0.000126853
-0.00194612
0.000106099
-0.00202919
8.30735e-05
-0.0020834
5.42049e-05
-0.00209948
1.60821e-05
-0.00207042
-2.90607e-05
-0.00199371
-7.67091e-05
-0.00187139
-0.000122324
-0.00170593
-0.000165452
-0.00150034
-0.000205591
-0.00125847
-0.000241872
-0.000985465
-0.000273007
-0.000685926
-0.00029954
-0.000355752
-0.000330174
-0.000355752
0.0200238
9.83917e-06
0.0200532
2.73919e-05
0.0200818
3.95683e-05
0.0201099
4.96612e-05
0.0201369
5.95883e-05
0.0201623
6.93692e-05
0.0201856
7.88185e-05
0.0202065
8.80496e-05
0.020225
9.72397e-05
0.0202408
0.000106477
0.0202537
0.000115791
0.0202635
0.000125209
0.0202701
0.000134762
0.0202733
0.000144482
0.0202729
0.000154395
0.0202688
0.000164525
0.0202607
0.000174896
0.0202486
0.000185532
0.0202321
0.000196457
0.0202111
0.000207697
0.0201854
0.000219276
0.0201548
0.000231215
0.0201188
0.000243541
0.0200774
0.00025628
0.0200303
0.00026946
0.019977
0.00028311
0.0199174
0.000297261
0.0198511
0.000311943
0.0197777
0.000327188
0.019697
0.000343025
0.0196083
0.000359482
0.0195115
0.000376581
0.0194059
0.00039434
0.0192912
0.000412766
0.0191667
0.000431853
0.0190319
0.000451579
0.0188863
0.000471901
0.0187292
0.000492749
0.0185599
0.000514026
0.0183778
0.000535599
0.0181823
0.000557297
0.0179728
0.000578909
0.0177486
0.00060019
0.0175093
0.000620859
0.0172546
0.000640613
0.016984
0.000659142
0.0166976
0.000676144
0.0163953
0.000691353
0.0160774
0.000704561
0.0157443
0.000715651
0.0153965
0.000724616
0.0150347
0.000731578
0.0146597
0.000736792
0.0142724
0.000740641
0.0138735
0.000743609
0.0134641
0.000746225
0.013045
0.000748996
0.0126172
0.000752313
0.0121813
0.000756372
0.0117383
0.000761111
0.0112888
0.000766206
0.0108331
0.000771149
0.0103719
0.000775385
0.00990554
0.000778473
0.00943491
0.000780196
0.008961
0.000780594
0.00848504
0.0007799
0.00800831
0.000778414
0.00753205
0.000776328
0.00705746
0.000773513
0.00658584
0.000769376
0.00611874
0.000762892
0.00565809
0.00075291
0.00520609
0.000738634
0.00476493
0.000719989
0.00433637
0.00069765
0.00392149
0.000672729
0.00352071
0.000646371
0.00313389
0.000619389
0.00276077
0.000592158
0.00240143
0.00056459
0.00205652
0.000536169
0.00172728
0.000506106
0.00141542
0.000473538
0.00112298
0.000437636
0.000852244
0.000397586
0.000605708
0.000352635
0.000386815
0.000301966
0.000196678
0.000244342
3.27276e-05
0.000180032
-0.000106412
0.000110079
-0.000219907
3.67856e-05
-0.000303411
-3.88191e-05
-0.000353249
-0.000115614
-0.000368428
-0.000190412
-0.00034944
-0.00026086
-0.00029771
-0.000324736
-0.000222308
-0.000374942
-0.000129213
-0.00042327
-0.000484964
0.0200004
9.4739e-06
0.0200001
2.76085e-05
0.0199966
4.31368e-05
0.0199895
5.67649e-05
0.0199793
6.97368e-05
0.0199663
8.24248e-05
0.0199503
9.47661e-05
0.0199316
0.000106798
0.0199102
0.000118658
0.0198862
0.000130447
0.0198598
0.000142213
0.019831
0.000153984
0.0198
0.000165795
0.0197668
0.000177679
0.0197315
0.000189667
0.0196942
0.000201786
0.0196551
0.000214064
0.0196141
0.000226528
0.0195713
0.000239206
0.0195269
0.000252127
0.0194808
0.000265319
0.0194332
0.000278814
0.0193841
0.000292642
0.0193336
0.000306837
0.0192816
0.000321431
0.0192283
0.000336461
0.0191736
0.000351963
0.0191175
0.000367974
0.0190602
0.000384534
0.0190015
0.000401681
0.0189416
0.000419455
0.0188802
0.000437893
0.0188176
0.00045703
0.0187534
0.000476897
0.0186878
0.00049752
0.0186204
0.000518915
0.0185512
0.000541089
0.0184799
0.000564035
0.0184062
0.000587727
0.0183297
0.000612119
0.0182499
0.000637138
0.0181661
0.000662684
0.0180777
0.00068863
0.0179837
0.000714816
0.0178833
0.000741058
0.0177753
0.000767155
0.0176585
0.000792895
0.0175318
0.000818075
0.0173938
0.000842514
0.0172434
0.00086608
0.0170793
0.000888707
0.0169005
0.000910414
0.016706
0.000931304
0.016495
0.000951577
0.0162671
0.000971515
0.0160219
0.000991437
0.0157592
0.00101165
0.0154792
0.00103239
0.0151818
0.00105374
0.0148673
0.0010756
0.0145358
0.00109769
0.0141875
0.00111952
0.0138223
0.00114059
0.0134403
0.00116038
0.013042
0.0011785
0.0126279
0.00119471
0.012199
0.00120886
0.0117565
0.00122086
0.0113023
0.00123056
0.0108382
0.00123759
0.0103662
0.00124135
0.00988821
0.00124092
0.00940586
0.00123527
0.00892106
0.00122344
0.00843616
0.00120488
0.00795411
0.0011797
0.00747809
0.00114875
0.00701084
0.00111361
0.00655398
0.00107625
0.0061077
0.00103843
0.00567121
0.00100108
0.00524351
0.000963869
0.00482421
0.000925413
0.00441386
0.000883888
0.00401381
0.000837678
0.00362574
0.000785663
0.00325122
0.000727156
0.0028915
0.000661685
0.002547
0.00058884
0.00221837
0.000508666
0.00190644
0.00042201
0.00161274
0.000330481
0.00133886
0.000235064
0.00108552
0.000137722
0.00085335
4.1758e-05
0.000643651
-5.11608e-05
0.000457663
-0.000138748
0.000293148
-0.000210427
0.000141138
-0.00027126
-0.000343826
0.0199995
9.93172e-06
0.0199976
2.95704e-05
0.0199927
4.79973e-05
0.0199843
6.51557e-05
0.0199725
8.15971e-05
0.0199572
9.76835e-05
0.0199385
0.000113468
0.0199163
0.000128967
0.0198907
0.000144264
0.0198617
0.000159449
0.0198294
0.000174577
0.0197937
0.000189686
0.0197547
0.000204807
0.0197124
0.000219975
0.0196668
0.00023522
0.019618
0.000250572
0.019566
0.000266056
0.0195109
0.000281698
0.0194525
0.000297524
0.0193911
0.000313559
0.0193266
0.00032983
0.019259
0.00034636
0.0191885
0.000363174
0.0191151
0.000380297
0.0190387
0.000397755
0.0189596
0.000415571
0.0188778
0.000433769
0.0187934
0.000452375
0.0187065
0.000471411
0.0186173
0.000490902
0.0185259
0.000510867
0.0184325
0.000531328
0.0183372
0.0005523
0.0182403
0.000573797
0.018142
0.000595827
0.0180425
0.000618394
0.0179421
0.000641495
0.017841
0.00066512
0.0177395
0.000689248
0.0176378
0.000713848
0.017536
0.000738878
0.0174344
0.000764283
0.0173331
0.000789998
0.0172319
0.000815946
0.017131
0.000842046
0.0170299
0.000868212
0.0169284
0.000894365
0.0168261
0.000920438
0.0167222
0.000946383
0.0166161
0.00097219
0.0165069
0.000997887
0.0163938
0.00102356
0.0162757
0.00104933
0.0161519
0.00107539
0.0160215
0.00110197
0.0158836
0.00112932
0.0157376
0.00115767
0.0155828
0.00118718
0.0154186
0.00121795
0.0152443
0.0012499
0.0150591
0.00128284
0.0148622
0.00131645
0.0146525
0.00135031
0.0144289
0.00138398
0.0141903
0.00141704
0.0139359
0.00144912
0.0136649
0.00147985
0.013377
0.00150881
0.013072
0.00153552
0.0127503
0.0015593
0.0124123
0.00157934
0.0120585
0.00159471
0.0116893
0.0016045
0.0113048
0.00160792
0.0109053
0.00160441
0.0104914
0.00159359
0.0100648
0.00157536
0.00962829
0.00155009
0.00918562
0.00151892
0.00874029
0.00148376
0.00829465
0.00144672
0.0078493
0.00140922
0.00740349
0.00137122
0.00695612
0.00133126
0.00650662
0.00128718
0.00605521
0.00123708
0.00560254
0.00117982
0.00514927
0.00111495
0.0046957
0.00104241
0.00424198
0.000962387
0.00378859
0.0008754
0.00333681
0.000782261
0.00288808
0.000683793
0.00244454
0.000581259
0.0020097
0.000476603
0.00158622
0.000372315
0.00117395
0.000273526
0.000776047
0.000187476
0.000386863
0.000117923
4.30373e-05
0.019999
1.0914e-05
0.0199959
3.27054e-05
0.01999
5.38649e-05
0.019981
7.4205e-05
0.0199686
9.39166e-05
0.0199531
0.000113244
0.0199343
0.000132287
0.0199122
0.000151076
0.0198868
0.000169666
0.0198581
0.000188133
0.0198261
0.000206534
0.0197909
0.000224912
0.0197524
0.000243303
0.0197106
0.000261743
0.0196656
0.000280266
0.0196172
0.000298902
0.0195656
0.000317683
0.0195107
0.000336638
0.0194524
0.000355795
0.0193908
0.000375182
0.0193258
0.000394826
0.0192574
0.000414755
0.0191856
0.000434993
0.0191103
0.000455564
0.0190316
0.000476492
0.0189493
0.000497797
0.0188636
0.0005195
0.0187744
0.000541618
0.0186816
0.000564166
0.0185854
0.000587157
0.0184856
0.000610601
0.0183825
0.000634502
0.0182759
0.000658862
0.018166
0.000683677
0.0180529
0.000708935
0.0179367
0.000734623
0.0178175
0.000760716
0.0176954
0.000787184
0.0175706
0.000813987
0.0174434
0.000841078
0.0173139
0.000868398
0.0171823
0.000895882
0.0170488
0.000923457
0.0169137
0.000951049
0.0167772
0.000978581
0.0166394
0.00100598
0.0165006
0.0010332
0.0163608
0.0010602
0.0162202
0.00108697
0.0160789
0.00111353
0.0159368
0.00113995
0.0157941
0.00116633
0.0156506
0.00119283
0.0155063
0.00121963
0.0153613
0.00124696
0.0152156
0.00127504
0.0150692
0.00130409
0.0149221
0.00133429
0.0147743
0.00136575
0.0146257
0.00139851
0.014476
0.00143251
0.0143249
0.00146761
0.0141715
0.00150362
0.0140152
0.00154029
0.0138549
0.00157736
0.0136895
0.00161453
0.0135179
0.0016515
0.0133388
0.00168786
0.0131513
0.00172306
0.0129542
0.00175638
0.0127466
0.00178692
0.0125276
0.00181377
0.0122959
0.00183619
0.0120499
0.00185387
0.0117875
0.00186687
0.0115057
0.00187534
0.0112021
0.00187902
0.010875
0.0018771
0.0105253
0.00186862
0.0101558
0.00185331
0.00977038
0.00183213
0.00937262
0.00180698
0.00896426
0.00177959
0.00854505
0.00175046
0.00811353
0.00171869
0.00766803
0.00168259
0.0072072
0.00164064
0.00673012
0.00159204
0.00623598
0.00153655
0.00572413
0.00147425
0.00519431
0.00140521
0.00464713
0.00132945
0.00408404
0.00124688
0.0035077
0.0011576
0.00292201
0.0010623
0.00233137
0.000962952
0.0017411
0.000863797
0.00115644
0.000772137
0.000577035
0.00069733
0.000620072
0.0199988
1.21468e-05
0.0199951
3.64029e-05
0.0199887
6.028e-05
0.0199792
8.36205e-05
0.0199667
0.000106469
0.019951
0.000128962
0.0199321
0.000151189
0.0199099
0.000173193
0.0198846
0.000195015
0.019856
0.000216711
0.0198242
0.000238336
0.0197892
0.000259934
0.019751
0.000281542
0.0197095
0.000303196
0.0196648
0.000324933
0.019617
0.000346787
0.0195658
0.000368791
0.0195115
0.000390977
0.0194539
0.000413379
0.0193931
0.000436027
0.019329
0.000458951
0.0192615
0.000482182
0.0191908
0.000505748
0.0191167
0.000529674
0.0190392
0.000553986
0.0189583
0.000578706
0.0188739
0.000603854
0.0187861
0.000629448
0.0186947
0.000655502
0.0185999
0.000682026
0.0185014
0.000709029
0.0183994
0.000736513
0.0182938
0.000764474
0.0181846
0.000792906
0.0180717
0.000821794
0.0179552
0.000851119
0.0178351
0.000880854
0.0177113
0.000910966
0.0175839
0.000941413
0.0174528
0.000972143
0.0173181
0.0010031
0.0171798
0.00103421
0.0170379
0.0010654
0.0168923
0.0010966
0.0167432
0.00112771
0.0165905
0.00115868
0.0164343
0.00118943
0.0162746
0.0012199
0.0161114
0.00125008
0.015945
0.00127995
0.0157754
0.00130955
0.0156028
0.00133893
0.0154275
0.0013682
0.0152496
0.00139748
0.0150697
0.00142691
0.0148881
0.00145665
0.0147053
0.00148686
0.0145219
0.00151765
0.0143386
0.00154911
0.0141558
0.0015813
0.0139741
0.00161418
0.013794
0.00164772
0.0136158
0.00168182
0.0134397
0.00171637
0.0132658
0.00175124
0.0130941
0.00178629
0.0129242
0.00182133
0.012756
0.00185611
0.0125888
0.00189023
0.0124221
0.00192309
0.0122551
0.00195388
0.0120872
0.00198174
0.0119172
0.00200618
0.0117436
0.00202746
0.0115637
0.00204679
0.0113732
0.00206581
0.0111668
0.00208548
0.0109388
0.00210508
0.0106854
0.00212204
0.0104055
0.00213316
0.0101013
0.00213638
0.00977629
0.00213194
0.00943392
0.00212195
0.00907554
0.00210885
0.00870028
0.00209395
0.00830576
0.00207711
0.007889
0.00205739
0.00744713
0.00203391
0.00697747
0.00200621
0.00647765
0.00197406
0.00594577
0.00193709
0.00538069
0.00189453
0.00478243
0.00184514
0.00415262
0.00178741
0.0034948
0.00172012
0.0028145
0.00164325
0.00211896
0.00155934
0.00141596
0.00147513
0.000709646
0.00140365
0.00132972
0.0199987
1.34858e-05
0.0199947
4.04008e-05
0.0199879
6.70602e-05
0.0199782
9.33531e-05
0.0199653
0.000119271
0.0199494
0.000144878
0.0199304
0.000170241
0.0199082
0.000195401
0.0198828
0.000220395
0.0198542
0.000245269
0.0198225
0.000270071
0.0197876
0.000294843
0.0197495
0.000319624
0.0197083
0.000344453
0.0196638
0.000369365
0.0196162
0.000394397
0.0195654
0.000419586
0.0195114
0.000444966
0.0194542
0.000470572
0.0193938
0.000496437
0.0193302
0.000522595
0.0192633
0.000549077
0.0191931
0.000575913
0.0191197
0.000603131
0.0190429
0.000630756
0.0189628
0.000658812
0.0188793
0.000687319
0.0187925
0.000716293
0.0187022
0.000745748
0.0186086
0.000775695
0.0185115
0.000806139
0.0184109
0.000837082
0.0183068
0.000868521
0.0181993
0.000900448
0.0180882
0.000932849
0.0179736
0.000965708
0.0178555
0.000999002
0.0177338
0.0010327
0.0176084
0.00106677
0.0174794
0.00110117
0.0173466
0.00113585
0.0172101
0.00117076
0.0170696
0.00120584
0.0169252
0.00124102
0.0167767
0.00127623
0.016624
0.00131141
0.0164669
0.00134651
0.0163053
0.00138146
0.0161392
0.00141624
0.0159683
0.00145082
0.0157926
0.0014852
0.0156122
0.0015194
0.0154269
0.00155346
0.0152369
0.00158744
0.0150424
0.00162141
0.0148437
0.00165543
0.014641
0.00168956
0.0144348
0.00172384
0.0142256
0.00175827
0.0140141
0.00179284
0.0138008
0.00182747
0.0135864
0.00186208
0.0133717
0.00189655
0.0131573
0.00193077
0.012944
0.00196459
0.0127324
0.00199789
0.0125232
0.00203051
0.012317
0.00206227
0.0121144
0.00209284
0.0119158
0.00212171
0.0117215
0.00214814
0.0115319
0.00217136
0.011347
0.00219105
0.0111665
0.00220802
0.0109887
0.00222455
0.0108106
0.00224396
0.010627
0.00226902
0.010432
0.00230011
0.0102198
0.00233424
0.00998683
0.00236611
0.0097325
0.00239071
0.00945858
0.00240586
0.00916766
0.00241287
0.00886141
0.0024151
0.00853954
0.00241582
0.00819991
0.00241674
0.00783912
0.00241819
0.00745319
0.00241984
0.00703794
0.00242145
0.00658919
0.00242281
0.00610289
0.00242339
0.00557548
0.00242194
0.00500437
0.00241625
0.00438857
0.0024032
0.0037294
0.0023793
0.00303098
0.00234167
0.00230032
0.00229
0.00154665
0.00222879
0.000778021
0.00217228
0.00210774
0.0199986
1.48817e-05
0.0199944
4.45758e-05
0.0199874
7.40753e-05
0.0199775
0.000103304
0.0199645
0.000132239
0.0199485
0.000160909
0.0199293
0.000189357
0.0199071
0.000217622
0.0198818
0.000245738
0.0198533
0.000273743
0.0198217
0.00030168
0.019787
0.000329589
0.0197491
0.000357511
0.019708
0.000385482
0.0196639
0.000413541
0.0196165
0.000441726
0.019566
0.000470074
0.0195124
0.000498622
0.0194556
0.000527408
0.0193955
0.000556467
0.0193323
0.000585835
0.0192658
0.000615544
0.0191961
0.000645626
0.0191231
0.00067611
0.0190469
0.000707023
0.0189673
0.000738387
0.0188844
0.000770222
0.0187981
0.000802545
0.0187085
0.000835367
0.0186155
0.000868699
0.0185191
0.000902543
0.0184193
0.000936901
0.018316
0.000971767
0.0182094
0.00100713
0.0180992
0.00104298
0.0179856
0.00107931
0.0178685
0.00111608
0.017748
0.00115328
0.0176239
0.00119088
0.0174962
0.00122884
0.0173649
0.00126714
0.0172299
0.00130572
0.0170912
0.00134455
0.0169487
0.00138358
0.0168021
0.00142275
0.0166515
0.00146203
0.0164967
0.00150136
0.0163374
0.00154072
0.0161736
0.00158008
0.016005
0.00161941
0.0158315
0.00165871
0.0156529
0.001698
0.015469
0.00173728
0.0152799
0.00177658
0.0150854
0.00181593
0.0148855
0.00185533
0.0146802
0.00189479
0.0144698
0.0019343
0.0142543
0.00197378
0.014034
0.00201316
0.0138091
0.00205231
0.0135801
0.00209108
0.0133474
0.00212927
0.0131115
0.0021667
0.0128729
0.00220314
0.0126324
0.00223837
0.0123908
0.00227217
0.0121488
0.00230425
0.0119074
0.00233425
0.0116675
0.00236161
0.01143
0.00238561
0.0111958
0.00240553
0.0109657
0.00242125
0.0107398
0.00243391
0.0105179
0.00244643
0.0102988
0.00246307
0.01008
0.00248781
0.00985806
0.00252204
0.00962917
0.00256313
0.00939016
0.00260513
0.00913932
0.00264156
0.00887653
0.00266866
0.00860256
0.00268683
0.0083181
0.00269956
0.00802285
0.00271107
0.00771516
0.00272443
0.00739216
0.00274118
0.00704999
0.00276201
0.00668406
0.00278739
0.00628922
0.00281766
0.0058599
0.00285271
0.00539045
0.00289139
0.00487557
0.00293114
0.00431105
0.00296772
0.0036948
0.00299555
0.00302786
0.00300861
0.00231512
0.00300273
0.00156554
0.00297837
0.000789802
0.00294802
0.00289754
0.0199986
1.63109e-05
0.0199943
4.88521e-05
0.0199871
8.12288e-05
0.0199771
0.000113389
0.019964
0.000145311
0.0199479
0.000177005
0.0199287
0.000208501
0.0199065
0.000239831
0.0198812
0.000271027
0.0198529
0.000302122
0.0198214
0.000333155
0.0197868
0.000364165
0.0197491
0.000395191
0.0197083
0.00042627
0.0196644
0.000457443
0.0196174
0.000488748
0.0195673
0.000520224
0.019514
0.000551912
0.0194575
0.000583848
0.0193979
0.000616073
0.0193352
0.000648622
0.0192692
0.000681532
0.0192
0.000714835
0.0191275
0.000748561
0.0190518
0.000782738
0.0189728
0.000817389
0.0188905
0.000852533
0.0188048
0.000888186
0.0187158
0.000924361
0.0186235
0.000961065
0.0185277
0.0009983
0.0184286
0.00103606
0.018326
0.00107435
0.0182199
0.00111316
0.0181105
0.00115246
0.0179975
0.00119225
0.0178811
0.00123251
0.0177611
0.00127322
0.0176377
0.00131435
0.0175107
0.00135587
0.01738
0.00139777
0.0172457
0.00144001
0.0171077
0.00148255
0.016966
0.00152536
0.0168203
0.00156841
0.0166707
0.00161166
0.0165169
0.00165509
0.016359
0.00169866
0.0161967
0.00174237
0.0160299
0.00178621
0.0158584
0.00183017
0.0156822
0.00187425
0.015501
0.00191848
0.0153147
0.00196286
0.0151232
0.00200741
0.0149264
0.00205212
0.0147242
0.00209698
0.0145166
0.00214195
0.0143034
0.00218696
0.0140847
0.00223189
0.0138604
0.0022766
0.0136306
0.0023209
0.0133953
0.00236458
0.0131546
0.00240737
0.0129087
0.002449
0.0126579
0.00248917
0.0124026
0.00252752
0.0121431
0.00256369
0.0118802
0.00259718
0.0116145
0.00262735
0.0113466
0.00265346
0.0110772
0.00267494
0.0108066
0.00269185
0.010535
0.00270555
0.0102623
0.00271905
0.00998886
0.00273654
0.00971479
0.00276188
0.00944024
0.00279658
0.00916495
0.00283842
0.00888815
0.00288193
0.00860873
0.00292097
0.00832564
0.00295175
0.00803812
0.00297435
0.00774569
0.00299199
0.00744781
0.00300895
0.00714344
0.0030288
0.00683067
0.00305395
0.00650659
0.00308609
0.00616728
0.0031267
0.00580783
0.00317712
0.00542237
0.00323816
0.00500429
0.00330947
0.00454651
0.00338891
0.00404225
0.00347199
0.0034861
0.00355169
0.00287552
0.00361919
0.0022122
0.00366605
0.00150322
0.00368735
0.000760108
0.00369114
0.00365765
0.0199986
1.77581e-05
0.0199942
5.31833e-05
0.019987
8.8459e-05
0.0199768
0.000123549
0.0199637
0.000158436
0.0199476
0.000193125
0.0199285
0.000227635
0.0199063
0.000261994
0.0198811
0.00029623
0.0198528
0.000330376
0.0198215
0.000364467
0.0197871
0.00039854
0.0197497
0.000432633
0.0197092
0.000466787
0.0196656
0.00050104
0.0196189
0.000535432
0.0195691
0.000570006
0.0195162
0.000604801
0.0194602
0.000639859
0.0194011
0.000675221
0.0193388
0.000710924
0.0192733
0.000747007
0.0192046
0.000783504
0.0191327
0.000820447
0.0190576
0.000857863
0.0189792
0.000895776
0.0188976
0.000934208
0.0188126
0.000973172
0.0187243
0.00101268
0.0186326
0.00105274
0.0185375
0.00109335
0.0184391
0.00113452
0.0183372
0.00117623
0.0182319
0.00121847
0.0181231
0.00126124
0.0180109
0.00130451
0.0178951
0.00134827
0.0177758
0.00139251
0.017653
0.0014372
0.0175265
0.00148232
0.0173964
0.00152786
0.0172626
0.00157379
0.0171251
0.00162007
0.0169838
0.0016667
0.0168385
0.00171364
0.0166893
0.00176087
0.0165361
0.00180837
0.0163786
0.00185612
0.0162169
0.00190411
0.0160507
0.00195233
0.0158801
0.00200079
0.0157049
0.00204948
0.0155249
0.00209843
0.0153402
0.00214763
0.0151505
0.0021971
0.0149558
0.00224682
0.014756
0.00229679
0.014551
0.00234695
0.0143407
0.00239725
0.014125
0.00244759
0.0139038
0.00249783
0.0136769
0.00254779
0.0134442
0.00259726
0.0132056
0.00264598
0.0129609
0.00269368
0.0127101
0.00274001
0.012453
0.0027846
0.0121897
0.002827
0.0119202
0.00286667
0.0116446
0.00290293
0.011363
0.00293508
0.0110752
0.00296272
0.0107809
0.00298622
0.0104793
0.00300713
0.0101701
0.00302821
0.00985388
0.00305278
0.00953231
0.00308345
0.00920819
0.0031207
0.00888441
0.0031622
0.00856284
0.0032035
0.00824377
0.00324004
0.00792619
0.00326933
0.00760865
0.00329189
0.00729002
0.00331062
0.00696971
0.00332926
0.00664729
0.00335122
0.00632196
0.00337928
0.00599212
0.00341593
0.00565517
0.00346365
0.00530737
0.00352492
0.00494373
0.00360179
0.004558
0.00369521
0.00414273
0.00380419
0.00368986
0.00392485
0.00319177
0.00404979
0.00264284
0.00416811
0.00204147
0.00426743
0.00139188
0.00433693
0.000704712
0.00437831
0.00436236
0.0199985
1.92138e-05
0.0199942
5.75405e-05
0.0199869
9.57241e-05
0.0199767
0.000133739
0.0199636
0.000171574
0.0199475
0.00020923
0.0199284
0.000246722
0.0199063
0.000284076
0.0198812
0.000321317
0.0198531
0.000358477
0.019822
0.000395589
0.0197879
0.000432688
0.0197507
0.000469815
0.0197105
0.000507007
0.0196672
0.000544306
0.0196209
0.000581753
0.0195715
0.000619392
0.019519
0.000657264
0.0194635
0.000695412
0.0194048
0.00073388
0.019343
0.000772708
0.0192781
0.000811935
0.01921
0.000851598
0.0191387
0.00089173
0.0190642
0.000932359
0.0189865
0.00097351
0.0189055
0.0010152
0.0188212
0.00105746
0.0187336
0.00110028
0.0186427
0.00114368
0.0185484
0.00118766
0.0184507
0.00123221
0.0183496
0.00127733
0.018245
0.00132301
0.018137
0.00136924
0.0180256
0.00141599
0.0179106
0.00146327
0.017792
0.00151106
0.0176699
0.00155933
0.0175441
0.00160808
0.0174147
0.00165729
0.0172815
0.00170694
0.0171446
0.00175701
0.0170038
0.00180749
0.0168591
0.00185837
0.0167103
0.00190961
0.0165575
0.00196121
0.0164005
0.00201315
0.0162391
0.00206544
0.0160734
0.00211805
0.0159032
0.00217099
0.0157284
0.00222426
0.015549
0.00227787
0.0153648
0.00233181
0.0151758
0.00238609
0.0149819
0.0024407
0.0147831
0.00249562
0.0145793
0.00255081
0.0143703
0.00260621
0.0141562
0.00266174
0.0139367
0.00271728
0.0137118
0.00277268
0.0134813
0.00282775
0.013245
0.00288228
0.0130027
0.00293601
0.0127541
0.00298864
0.0124988
0.00303982
0.0122367
0.00308912
0.0119674
0.00313603
0.0116904
0.00317991
0.0114053
0.00322017
0.0111113
0.00325669
0.0108074
0.00329016
0.0104921
0.0033224
0.0101644
0.00335592
0.00982423
0.00339294
0.0094735
0.00343418
0.00911595
0.00347825
0.00875614
0.003522
0.0083978
0.00356184
0.0080426
0.00359524
0.00769018
0.00362175
0.00733917
0.0036429
0.00698838
0.00366141
0.00663737
0.00368027
0.0062863
0.00370229
0.00593537
0.00373022
0.00558429
0.00376701
0.005232
0.00381593
0.00487642
0.0038805
0.00451419
0.00396402
0.00414042
0.00406898
0.00374861
0.004196
0.00333086
0.00434261
0.00287869
0.00450195
0.00238465
0.00466216
0.00184437
0.00480771
0.00125909
0.00492222
0.000637329
0.00500007
0.00499969
0.0199985
2.06713e-05
0.0199942
6.19038e-05
0.0199869
0.000102994
0.0199767
0.000143925
0.0199636
0.000184688
0.0199476
0.000225286
0.0199285
0.000265732
0.0199066
0.000306048
0.0198816
0.00034626
0.0198537
0.000386398
0.0198228
0.000426495
0.0197889
0.000466586
0.019752
0.000506709
0.0197121
0.000546905
0.0196692
0.000587216
0.0196233
0.000627684
0.0195743
0.000668353
0.0195223
0.000709269
0.0194672
0.000750476
0.0194091
0.000792019
0.0193479
0.000833941
0.0192835
0.000876282
0.019216
0.000919082
0.0191454
0.000962374
0.0190716
0.00100619
0.0189945
0.00105055
0.0189142
0.00109548
0.0188307
0.001141
0.0187439
0.00118712
0.0186537
0.00123384
0.0185602
0.00128116
0.0184633
0.00132909
0.018363
0.00137761
0.0182593
0.00142672
0.0181522
0.0014764
0.0180415
0.00152665
0.0179273
0.00157745
0.0178096
0.00162879
0.0176883
0.00168066
0.0175633
0.00173304
0.0174347
0.00178594
0.0173023
0.00183934
0.017166
0.00189323
0.0170259
0.00194759
0.0168819
0.00200242
0.0167338
0.0020577
0.0165816
0.00211343
0.0164251
0.0021696
0.0162644
0.0022262
0.0160992
0.00228322
0.0159295
0.00234067
0.0157552
0.00239854
0.0155763
0.00245683
0.0153925
0.00251553
0.015204
0.00257465
0.0150105
0.00263416
0.0148121
0.00269404
0.0146086
0.00275426
0.0144001
0.00281476
0.0141864
0.00287546
0.0139674
0.00293625
0.0137431
0.00299701
0.0135132
0.00305759
0.0132777
0.00311778
0.0130363
0.00317739
0.0127888
0.00323616
0.0125348
0.00329381
0.012274
0.00335
0.0120057
0.00340426
0.0117296
0.00345608
0.0114447
0.00350504
0.0111501
0.00355125
0.0108445
0.00359582
0.010526
0.00364091
0.0101929
0.00368897
0.00984453
0.00374133
0.00948182
0.00379689
0.00910805
0.00385203
0.00872788
0.00390217
0.00834575
0.00394397
0.00796433
0.00397666
0.0075841
0.00400198
0.00720421
0.0040228
0.00682374
0.00404189
0.00644252
0.00406149
0.00606115
0.00408366
0.00568058
0.00411079
0.00530163
0.00414596
0.00492467
0.0041929
0.00454933
0.00425584
0.00417417
0.00433919
0.00379627
0.00444688
0.00341089
0.00458137
0.00301147
0.00474203
0.00259004
0.00492339
0.00213851
0.00511368
0.00165083
0.00529539
0.00112557
0.00544748
0.000568578
0.00555705
0.00556827
0.0199985
2.21261e-05
0.0199942
6.62588e-05
0.0199869
0.000110248
0.0199768
0.00015408
0.0199637
0.000197752
0.0199477
0.000241267
0.0199288
0.000284637
0.019907
0.000327884
0.0198822
0.000371033
0.0198545
0.000414114
0.0198238
0.00045716
0.0197902
0.000500206
0.0197536
0.00054329
0.0197141
0.000586455
0.0196716
0.000629741
0.0196261
0.000673195
0.0195775
0.000716862
0.019526
0.000760788
0.0194715
0.000805021
0.0194139
0.000849606
0.0193532
0.00089459
0.0192895
0.000940014
0.0192227
0.00098592
0.0191527
0.00103234
0.0190796
0.00107932
0.0190033
0.00112686
0.0189237
0.00117501
0.018841
0.00122377
0.0187549
0.00127315
0.0186656
0.00132317
0.0185729
0.00137382
0.0184769
0.00142511
0.0183775
0.00147702
0.0182747
0.00152955
0.0181684
0.00158268
0.0180586
0.00163641
0.0179454
0.00169073
0.0178285
0.00174563
0.0177081
0.0018011
0.017584
0.00185714
0.0174562
0.00191374
0.0173246
0.0019709
0.0171893
0.00202861
0.01705
0.00208687
0.0169067
0.00214567
0.0167594
0.00220501
0.016608
0.00226489
0.0164523
0.00232529
0.0162923
0.00238622
0.0161278
0.00244767
0.0159588
0.00250964
0.0157853
0.00257213
0.015607
0.00263513
0.0154239
0.00269863
0.0152359
0.00276263
0.0150429
0.00282711
0.0148449
0.00289203
0.0146418
0.00295737
0.0144335
0.00302306
0.01422
0.00308902
0.0140011
0.00315518
0.0137767
0.0032214
0.0135467
0.00328755
0.013311
0.00335347
0.0130694
0.00341897
0.0128217
0.00348386
0.0125676
0.00354792
0.0123068
0.00361087
0.0120387
0.00367237
0.0117627
0.00373199
0.0114783
0.00378947
0.0111844
0.00384516
0.0108797
0.0039005
0.0105626
0.00395807
0.010231
0.00402053
0.00988358
0.00408876
0.00952019
0.00416027
0.0091428
0.00422942
0.00875508
0.00428989
0.00836121
0.00433784
0.00796426
0.00437361
0.00756545
0.00440079
0.00716457
0.00442367
0.00676111
0.00444535
0.0063551
0.0044675
0.00594738
0.00449138
0.00553934
0.00451883
0.00513257
0.00455272
0.00472858
0.00459689
0.00432848
0.00465593
0.00393268
0.00473499
0.00354036
0.0048392
0.00314902
0.00497271
0.00275412
0.00513693
0.00234916
0.00532835
0.00192661
0.00553623
0.00147972
0.00574229
0.00100506
0.00592213
0.000505733
0.00605638
0.006074
0.0199986
2.35744e-05
0.0199942
7.05947e-05
0.019987
0.000117467
0.0199769
0.000164184
0.0199639
0.000210742
0.019948
0.000257146
0.0199292
0.000303411
0.0199076
0.000349557
0.019883
0.00039561
0.0198555
0.0004416
0.0198251
0.000487559
0.0197918
0.000533524
0.0197556
0.000579533
0.0197164
0.00062563
0.0196743
0.000671857
0.0196292
0.000718261
0.0195812
0.00076489
0.0195302
0.000811791
0.0194762
0.000859015
0.0194192
0.000906609
0.0193591
0.000954622
0.0192961
0.0010031
0.0192299
0.00105208
0.0191606
0.0011016
0.0190883
0.0011517
0.0190127
0.0012024
0.018934
0.00125373
0.018852
0.00130571
0.0187669
0.00135834
0.0186784
0.00141163
0.0185866
0.0014656
0.0184915
0.00152022
0.018393
0.00157551
0.0182911
0.00163144
0.0181858
0.00168801
0.018077
0.00174522
0.0179647
0.00180306
0.0178488
0.00186151
0.0177293
0.00192058
0.0176062
0.00198028
0.0174793
0.00204058
0.0173487
0.00210151
0.0172142
0.00216306
0.0170759
0.00222522
0.0169336
0.00228801
0.0167871
0.00235141
0.0166366
0.00241544
0.0164818
0.00248009
0.0163227
0.00254536
0.0161591
0.00261125
0.015991
0.00267775
0.0158182
0.00274487
0.0156408
0.0028126
0.0154585
0.00288093
0.0152712
0.00294985
0.015079
0.00301934
0.0148816
0.00308938