/*--------------------------------*- C++ -*----------------------------------*\
| =========                 |                                                 |
| \\      /  F ield         | OpenFOAM: The Open Source CFD Toolbox           |
|  \\    /   O peration     | Version:  4.1                                   |
|   \\  /    A nd           | Web:      www.OpenFOAM.org                      |
|    \\/     M anipulation  |                                                 |
\*---------------------------------------------------------------------------*/
FoamFile
{
    version     2.0;
    format      ascii;
    class       volVectorField;
    location    "0.19";
    object      U;
}
// * * * * * * * * * * * * * * * * * * * * * * * * * * * * * * * * * * * * * //

dimensions      [0 1 -1 0 0 0 0];

internalField   nonuniform List<vector> 
43750
(
(9.99001 0.0214995 0)
(9.96869 0.0360255 0)
(9.93999 0.0422153 0)
(9.90333 0.0463936 0)
(9.86131 0.0501958 0)
(9.81559 0.0537322 0)
(9.76644 0.0569465 0)
(9.71373 0.0598931 0)
(9.65753 0.0626488 0)
(9.59798 0.0652565 0)
(9.53522 0.0677362 0)
(9.46929 0.0701048 0)
(9.4002 0.0723798 0)
(9.32794 0.0745771 0)
(9.25253 0.0767094 0)
(9.17393 0.0787863 0)
(9.09213 0.0808158 0)
(9.00708 0.0828041 0)
(8.91875 0.0847558 0)
(8.82708 0.0866747 0)
(8.73202 0.0885638 0)
(8.63352 0.090425 0)
(8.53149 0.0922607 0)
(8.42589 0.0940736 0)
(8.31662 0.0958673 0)
(8.2036 0.0976463 0)
(8.08674 0.0994157 0)
(7.96595 0.10118 0)
(7.84112 0.102945 0)
(7.71213 0.104713 0)
(7.57888 0.106483 0)
(7.44126 0.108254 0)
(7.29916 0.110015 0)
(7.15249 0.111752 0)
(7.00116 0.113443 0)
(6.84512 0.115059 0)
(6.68434 0.11656 0)
(6.51886 0.117901 0)
(6.34873 0.119024 0)
(6.17411 0.119863 0)
(5.9952 0.120344 0)
(5.8123 0.120386 0)
(5.62582 0.119906 0)
(5.43626 0.118827 0)
(5.24421 0.117076 0)
(5.05039 0.114601 0)
(4.85559 0.111372 0)
(4.66066 0.107394 0)
(4.46649 0.10271 0)
(4.27398 0.0974133 0)
(4.08396 0.0916456 0)
(3.89718 0.0855986 0)
(3.71423 0.0795091 0)
(3.53547 0.0736482 0)
(3.36105 0.0683036 0)
(3.19081 0.0637526 0)
(3.02432 0.0602213 0)
(2.86095 0.0578328 0)
(2.69988 0.0565503 0)
(2.54033 0.0561443 0)
(2.38168 0.0562218 0)
(2.22361 0.0563428 0)
(2.06614 0.0561911 0)
(1.90953 0.0557066 0)
(1.75412 0.0550882 0)
(1.60012 0.0546596 0)
(1.44755 0.0546907 0)
(1.29621 0.0552874 0)
(1.14577 0.0563846 0)
(0.995928 0.0577924 0)
(0.846582 0.0592323 0)
(0.697969 0.0603606 0)
(0.550729 0.0608148 0)
(0.405815 0.0603032 0)
(0.264308 0.0587017 0)
(0.127223 0.0560989 0)
(-0.00465078 0.0527545 0)
(-0.130648 0.0490459 0)
(-0.250224 0.0452509 0)
(-0.363162 0.041521 0)
(-0.469337 0.0379225 0)
(-0.568598 0.0343868 0)
(-0.660788 0.0307772 0)
(-0.745608 0.0269273 0)
(-0.822539 0.0226512 0)
(-0.890794 0.0177241 0)
(-0.949322 0.0118759 0)
(-0.996934 0.00494983 0)
(-1.03182 -0.00326118 0)
(-1.05102 -0.0146203 0)
(-1.04846 -0.0300677 0)
(-1.02041 -0.046544 0)
(-0.970023 -0.0610791 0)
(-0.897557 -0.0741955 0)
(-0.804228 -0.0858984 0)
(-0.691792 -0.0959593 0)
(-0.562473 -0.104328 0)
(-0.418707 -0.113378 0)
(-0.262703 -0.125983 0)
(-0.092575 -0.122773 0)
(10.0041 0.00700371 0)
(10.018 0.0167801 0)
(10.0337 0.0229481 0)
(10.0484 0.0279604 0)
(10.062 0.0328469 0)
(10.075 0.0375425 0)
(10.0872 0.0419328 0)
(10.0983 0.0461103 0)
(10.1082 0.0502049 0)
(10.1168 0.0542834 0)
(10.124 0.0583702 0)
(10.1297 0.0624842 0)
(10.1338 0.0666467 0)
(10.1363 0.0708775 0)
(10.137 0.0751917 0)
(10.1359 0.079602 0)
(10.1329 0.0841195 0)
(10.1279 0.0887546 0)
(10.1207 0.093517 0)
(10.1114 0.0984161 0)
(10.0998 0.103461 0)
(10.0857 0.108663 0)
(10.0691 0.114031 0)
(10.0498 0.119577 0)
(10.0277 0.125309 0)
(10.0026 0.13124 0)
(9.97443 0.137379 0)
(9.94299 0.143737 0)
(9.90812 0.150324 0)
(9.86963 0.157148 0)
(9.82733 0.164215 0)
(9.78103 0.17153 0)
(9.73048 0.179089 0)
(9.67547 0.186885 0)
(9.61573 0.194904 0)
(9.55099 0.203122 0)
(9.48097 0.211505 0)
(9.40535 0.220004 0)
(9.32383 0.228559 0)
(9.23608 0.237091 0)
(9.14176 0.245503 0)
(9.04058 0.253684 0)
(8.93222 0.261505 0)
(8.81641 0.268825 0)
(8.69294 0.275498 0)
(8.56163 0.281376 0)
(8.42238 0.286321 0)
(8.27519 0.290217 0)
(8.1201 0.292978 0)
(7.95729 0.294565 0)
(7.78699 0.294994 0)
(7.6095 0.294342 0)
(7.42521 0.292751 0)
(7.23453 0.290423 0)
(7.03789 0.287611 0)
(6.83574 0.284598 0)
(6.62852 0.281665 0)
(6.41669 0.279056 0)
(6.20067 0.276932 0)
(5.98085 0.275336 0)
(5.75761 0.27417 0)
(5.53122 0.273215 0)
(5.30193 0.272186 0)
(5.06997 0.270819 0)
(4.83566 0.268965 0)
(4.59942 0.266635 0)
(4.36182 0.263997 0)
(4.1235 0.261287 0)
(3.88509 0.258689 0)
(3.64718 0.256192 0)
(3.41037 0.253523 0)
(3.17539 0.250213 0)
(2.94313 0.245798 0)
(2.71467 0.240056 0)
(2.49117 0.23309 0)
(2.27364 0.225189 0)
(2.06278 0.216588 0)
(1.85894 0.20739 0)
(1.6621 0.197555 0)
(1.47212 0.18713 0)
(1.28891 0.176232 0)
(1.11265 0.164944 0)
(0.943858 0.153193 0)
(0.78329 0.140742 0)
(0.631902 0.127257 0)
(0.490789 0.112346 0)
(0.361197 0.0955342 0)
(0.244485 0.0762885 0)
(0.141836 0.0542404 0)
(0.0540456 0.0284753 0)
(-0.020484 -0.00162344 0)
(-0.0848461 -0.0340828 0)
(-0.134273 -0.0664156 0)
(-0.167583 -0.0976022 0)
(-0.183668 -0.127087 0)
(-0.182255 -0.154228 0)
(-0.164658 -0.177837 0)
(-0.130146 -0.196145 0)
(-0.0936932 -0.215482 0)
(-0.0318906 -0.243159 0)
(10 0.00457826 0)
(10.0001 0.0125686 0)
(9.99938 0.0189007 0)
(9.99701 0.0243283 0)
(9.9927 0.0295191 0)
(9.98677 0.0346232 0)
(9.97947 0.039623 0)
(9.97081 0.0445603 0)
(9.96077 0.0495052 0)
(9.94941 0.0544972 0)
(9.93679 0.0595478 0)
(9.92298 0.0646645 0)
(9.90801 0.0698586 0)
(9.89195 0.0751427 0)
(9.87482 0.0805285 0)
(9.85667 0.086027 0)
(9.83756 0.0916501 0)
(9.81751 0.0974103 0)
(9.79656 0.103321 0)
(9.77476 0.109397 0)
(9.75213 0.115652 0)
(9.72871 0.122102 0)
(9.70453 0.128765 0)
(9.67961 0.135656 0)
(9.65398 0.142794 0)
(9.62764 0.150195 0)
(9.60063 0.15788 0)
(9.57294 0.165867 0)
(9.5446 0.174175 0)
(9.5156 0.182825 0)
(9.48594 0.191837 0)
(9.45562 0.201228 0)
(9.42463 0.211017 0)
(9.39294 0.221215 0)
(9.3605 0.231834 0)
(9.32727 0.242876 0)
(9.29317 0.254336 0)
(9.25808 0.266198 0)
(9.22188 0.278431 0)
(9.18438 0.290992 0)
(9.14536 0.303817 0)
(9.10454 0.316823 0)
(9.06158 0.329905 0)
(9.01609 0.342942 0)
(8.96762 0.355793 0)
(8.91564 0.368308 0)
(8.8596 0.380333 0)
(8.79889 0.391722 0)
(8.73287 0.402348 0)
(8.66093 0.412119 0)
(8.58245 0.420992 0)
(8.49685 0.42898 0)
(8.40363 0.436162 0)
(8.30236 0.442681 0)
(8.19272 0.44873 0)
(8.07448 0.454533 0)
(7.94753 0.460308 0)
(7.81184 0.466227 0)
(7.66746 0.472372 0)
(7.51447 0.478708 0)
(7.35295 0.485073 0)
(7.18297 0.491211 0)
(7.00456 0.496838 0)
(6.81777 0.501712 0)
(6.62267 0.505683 0)
(6.41949 0.508707 0)
(6.20859 0.510825 0)
(5.99056 0.512108 0)
(5.76615 0.512595 0)
(5.53629 0.512211 0)
(5.30199 0.51069 0)
(5.06422 0.507543 0)
(4.82387 0.502141 0)
(4.58182 0.493916 0)
(4.33908 0.482623 0)
(4.09699 0.468523 0)
(3.85711 0.452382 0)
(3.62105 0.43525 0)
(3.38995 0.418071 0)
(3.16424 0.401331 0)
(2.94367 0.384905 0)
(2.72768 0.368178 0)
(2.51585 0.350372 0)
(2.30825 0.33083 0)
(2.10542 0.3091 0)
(1.90816 0.284859 0)
(1.71733 0.257777 0)
(1.53366 0.22745 0)
(1.35762 0.193344 0)
(1.1895 0.155445 0)
(1.02962 0.114592 0)
(0.878349 0.0718713 0)
(0.736624 0.0272015 0)
(0.605005 -0.0184282 0)
(0.483843 -0.0638595 0)
(0.373463 -0.106828 0)
(0.274513 -0.144944 0)
(0.187259 -0.175468 0)
(0.102805 -0.202484 0)
(0.0435328 -0.236803 0)
(9.99994 0.00483248 0)
(9.99938 0.0142177 0)
(9.99784 0.0229045 0)
(9.9947 0.0309357 0)
(9.98969 0.0386063 0)
(9.98287 0.0460782 0)
(9.97435 0.053367 0)
(9.96413 0.0604799 0)
(9.9522 0.067457 0)
(9.93855 0.0743423 0)
(9.9232 0.0811646 0)
(9.90617 0.0879441 0)
(9.88749 0.0946995 0)
(9.86716 0.10145 0)
(9.8452 0.108212 0)
(9.82161 0.115002 0)
(9.79641 0.121835 0)
(9.76962 0.128724 0)
(9.74124 0.135686 0)
(9.7113 0.142732 0)
(9.67981 0.149879 0)
(9.64679 0.157137 0)
(9.61226 0.164523 0)
(9.57626 0.172049 0)
(9.5388 0.179732 0)
(9.49994 0.187588 0)
(9.45969 0.195634 0)
(9.41813 0.203888 0)
(9.3753 0.212368 0)
(9.33125 0.221091 0)
(9.28608 0.230077 0)
(9.23984 0.239341 0)
(9.19264 0.248903 0)
(9.14457 0.258775 0)
(9.09574 0.268972 0)
(9.04627 0.279505 0)
(8.99627 0.290381 0)
(8.94586 0.301604 0)
(8.89518 0.31317 0)
(8.84434 0.325072 0)
(8.79345 0.337293 0)
(8.7426 0.34981 0)
(8.69185 0.362587 0)
(8.64123 0.375582 0)
(8.59071 0.388745 0)
(8.54023 0.402021 0)
(8.48965 0.415349 0)
(8.43876 0.428672 0)
(8.38729 0.441943 0)
(8.33489 0.455126 0)
(8.28118 0.468211 0)
(8.22572 0.481212 0)
(8.16805 0.494181 0)
(8.10771 0.507197 0)
(8.04426 0.520365 0)
(7.97727 0.533798 0)
(7.90639 0.547599 0)
(7.83127 0.561838 0)
(7.7516 0.576525 0)
(7.66706 0.591593 0)
(7.57729 0.606896 0)
(7.48189 0.622223 0)
(7.38036 0.637327 0)
(7.27217 0.651963 0)
(7.15677 0.665912 0)
(7.03365 0.678989 0)
(6.90238 0.691037 0)
(6.76267 0.701897 0)
(6.61442 0.711376 0)
(6.45769 0.71921 0)
(6.29267 0.725045 0)
(6.11964 0.728445 0)
(5.93883 0.728936 0)
(5.75037 0.726065 0)
(5.55433 0.719473 0)
(5.35086 0.708976 0)
(5.14048 0.694694 0)
(4.92432 0.677191 0)
(4.70408 0.657503 0)
(4.4817 0.636919 0)
(4.25875 0.616494 0)
(4.036 0.596547 0)
(3.81331 0.576508 0)
(3.59009 0.555231 0)
(3.36587 0.531545 0)
(3.14056 0.504641 0)
(2.91446 0.474132 0)
(2.68794 0.439878 0)
(2.46127 0.401811 0)
(2.23456 0.360017 0)
(2.00792 0.314794 0)
(1.78173 0.266593 0)
(1.55666 0.215853 0)
(1.33364 0.163308 0)
(1.11399 0.110235 0)
(0.89922 0.0586893 0)
(0.690058 0.011278 0)
(0.486919 -0.0291719 0)
(0.286048 -0.0623972 0)
(0.108894 -0.100624 0)
(9.99989 0.00523682 0)
(9.99893 0.0155282 0)
(9.99679 0.0253664 0)
(9.99314 0.0346923 0)
(9.98783 0.0436563 0)
(9.98085 0.0524044 0)
(9.97224 0.0609941 0)
(9.96201 0.0694511 0)
(9.95014 0.0778141 0)
(9.93662 0.0861274 0)
(9.92146 0.0944244 0)
(9.90466 0.102727 0)
(9.88623 0.111054 0)
(9.86616 0.119422 0)
(9.84446 0.127846 0)
(9.82112 0.136341 0)
(9.79613 0.14492 0)
(9.76949 0.153595 0)
(9.74119 0.162379 0)
(9.71122 0.171284 0)
(9.67957 0.180321 0)
(9.64622 0.189502 0)
(9.61117 0.198838 0)
(9.57441 0.20834 0)
(9.53591 0.218018 0)
(9.49567 0.227881 0)
(9.45368 0.237938 0)
(9.40994 0.248198 0)
(9.36444 0.258666 0)
(9.31719 0.26935 0)
(9.26818 0.280254 0)
(9.21745 0.29138 0)
(9.16501 0.30273 0)
(9.11089 0.314303 0)
(9.05513 0.326094 0)
(8.99778 0.338099 0)
(8.9389 0.350308 0)
(8.87856 0.362707 0)
(8.81684 0.375279 0)
(8.75382 0.388004 0)
(8.68961 0.400855 0)
(8.6243 0.413803 0)
(8.55801 0.426815 0)
(8.49084 0.439857 0)
(8.4229 0.452896 0)
(8.3543 0.4659 0)
(8.28513 0.478847 0)
(8.21546 0.491723 0)
(8.14536 0.50453 0)
(8.07488 0.517284 0)
(8.00403 0.530027 0)
(7.93283 0.542821 0)
(7.86127 0.555751 0)
(7.78934 0.568921 0)
(7.71704 0.582452 0)
(7.64436 0.596466 0)
(7.57133 0.61108 0)
(7.49795 0.626384 0)
(7.42423 0.642431 0)
(7.35014 0.659221 0)
(7.27562 0.676698 0)
(7.20047 0.69475 0)
(7.12445 0.713228 0)
(7.04716 0.731955 0)
(6.96814 0.750747 0)
(6.88686 0.769415 0)
(6.80274 0.787758 0)
(6.71521 0.805537 0)
(6.6237 0.822455 0)
(6.52766 0.838127 0)
(6.4266 0.8521 0)
(6.32004 0.863901 0)
(6.20749 0.873118 0)
(6.08831 0.879464 0)
(5.96154 0.882743 0)
(5.82588 0.882755 0)
(5.67984 0.879227 0)
(5.52227 0.871904 0)
(5.35288 0.860828 0)
(5.17259 0.846596 0)
(4.98331 0.830316 0)
(4.78712 0.813144 0)
(4.58548 0.795666 0)
(4.37869 0.777581 0)
(4.16622 0.75791 0)
(3.94716 0.735551 0)
(3.72072 0.709734 0)
(3.48638 0.680146 0)
(3.24373 0.646768 0)
(2.99242 0.609707 0)
(2.73217 0.569112 0)
(2.46302 0.525176 0)
(2.18544 0.478141 0)
(1.90044 0.428423 0)
(1.60959 0.376781 0)
(1.31504 0.324364 0)
(1.01917 0.273252 0)
(0.724148 0.22718 0)
(0.429237 0.189815 0)
(0.158412 0.150572 0)
(9.99986 0.00578126 0)
(9.99872 0.0172431 0)
(9.99628 0.0284642 0)
(9.99235 0.0393841 0)
(9.98687 0.0500541 0)
(9.97981 0.0605528 0)
(9.97116 0.0709231 0)
(9.9609 0.0811833 0)
(9.94904 0.0913546 0)
(9.93556 0.101465 0)
(9.92046 0.111538 0)
(9.90376 0.121594 0)
(9.88544 0.131651 0)
(9.86552 0.141724 0)
(9.84399 0.151831 0)
(9.82085 0.161988 0)
(9.7961 0.172212 0)
(9.76974 0.182517 0)
(9.74176 0.192919 0)
(9.71216 0.203435 0)
(9.68092 0.214079 0)
(9.64804 0.224865 0)
(9.61349 0.235808 0)
(9.57728 0.246921 0)
(9.53938 0.258217 0)
(9.49979 0.269706 0)
(9.45848 0.2814 0)
(9.41543 0.293308 0)
(9.37065 0.305438 0)
(9.3241 0.317796 0)
(9.27578 0.330386 0)
(9.22567 0.343211 0)
(9.17377 0.356269 0)
(9.12006 0.369559 0)
(9.06454 0.383072 0)
(9.0072 0.3968 0)
(8.94805 0.410729 0)
(8.88707 0.42484 0)
(8.82426 0.439112 0)
(8.75964 0.453518 0)
(8.6932 0.468026 0)
(8.62494 0.482599 0)
(8.55487 0.497198 0)
(8.48299 0.511781 0)
(8.40932 0.526306 0)
(8.33386 0.540736 0)
(8.25662 0.555037 0)
(8.17764 0.569185 0)
(8.09692 0.583172 0)
(8.01453 0.597002 0)
(7.93051 0.610702 0)
(7.84493 0.624318 0)
(7.75791 0.637916 0)
(7.66957 0.65158 0)
(7.58008 0.665408 0)
(7.48964 0.679502 0)
(7.39848 0.693963 0)
(7.30688 0.708875 0)
(7.21512 0.724301 0)
(7.12351 0.740271 0)
(7.03233 0.756786 0)
(6.94183 0.773814 0)
(6.85222 0.791299 0)
(6.76363 0.80917 0)
(6.67614 0.827345 0)
(6.58975 0.845729 0)
(6.50439 0.864202 0)
(6.41993 0.882602 0)
(6.33614 0.900688 0)
(6.25275 0.91812 0)
(6.16941 0.934461 0)
(6.08577 0.949261 0)
(6.00141 0.962208 0)
(5.91576 0.973282 0)
(5.8278 0.982771 0)
(5.73584 0.991045 0)
(5.63737 0.998164 0)
(5.52945 1.00359 0)
(5.40946 1.00631 0)
(5.27605 1.00541 0)
(5.12958 1.0007 0)
(4.97173 0.992893 0)
(4.80453 0.983143 0)
(4.62929 0.972306 0)
(4.44611 0.960475 0)
(4.25402 0.947098 0)
(4.0516 0.931444 0)
(3.83732 0.913013 0)
(3.60981 0.891606 0)
(3.36782 0.867186 0)
(3.11025 0.839693 0)
(2.83628 0.808941 0)
(2.54558 0.774616 0)
(2.23849 0.736402 0)
(1.91623 0.694218 0)
(1.58106 0.648612 0)
(1.23613 0.601388 0)
(0.884712 0.556259 0)
(0.528192 0.519093 0)
(0.192722 0.481578 0)
(9.99985 0.00641671 0)
(9.99861 0.0191847 0)
(9.996 0.0318021 0)
(9.99189 0.0442103 0)
(9.98625 0.0564114 0)
(9.97908 0.0684432 0)
(9.97034 0.0803397 0)
(9.96003 0.092123 0)
(9.94814 0.103815 0)
(9.93465 0.115441 0)
(9.91958 0.127027 0)
(9.90292 0.138596 0)
(9.88467 0.15017 0)
(9.86484 0.161767 0)
(9.84342 0.173408 0)
(9.82041 0.185111 0)
(9.79581 0.196893 0)
(9.76961 0.208771 0)
(9.74182 0.220764 0)
(9.71242 0.232886 0)
(9.68141 0.245155 0)
(9.64877 0.257584 0)
(9.61451 0.270189 0)
(9.57861 0.282984 0)
(9.54106 0.295979 0)
(9.50184 0.309187 0)
(9.46095 0.322618 0)
(9.41838 0.336279 0)
(9.37411 0.350178 0)
(9.32813 0.36432 0)
(9.28044 0.378707 0)
(9.23102 0.393341 0)
(9.17987 0.408219 0)
(9.12697 0.423338 0)
(9.07233 0.438691 0)
(9.01592 0.454267 0)
(8.95774 0.470056 0)
(8.89777 0.486039 0)
(8.836 0.502199 0)
(8.77241 0.518511 0)
(8.70697 0.534949 0)
(8.63965 0.55148 0)
(8.57042 0.56807 0)
(8.49921 0.584683 0)
(8.42599 0.601279 0)
(8.3507 0.617823 0)
(8.27326 0.63428 0)
(8.19362 0.650622 0)
(8.1117 0.666831 0)
(8.02746 0.682897 0)
(7.94084 0.698823 0)
(7.85182 0.714627 0)
(7.76038 0.73034 0)
(7.66656 0.746004 0)
(7.57042 0.761667 0)
(7.47207 0.777385 0)
(7.37165 0.793206 0)
(7.26937 0.809169 0)
(7.16547 0.825301 0)
(7.06022 0.841607 0)
(6.95393 0.858075 0)
(6.84693 0.874678 0)
(6.73957 0.891377 0)
(6.6322 0.908128 0)
(6.52518 0.924882 0)
(6.41886 0.941588 0)
(6.31358 0.958181 0)
(6.20968 0.974566 0)
(6.10742 0.990582 0)
(6.00706 1.00596 0)
(5.90879 1.02032 0)
(5.81278 1.03326 0)
(5.71915 1.04458 0)
(5.62788 1.05456 0)
(5.53856 1.06411 0)
(5.4501 1.07452 0)
(5.36043 1.08674 0)
(5.26662 1.10062 0)
(5.16548 1.11467 0)
(5.05448 1.12659 0)
(4.93252 1.1345 0)
(4.80007 1.13787 0)
(4.65849 1.13759 0)
(4.50907 1.13524 0)
(4.35219 1.13205 0)
(4.18719 1.12846 0)
(4.01258 1.12428 0)
(3.82643 1.11916 0)
(3.62672 1.11284 0)
(3.41132 1.10517 0)
(3.17818 1.0959 0)
(2.92534 1.08447 0)
(2.65118 1.07 0)
(2.35471 1.05131 0)
(2.03589 1.02725 0)
(1.69599 0.997154 0)
(1.3377 0.961718 0)
(0.964614 0.923934 0)
(0.579176 0.890851 0)
(0.210109 0.85575 0)
(9.99984 0.00709698 0)
(9.99855 0.0212364 0)
(9.99584 0.0352652 0)
(9.99161 0.0491405 0)
(9.98586 0.0628545 0)
(9.97861 0.0764269 0)
(9.96984 0.0898835 0)
(9.95951 0.103245 0)
(9.94762 0.116531 0)
(9.93416 0.129762 0)
(9.91914 0.14296 0)
(9.90256 0.156145 0)
(9.8844 0.169336 0)
(9.86467 0.182552 0)
(9.84337 0.195811 0)
(9.82049 0.209132 0)
(9.79604 0.222531 0)
(9.77001 0.236027 0)
(9.74239 0.249638 0)
(9.71317 0.26338 0)
(9.68236 0.27727 0)
(9.64993 0.291325 0)
(9.61589 0.305561 0)
(9.58022 0.31999 0)
(9.54291 0.334627 0)
(9.50395 0.349483 0)
(9.46334 0.364568 0)
(9.42105 0.37989 0)
(9.37709 0.395456 0)
(9.33143 0.411272 0)
(9.28408 0.427339 0)
(9.23503 0.443659 0)
(9.18426 0.46023 0)
(9.13178 0.477048 0)
(9.07758 0.494106 0)
(9.02165 0.511397 0)
(8.96398 0.528909 0)
(8.90457 0.546631 0)
(8.8434 0.564547 0)
(8.78046 0.582639 0)
(8.71573 0.600886 0)
(8.64918 0.619265 0)
(8.58077 0.63775 0)
(8.51046 0.656313 0)
(8.43821 0.674925 0)
(8.36394 0.69356 0)
(8.28759 0.712191 0)
(8.20908 0.730797 0)
(8.12833 0.74936 0)
(8.04525 0.76787 0)
(7.95974 0.786324 0)
(7.87174 0.804724 0)
(7.78115 0.823083 0)
(7.68792 0.841415 0)
(7.59202 0.859738 0)
(7.49341 0.878068 0)
(7.39212 0.896414 0)
(7.28818 0.914774 0)
(7.18167 0.93313 0)
(7.07268 0.95145 0)
(6.96134 0.969683 0)
(6.84783 0.987766 0)
(6.73235 1.00562 0)
(6.61512 1.02317 0)
(6.49642 1.04034 0)
(6.37657 1.05703 0)
(6.25593 1.07316 0)
(6.13491 1.08862 0)
(6.01395 1.10326 0)
(5.8935 1.11681 0)
(5.77404 1.12893 0)
(5.65603 1.13922 0)
(5.53987 1.14759 0)
(5.42583 1.15454 0)
(5.31395 1.16144 0)
(5.20392 1.17032 0)
(5.09483 1.18299 0)
(4.98517 1.19996 0)
(4.87298 1.21978 0)
(4.75635 1.23948 0)
(4.63398 1.25596 0)
(4.50546 1.26758 0)
(4.37109 1.27469 0)
(4.2314 1.27907 0)
(4.08657 1.28272 0)
(3.93612 1.28692 0)
(3.77889 1.29216 0)
(3.61314 1.29853 0)
(3.43676 1.30602 0)
(3.24731 1.3146 0)
(3.04209 1.32406 0)
(2.81827 1.33373 0)
(2.57304 1.34233 0)
(2.30389 1.34796 0)
(2.00909 1.3483 0)
(1.6882 1.34114 0)
(1.34247 1.32543 0)
(0.975 1.30256 0)
(0.58804 1.27942 0)
(0.212589 1.24952 0)
(9.99984 0.00780114 0)
(9.99852 0.0233526 0)
(9.99575 0.038815 0)
(9.99144 0.0541586 0)
(9.98563 0.0693738 0)
(9.97834 0.0844689 0)
(9.96954 0.0994602 0)
(9.9592 0.114364 0)
(9.94733 0.129198 0)
(9.93391 0.143978 0)
(9.91895 0.158725 0)
(9.90244 0.173457 0)
(9.88438 0.188196 0)
(9.86476 0.20296 0)
(9.84359 0.217768 0)
(9.82086 0.23264 0)
(9.79657 0.247595 0)
(9.77071 0.262653 0)
(9.74328 0.277833 0)
(9.71427 0.293153 0)
(9.68367 0.308632 0)
(9.65148 0.324287 0)
(9.61768 0.340134 0)
(9.58227 0.356188 0)
(9.54523 0.372462 0)
(9.50656 0.388968 0)
(9.46623 0.405716 0)
(9.42425 0.422713 0)
(9.38059 0.439966 0)
(9.33525 0.457479 0)
(9.28823 0.475252 0)
(9.2395 0.493286 0)
(9.18906 0.511578 0)
(9.13691 0.530122 0)
(9.08304 0.548914 0)
(9.02743 0.567943 0)
(8.97009 0.587201 0)
(8.911 0.606677 0)
(8.85016 0.626358 0)
(8.78754 0.64623 0)
(8.72312 0.666276 0)
(8.6569 0.68648 0)
(8.58884 0.706821 0)
(8.51891 0.72728 0)
(8.44706 0.747838 0)
(8.37325 0.768474 0)
(8.29742 0.789172 0)
(8.21952 0.809919 0)
(8.13948 0.830702 0)
(8.05723 0.851516 0)
(7.97268 0.872361 0)
(7.88578 0.893238 0)
(7.79644 0.914155 0)
(7.70458 0.935118 0)
(7.61016 0.956135 0)
(7.51311 0.977207 0)
(7.41337 0.998327 0)
(7.31092 1.01947 0)
(7.20572 1.04061 0)
(7.09774 1.06169 0)
(6.98699 1.08263 0)
(6.87346 1.10334 0)
(6.75716 1.12372 0)
(6.63815 1.14365 0)
(6.51649 1.16299 0)
(6.39228 1.1816 0)
(6.26569 1.19935 0)
(6.13692 1.21607 0)
(6.00625 1.23152 0)
(5.874 1.24543 0)
(5.74052 1.25742 0)
(5.60615 1.26716 0)
(5.47112 1.27461 0)
(5.33556 1.28043 0)
(5.19947 1.28615 0)
(5.06291 1.294 0)
(4.92597 1.3061 0)
(4.78882 1.32332 0)
(4.65146 1.34446 0)
(4.51359 1.36658 0)
(4.37469 1.38631 0)
(4.23416 1.40159 0)
(4.09154 1.41244 0)
(3.94657 1.42059 0)
(3.79905 1.42822 0)
(3.64865 1.43709 0)
(3.49466 1.44825 0)
(3.33588 1.46229 0)
(3.1706 1.47968 0)
(2.99662 1.50081 0)
(2.81126 1.52579 0)
(2.61139 1.55418 0)
(2.39354 1.58472 0)
(2.15412 1.61512 0)
(1.88989 1.64214 0)
(1.59862 1.66201 0)
(1.27971 1.67158 0)
(0.935187 1.66981 0)
(0.565949 1.66204 0)
(0.204166 1.64005 0)
(9.99984 0.00851881 0)
(9.9985 0.0255065 0)
(9.9957 0.0424161 0)
(9.99135 0.0592269 0)
(9.9855 0.07593 0)
(9.97819 0.0925286 0)
(9.96938 0.109034 0)
(9.95906 0.12546 0)
(9.94722 0.141822 0)
(9.93386 0.158136 0)
(9.91897 0.174421 0)
(9.90255 0.190697 0)
(9.8846 0.206981 0)
(9.86511 0.223294 0)
(9.84408 0.239656 0)
(9.82151 0.256085 0)
(9.7974 0.272603 0)
(9.77173 0.289229 0)
(9.74451 0.305983 0)
(9.71572 0.322885 0)
(9.68536 0.339954 0)
(9.65342 0.357207 0)
(9.61989 0.374662 0)
(9.58475 0.392333 0)
(9.548 0.410236 0)
(9.50963 0.428381 0)
(9.46961 0.446778 0)
(9.42795 0.465435 0)
(9.38463 0.484358 0)
(9.33963 0.503551 0)
(9.29295 0.523015 0)
(9.24458 0.542748 0)
(9.1945 0.562748 0)
(9.1427 0.583009 0)
(9.08919 0.603526 0)
(9.03393 0.62429 0)
(8.97693 0.645293 0)
(8.91817 0.666525 0)
(8.85764 0.687976 0)
(8.79532 0.709635 0)
(8.73119 0.731488 0)
(8.66523 0.753523 0)
(8.59741 0.775725 0)
(8.52771 0.798078 0)
(8.45607 0.820569 0)
(8.38248 0.843184 0)
(8.30687 0.865911 0)
(8.2292 0.88874 0)
(8.14942 0.911665 0)
(8.06747 0.934682 0)
(7.9833 0.957792 0)
(7.89685 0.980998 0)
(7.80807 1.00431 0)
(7.71691 1.02772 0)
(7.62331 1.05125 0)
(7.52722 1.07489 0)
(7.42861 1.09862 0)
(7.32743 1.12244 0)
(7.22362 1.14631 0)
(7.11713 1.17016 0)
(7.00792 1.19393 0)
(6.89591 1.21753 0)
(6.78104 1.24083 0)
(6.66323 1.26371 0)
(6.54243 1.28603 0)
(6.41856 1.3076 0)
(6.29159 1.32825 0)
(6.16149 1.34776 0)
(6.02827 1.36585 0)
(5.89199 1.38219 0)
(5.7527 1.39642 0)
(5.61039 1.40827 0)
(5.46493 1.41784 0)
(5.31604 1.42587 0)
(5.16337 1.4338 0)
(5.00687 1.44358 0)
(4.84709 1.45695 0)
(4.68526 1.47452 0)
(4.52296 1.49522 0)
(4.3615 1.51657 0)
(4.20143 1.53579 0)
(4.04245 1.55116 0)
(3.88383 1.56277 0)
(3.72487 1.57214 0)
(3.56516 1.58132 0)
(3.40452 1.59213 0)
(3.2427 1.6059 0)
(3.07916 1.62371 0)
(2.91285 1.64656 0)
(2.74221 1.6754 0)
(2.56511 1.71091 0)
(2.37874 1.7532 0)
(2.17966 1.80141 0)
(1.96393 1.85334 0)
(1.72741 1.90528 0)
(1.46655 1.9522 0)
(1.17896 1.98882 0)
(0.865415 2.01123 0)
(0.524746 2.02199 0)
(0.188955 2.00911 0)
(9.99984 0.00924359 0)
(9.99849 0.0276799 0)
(9.99568 0.0460433 0)
(9.99131 0.0643191 0)
(9.98545 0.0825006 0)
(9.97813 0.100589 0)
(9.96934 0.118593 0)
(9.95906 0.136525 0)
(9.94726 0.154399 0)
(9.93397 0.172229 0)
(9.91916 0.190035 0)
(9.90285 0.207833 0)
(9.88501 0.225642 0)
(9.86567 0.243483 0)
(9.84479 0.261376 0)
(9.8224 0.27934 0)
(9.79847 0.297397 0)
(9.77301 0.315567 0)
(9.74601 0.333873 0)
(9.71746 0.352333 0)
(9.68735 0.37097 0)
(9.65568 0.3898 0)
(9.62242 0.408844 0)
(9.58758 0.428115 0)
(9.55114 0.447629 0)
(9.51309 0.467399 0)
(9.47341 0.487433 0)
(9.43209 0.50774 0)
(9.38912 0.528325 0)
(9.34449 0.549193 0)
(9.29819 0.570343 0)
(9.25019 0.591774 0)
(9.2005 0.613483 0)
(9.14909 0.635465 0)
(9.09596 0.657714 0)
(9.04109 0.680222 0)
(8.98447 0.702982 0)
(8.92609 0.725986 0)
(8.86593 0.749226 0)
(8.80396 0.772692 0)
(8.74017 0.796376 0)
(8.67453 0.820267 0)
(8.60702 0.844355 0)
(8.53759 0.868628 0)
(8.46622 0.893077 0)
(8.39287 0.917691 0)
(8.31749 0.942461 0)
(8.24003 0.967381 0)
(8.16045 0.992445 0)
(8.0787 1.01765 0)
(7.99473 1.043 0)
(7.9085 1.06849 0)
(7.81996 1.09413 0)
(7.72907 1.11991 0)
(7.63579 1.14585 0)
(7.54008 1.17194 0)
(7.44191 1.19817 0)
(7.34125 1.22452 0)
(7.23806 1.25095 0)
(7.13229 1.27743 0)
(7.02391 1.3039 0)
(6.91285 1.33026 0)
(6.79902 1.35642 0)
(6.68235 1.38227 0)
(6.56272 1.40765 0)
(6.44001 1.43241 0)
(6.31409 1.45636 0)
(6.1848 1.47928 0)
(6.05197 1.50088 0)
(5.91544 1.52083 0)
(5.775 1.5388 0)
(5.63035 1.55466 0)
(5.48105 1.56867 0)
(5.32645 1.58164 0)
(5.16581 1.5949 0)
(4.99874 1.60981 0)
(4.82563 1.62724 0)
(4.64796 1.64704 0)
(4.46803 1.66792 0)
(4.28814 1.68793 0)
(4.10971 1.70528 0)
(3.93298 1.71919 0)
(3.75731 1.73011 0)
(3.58196 1.73943 0)
(3.40649 1.74885 0)
(3.23091 1.75994 0)
(3.05539 1.77414 0)
(2.87994 1.79284 0)
(2.70427 1.81751 0)
(2.52763 1.84967 0)
(2.3487 1.89065 0)
(2.16548 1.94131 0)
(1.97514 2.00149 0)
(1.77405 2.06954 0)
(1.55794 2.14179 0)
(1.32261 2.21241 0)
(1.06436 2.27433 0)
(0.782905 2.32069 0)
(0.474719 2.35055 0)
(0.170509 2.34642 0)
(9.99984 0.00997123 0)
(9.99849 0.0298609 0)
(9.99567 0.0496795 0)
(9.9913 0.0694165 0)
(9.98545 0.0890675 0)
(9.97815 0.108633 0)
(9.96939 0.128121 0)
(9.95915 0.147542 0)
(9.94742 0.16691 0)
(9.9342 0.186238 0)
(9.9195 0.205545 0)
(9.9033 0.224847 0)
(9.8856 0.244164 0)
(9.8664 0.263515 0)
(9.8457 0.282922 0)
(9.8235 0.302405 0)
(9.79977 0.321986 0)
(9.77453 0.341687 0)
(9.74777 0.36153 0)
(9.71947 0.381537 0)
(9.68963 0.401728 0)
(9.65824 0.422124 0)
(9.62528 0.442744 0)
(9.59075 0.463603 0)
(9.55464 0.484718 0)
(9.51692 0.5061 0)
(9.4776 0.52776 0)
(9.43665 0.549706 0)
(9.39405 0.571943 0)
(9.34981 0.594475 0)
(9.3039 0.617303 0)
(9.2563 0.640425 0)
(9.20702 0.663837 0)
(9.15602 0.687536 0)
(9.10331 0.711514 0)
(9.04886 0.735766 0)
(8.99265 0.760285 0)
(8.93468 0.785065 0)
(8.87492 0.8101 0)
(8.81336 0.835383 0)
(8.74996 0.860908 0)
(8.6847 0.886669 0)
(8.61756 0.912657 0)
(8.54849 0.938866 0)
(8.47746 0.965289 0)
(8.40444 0.991918 0)
(8.32937 1.01875 0)
(8.25221 1.04577 0)
(8.17292 1.07299 0)
(8.09145 1.1004 0)
(8.00775 1.12799 0)
(7.92177 1.15578 0)
(7.83347 1.18375 0)
(7.74282 1.2119 0)
(7.64976 1.24025 0)
(7.55426 1.26877 0)
(7.4563 1.29747 0)
(7.35584 1.32631 0)
(7.25284 1.35528 0)
(7.14729 1.38433 0)
(7.03913 1.41341 0)
(6.92831 1.44245 0)
(6.81479 1.47136 0)
(6.69848 1.50005 0)
(6.57929 1.52839 0)
(6.4571 1.55626 0)
(6.33176 1.58348 0)
(6.2031 1.60988 0)
(6.07089 1.63518 0)
(5.93488 1.65911 0)
(5.79473 1.68142 0)
(5.65003 1.70209 0)
(5.50019 1.72158 0)
(5.34441 1.74088 0)
(5.18173 1.76119 0)
(5.01139 1.78336 0)
(4.83332 1.80725 0)
(4.64863 1.83162 0)
(4.45949 1.8546 0)
(4.26843 1.87453 0)
(4.07737 1.89067 0)
(3.88704 1.90334 0)
(3.69718 1.91362 0)
(3.50717 1.92285 0)
(3.3167 1.93232 0)
(3.12592 1.94327 0)
(2.9353 1.957 0)
(2.74531 1.97507 0)
(2.5563 1.99926 0)
(2.36831 2.03155 0)
(2.18094 2.0739 0)
(1.99317 2.12792 0)
(1.80315 2.19436 0)
(1.60808 2.27241 0)
(1.40418 2.35891 0)
(1.18731 2.44782 0)
(0.953063 2.53074 0)
(0.700457 2.59822 0)
(0.42378 2.64558 0)
(0.151609 2.64859 0)
(9.99984 0.0106988 0)
(9.99849 0.0320411 0)
(9.99568 0.053312 0)
(9.99132 0.0745044 0)
(9.98549 0.0956152 0)
(9.97822 0.116646 0)
(9.9695 0.137603 0)
(9.95932 0.158498 0)
(9.94767 0.179342 0)
(9.93455 0.200151 0)
(9.91996 0.220941 0)
(9.90389 0.241729 0)
(9.88634 0.262536 0)
(9.8673 0.28338 0)
(9.84679 0.304284 0)
(9.82478 0.325269 0)
(9.80128 0.346358 0)
(9.77627 0.367572 0)
(9.74976 0.388937 0)
(9.72173 0.410473 0)
(9.69217 0.432203 0)
(9.66108 0.454149 0)
(9.62844 0.476329 0)
(9.59424 0.498762 0)
(9.55847 0.521462 0)
(9.52111 0.544443 0)
(9.48216 0.567716 0)
(9.44159 0.591288 0)
(9.39939 0.615166 0)
(9.35556 0.639353 0)
(9.31006 0.66385 0)
(9.26289 0.688655 0)
(9.21404 0.713766 0)
(9.16349 0.739177 0)
(9.11121 0.764882 0)
(9.05721 0.790878 0)
(9.00145 0.817157 0)
(8.94392 0.843717 0)
(8.88461 0.870551 0)
(8.82348 0.897657 0)
(8.76052 0.925031 0)
(8.69569 0.952669 0)
(8.62896 0.980568 0)
(8.56031 1.00872 0)
(8.48968 1.03713 0)
(8.41706 1.06578 0)
(8.34238 1.09468 0)
(8.26561 1.12383 0)
(8.18669 1.15321 0)
(8.10559 1.18282 0)
(8.02224 1.21268 0)
(7.93662 1.24276 0)
(7.84866 1.27308 0)
(7.75832 1.30363 0)
(7.66556 1.33441 0)
(7.57034 1.3654 0)
(7.47262 1.39659 0)
(7.37236 1.42797 0)
(7.26952 1.45951 0)
(7.16406 1.49116 0)
(7.05595 1.52288 0)
(6.94514 1.55461 0)
(6.83157 1.58627 0)
(6.71518 1.61778 0)
(6.59589 1.64905 0)
(6.4736 1.67996 0)
(6.34819 1.71038 0)
(6.21949 1.74017 0)
(6.08731 1.76912 0)
(5.95139 1.797 0)
(5.81141 1.82365 0)
(5.66697 1.84918 0)
(5.51752 1.87425 0)
(5.36232 1.90003 0)
(5.2004 1.92777 0)
(5.0308 1.95799 0)
(4.85298 1.98968 0)
(4.66738 2.02051 0)
(4.47552 2.04776 0)
(4.27962 2.06972 0)
(4.08165 2.08638 0)
(3.88269 2.09912 0)
(3.68287 2.10974 0)
(3.48185 2.11968 0)
(3.27942 2.12988 0)
(3.07583 2.14117 0)
(2.87168 2.15462 0)
(2.66776 2.17177 0)
(2.46487 2.19454 0)
(2.26371 2.22518 0)
(2.06472 2.26612 0)
(1.86788 2.31968 0)
(1.67244 2.38752 0)
(1.47671 2.46982 0)
(1.27785 2.56428 0)
(1.07233 2.66517 0)
(0.855612 2.76342 0)
(0.626434 2.8475 0)
(0.377318 2.90925 0)
(0.1342 2.91698 0)
(9.99984 0.0114242 0)
(9.9985 0.0342143 0)
(9.9957 0.0569316 0)
(9.99136 0.0795709 0)
(9.98556 0.102131 0)
(9.97833 0.124614 0)
(9.96968 0.147026 0)
(9.95957 0.169378 0)
(9.94801 0.191683 0)
(9.93499 0.213954 0)
(9.92052 0.23621 0)
(9.90459 0.258467 0)
(9.8872 0.280745 0)
(9.86835 0.303065 0)
(9.84803 0.325448 0)
(9.82623 0.347917 0)
(9.80296 0.370495 0)
(9.77821 0.393206 0)
(9.75196 0.416075 0)
(9.72421 0.439124 0)
(9.69496 0.462377 0)
(9.66418 0.485856 0)
(9.63188 0.509582 0)
(9.59802 0.533573 0)
(9.56262 0.557844 0)
(9.52564 0.58241 0)
(9.48708 0.607283 0)
(9.44691 0.632469 0)
(9.40514 0.657977 0)
(9.36173 0.683808 0)
(9.31667 0.709964 0)
(9.26995 0.736445 0)
(9.22156 0.763246 0)
(9.17147 0.790363 0)
(9.11967 0.817792 0)
(9.06614 0.845528 0)
(9.01086 0.873567 0)
(8.95381 0.901906 0)
(8.89497 0.930542 0)
(8.83432 0.959475 0)
(8.77183 0.988701 0)
(8.70748 1.01822 0)
(8.64122 1.04804 0)
(8.57303 1.07814 0)
(8.50287 1.10854 0)
(8.43069 1.13922 0)
(8.35646 1.1702 0)
(8.28014 1.20146 0)
(8.20167 1.23301 0)
(8.121 1.26485 0)
(8.03809 1.29696 0)
(7.95289 1.32936 0)
(7.86535 1.36204 0)
(7.77542 1.395 0)
(7.68306 1.42823 0)
(7.5882 1.46172 0)
(7.49082 1.49545 0)
(7.39086 1.52941 0)
(7.28826 1.56357 0)
(7.183 1.59789 0)
(7.075 1.63233 0)
(6.96423 1.66683 0)
(6.85061 1.70132 0)
(6.73408 1.73573 0)
(6.61457 1.76997 0)
(6.49198 1.80396 0)
(6.36621 1.8376 0)
(6.23712 1.87076 0)
(6.10453 1.9033 0)
(5.96825 1.93504 0)
(5.828 1.96586 0)
(5.68349 1.996 0)
(5.53431 2.02626 0)
(5.37987 2.05802 0)
(5.21937 2.09271 0)
(5.05185 2.13071 0)
(4.87649 2.17053 0)
(4.69307 2.20887 0)
(4.50234 2.24213 0)
(4.30586 2.26819 0)
(4.10536 2.28739 0)
(3.90208 2.3019 0)
(3.69643 2.31424 0)
(3.48834 2.32606 0)
(3.2777 2.33809 0)
(3.06474 2.35076 0)
(2.85011 2.36483 0)
(2.6347 2.38166 0)
(2.41959 2.40312 0)
(2.20594 2.43158 0)
(1.99484 2.46971 0)
(1.78713 2.52035 0)
(1.58314 2.58596 0)
(1.38236 2.66774 0)
(1.18311 2.76447 0)
(0.98284 2.87116 0)
(0.777345 2.97862 0)
(0.565472 3.07402 0)
(0.338484 3.14622 0)
(0.119462 3.15585 0)