# vtk DataFile Version 2.0
sampleSurface
ASCII
DATASET POLYDATA
POINTS 652 double
0 0 0
0.02 0 0
0.02 0 0.1
0 0 0.1
0.04 0 0
0.04 0 0.1
0.06 0 0
0.06 0 0.1
0.08 0 0
0.08 0 0.1
0.1 0 0
0.1 0 0.1
0.12 0 0
0.12 0 0.1
0.14 0 0
0.14 0 0.1
0.16 0 0
0.16 0 0.1
0.18 0 0
0.18 0 0.1
0.2 0 0
0.2 0 0.1
0.22 0 0
0.22 0 0.1
0.24 0 0
0.24 0 0.1
0.26 0 0
0.26 0 0.1
0.28 0 0
0.28 0 0.1
0.3 0 0
0.3 0 0.1
0.32 0 0
0.32 0 0.1
0.34 0 0
0.34 0 0.1
0.36 0 0
0.36 0 0.1
0.38 0 0
0.38 0 0.1
0.4 0 0
0.4 0 0.1
0.42 0 0
0.42 0 0.1
0.44 0 0
0.44 0 0.1
0.46 0 0
0.46 0 0.1
0.48 0 0
0.48 0 0.1
0.5 0 0
0.5 0 0.1
0.52 0 0
0.52 0 0.1
0.54 0 0
0.54 0 0.1
0.56 0 0
0.56 0 0.1
0.58 0 0
0.58 0 0.1
0.6 0 0
0.6 0 0.1
0.62 0 0
0.62 0 0.1
0.64 0 0
0.64 0 0.1
0.66 0 0
0.66 0 0.1
0.68 0 0
0.68 0 0.1
0.7 0 0
0.7 0 0.1
0.72 0 0
0.72 0 0.1
0.74 0 0
0.74 0 0.1
0.76 0 0
0.76 0 0.1
0.78 0 0
0.78 0 0.1
0.8 0 0
0.8 0 0.1
0.82 0 0
0.82 0 0.1
0.84 0 0
0.84 0 0.1
0.86 0 0
0.86 0 0.1
0.88 0 0
0.88 0 0.1
0.9 0 0
0.9 0 0.1
0.92 0 0
0.92 0 0.1
0.94 0 0
0.94 0 0.1
0.96 0 0
0.96 0 0.1
0.98 0 0
0.98 0 0.1
1 0 0
1 0 0.1
1.02 0 0
1.02 0 0.1
1.04 0 0
1.04 0 0.1
1.06 0 0
1.06 0 0.1
1.08 0 0
1.08 0 0.1
1.1 0 0
1.1 0 0.1
1.12 0 0
1.12 0 0.1
1.14 0 0
1.14 0 0.1
1.16 0 0
1.16 0 0.1
1.18 0 0
1.18 0 0.1
1.2 0 0
1.2 0 0.1
1.22 0 0
1.22 0 0.1
1.24 0 0
1.24 0 0.1
1.26 0 0
1.26 0 0.1
1.28 0 0
1.28 0 0.1
1.3 0 0
1.3 0 0.1
1.32 0 0
1.32 0 0.1
1.34 0 0
1.34 0 0.1
1.36 0 0
1.36 0 0.1
1.38 0 0
1.38 0 0.1
1.4 0 0
1.4 0 0.1
1.42 0 0
1.42 0 0.1
1.44 0 0
1.44 0 0.1
1.46 0 0
1.46 0 0.1
1.48 0 0
1.48 0 0.1
1.5 0 0
1.5 0 0.1
1.52 0 0
1.52 0 0.1
1.54 0 0
1.54 0 0.1
1.56 0 0
1.56 0 0.1
1.58 0 0
1.58 0 0.1
1.6 0 0
1.6 0 0.1
1.62 0 0
1.62 0 0.1
1.64 0 0
1.64 0 0.1
1.66 0 0
1.66 0 0.1
1.68 0 0
1.68 0 0.1
1.7 0 0
1.7 0 0.1
1.72 0 0
1.72 0 0.1
1.74 0 0
1.74 0 0.1
1.76 0 0
1.76 0 0.1
1.78 0 0
1.78 0 0.1
1.8 0 0
1.8 0 0.1
1.82 0 0
1.82 0 0.1
1.84 0 0
1.84 0 0.1
1.86 0 0
1.86 0 0.1
1.88 0 0
1.88 0 0.1
1.9 0 0
1.9 0 0.1
1.92 0 0
1.92 0 0.1
1.94 0 0
1.94 0 0.1
1.96 0 0
1.96 0 0.1
1.98 0 0
1.98 0 0.1
2 0 0
2 0 0.1
2 0.02 0
2 0.02 0.1
2 0.04 0
2 0.04 0.1
2 0.06 0
2 0.06 0.1
2 0.08 0
2 0.08 0.1
2 0.1 0
2 0.1 0.1
2 0.12 0
2 0.12 0.1
2 0.14 0
2 0.14 0.1
2 0.16 0
2 0.16 0.1
2 0.18 0
2 0.18 0.1
2 0.2 0
2 0.2 0.1
2 0.22 0
2 0.22 0.1
2 0.24 0
2 0.24 0.1
2 0.26 0
2 0.26 0.1
2 0.28 0
2 0.28 0.1
2 0.3 0
2 0.3 0.1
2 0.32 0
2 0.32 0.1
2 0.34 0
2 0.34 0.1
2 0.36 0
2 0.36 0.1
2 0.38 0
2 0.38 0.1
2 0.4 0
2 0.4 0.1
2 0.42 0
2 0.42 0.1
2 0.44 0
2 0.44 0.1
2 0.46 0
2 0.46 0.1
2 0.48 0
2 0.48 0.1
2 0.5 0
2 0.5 0.1
2 0.52 0
2 0.52 0.1
2 0.54 0
2 0.54 0.1
2 0.56 0
2 0.56 0.1
2 0.58 0
2 0.58 0.1
2 0.6 0
2 0.6 0.1
2 0.62 0
2 0.62 0.1
2 0.64 0
2 0.64 0.1
2 0.66 0
2 0.66 0.1
2 0.68 0
2 0.68 0.1
2 0.7 0
2 0.7 0.1
2 0.72 0
2 0.72 0.1
2 0.74 0
2 0.74 0.1
2 0.76 0
2 0.76 0.1
2 0.78 0
2 0.78 0.1
2 0.8 0
2 0.8 0.1
2 0.82 0
2 0.82 0.1
2 0.84 0
2 0.84 0.1
2 0.86 0
2 0.86 0.1
2 0.88 0
2 0.88 0.1
2 0.9 0
2 0.9 0.1
2 0.92 0
2 0.92 0.1
2 0.94 0
2 0.94 0.1
2 0.96 0
2 0.96 0.1
2 0.98 0
2 0.98 0.1
2 1 0
2 1 0.1
2.02 1 0
2.02 1 0.1
2.04 1 0
2.04 1 0.1
2.06 1 0
2.06 1 0.1
2.08 1 0
2.08 1 0.1
2.1 1 0
2.1 1 0.1
2.12 1 0
2.12 1 0.1
2.14 1 0
2.14 1 0.1
2.16 1 0
2.16 1 0.1
2.18 1 0
2.18 1 0.1
2.2 1 0
2.2 1 0.1
2.22 1 0
2.22 1 0.1
2.24 1 0
2.24 1 0.1
2.26 1 0
2.26 1 0.1
2.28 1 0
2.28 1 0.1
2.3 1 0
2.3 1 0.1
2.32 1 0
2.32 1 0.1
2.34 1 0
2.34 1 0.1
2.36 1 0
2.36 1 0.1
2.38 1 0
2.38 1 0.1
2.4 1 0
2.4 1 0.1
2.42 1 0
2.42 1 0.1
2.44 1 0
2.44 1 0.1
2.46 1 0
2.46 1 0.1
2.48 1 0
2.48 1 0.1
2.5 1 0
2.5 1 0.1
2.5 0 0
2.5 0 0.1
2.5 0.02 0.1
2.5 0.02 0
2.5 0.04 0.1
2.5 0.04 0
2.5 0.06 0.1
2.5 0.06 0
2.5 0.08 0.1
2.5 0.08 0
2.5 0.1 0.1
2.5 0.1 0
2.5 0.12 0.1
2.5 0.12 0
2.5 0.14 0.1
2.5 0.14 0
2.5 0.16 0.1
2.5 0.16 0
2.5 0.18 0.1
2.5 0.18 0
2.5 0.2 0.1
2.5 0.2 0
2.5 0.22 0.1
2.5 0.22 0
2.5 0.24 0.1
2.5 0.24 0
2.5 0.26 0.1
2.5 0.26 0
2.5 0.28 0.1
2.5 0.28 0
2.5 0.3 0.1
2.5 0.3 0
2.5 0.32 0.1
2.5 0.32 0
2.5 0.34 0.1
2.5 0.34 0
2.5 0.36 0.1
2.5 0.36 0
2.5 0.38 0.1
2.5 0.38 0
2.5 0.4 0.1
2.5 0.4 0
2.5 0.42 0.1
2.5 0.42 0
2.5 0.44 0.1
2.5 0.44 0
2.5 0.46 0.1
2.5 0.46 0
2.5 0.48 0.1
2.5 0.48 0
2.5 0.5 0.1
2.5 0.5 0
2.5 0.52 0.1
2.5 0.52 0
2.5 0.54 0.1
2.5 0.54 0
2.5 0.56 0.1
2.5 0.56 0
2.5 0.58 0.1
2.5 0.58 0
2.5 0.6 0.1
2.5 0.6 0
2.5 0.62 0.1
2.5 0.62 0
2.5 0.64 0.1
2.5 0.64 0
2.5 0.66 0.1
2.5 0.66 0
2.5 0.68 0.1
2.5 0.68 0
2.5 0.7 0.1
2.5 0.7 0
2.5 0.72 0.1
2.5 0.72 0
2.5 0.74 0.1
2.5 0.74 0
2.5 0.76 0.1
2.5 0.76 0
2.5 0.78 0.1
2.5 0.78 0
2.5 0.8 0.1
2.5 0.8 0
2.5 0.82 0.1
2.5 0.82 0
2.5 0.84 0.1
2.5 0.84 0
2.5 0.86 0.1
2.5 0.86 0
2.5 0.88 0.1
2.5 0.88 0
2.5 0.9 0.1
2.5 0.9 0
2.5 0.92 0.1
2.5 0.92 0
2.5 0.94 0.1
2.5 0.94 0
2.5 0.96 0.1
2.5 0.96 0
2.5 0.98 0.1
2.5 0.98 0
2.52 0 0
2.52 0 0.1
2.54 0 0
2.54 0 0.1
2.56 0 0
2.56 0 0.1
2.58 0 0
2.58 0 0.1
2.6 0 0
2.6 0 0.1
2.62 0 0
2.62 0 0.1
2.64 0 0
2.64 0 0.1
2.66 0 0
2.66 0 0.1
2.68 0 0
2.68 0 0.1
2.7 0 0
2.7 0 0.1
2.72 0 0
2.72 0 0.1
2.74 0 0
2.74 0 0.1
2.76 0 0
2.76 0 0.1
2.78 0 0
2.78 0 0.1
2.8 0 0
2.8 0 0.1
2.82 0 0
2.82 0 0.1
2.84 0 0
2.84 0 0.1
2.86 0 0
2.86 0 0.1
2.88 0 0
2.88 0 0.1
2.9 0 0
2.9 0 0.1
2.92 0 0
2.92 0 0.1
2.94 0 0
2.94 0 0.1
2.96 0 0
2.96 0 0.1
2.98 0 0
2.98 0 0.1
3 0 0
3 0 0.1
3.02 0 0
3.02 0 0.1
3.04 0 0
3.04 0 0.1
3.06 0 0
3.06 0 0.1
3.08 0 0
3.08 0 0.1
3.1 0 0
3.1 0 0.1
3.12 0 0
3.12 0 0.1
3.14 0 0
3.14 0 0.1
3.16 0 0
3.16 0 0.1
3.18 0 0
3.18 0 0.1
3.2 0 0
3.2 0 0.1
3.22 0 0
3.22 0 0.1
3.24 0 0
3.24 0 0.1
3.26 0 0
3.26 0 0.1
3.28 0 0
3.28 0 0.1
3.3 0 0
3.3 0 0.1
3.32 0 0
3.32 0 0.1
3.34 0 0
3.34 0 0.1
3.36 0 0
3.36 0 0.1
3.38 0 0
3.38 0 0.1
3.4 0 0
3.4 0 0.1
3.42 0 0
3.42 0 0.1
3.44 0 0
3.44 0 0.1
3.46 0 0
3.46 0 0.1
3.48 0 0
3.48 0 0.1
3.5 0 0
3.5 0 0.1
3.52 0 0
3.52 0 0.1
3.54 0 0
3.54 0 0.1
3.56 0 0
3.56 0 0.1
3.58 0 0
3.58 0 0.1
3.6 0 0
3.6 0 0.1
3.62 0 0
3.62 0 0.1
3.64 0 0
3.64 0 0.1
3.66 0 0
3.66 0 0.1
3.68 0 0
3.68 0 0.1
3.7 0 0
3.7 0 0.1
3.72 0 0
3.72 0 0.1
3.74 0 0
3.74 0 0.1
3.76 0 0
3.76 0 0.1
3.78 0 0
3.78 0 0.1
3.8 0 0
3.8 0 0.1
3.82 0 0
3.82 0 0.1
3.84 0 0
3.84 0 0.1
3.86 0 0
3.86 0 0.1
3.88 0 0
3.88 0 0.1
3.9 0 0
3.9 0 0.1
3.92 0 0
3.92 0 0.1
3.94 0 0
3.94 0 0.1
3.96 0 0
3.96 0 0.1
3.98 0 0
3.98 0 0.1
4 0 0
4 0 0.1
4.02 0 0
4.02 0 0.1
4.04 0 0
4.04 0 0.1
4.06 0 0
4.06 0 0.1
4.08 0 0
4.08 0 0.1
4.1 0 0
4.1 0 0.1
4.12 0 0
4.12 0 0.1
4.14 0 0
4.14 0 0.1
4.16 0 0
4.16 0 0.1
4.18 0 0
4.18 0 0.1
4.2 0 0
4.2 0 0.1
4.22 0 0
4.22 0 0.1
4.24 0 0
4.24 0 0.1
4.26 0 0
4.26 0 0.1
4.28 0 0
4.28 0 0.1
4.3 0 0
4.3 0 0.1
4.32 0 0
4.32 0 0.1
4.34 0 0
4.34 0 0.1
4.36 0 0
4.36 0 0.1
4.38 0 0
4.38 0 0.1
4.4 0 0
4.4 0 0.1
4.42 0 0
4.42 0 0.1
4.44 0 0
4.44 0 0.1
4.46 0 0
4.46 0 0.1
4.48 0 0
4.48 0 0.1
4.5 0 0
4.5 0 0.1

POLYGONS 325 1625
4 0 1 2 3
4 1 4 5 2
4 4 6 7 5
4 6 8 9 7
4 8 10 11 9
4 10 12 13 11
4 12 14 15 13
4 14 16 17 15
4 16 18 19 17
4 18 20 21 19
4 20 22 23 21
4 22 24 25 23
4 24 26 27 25
4 26 28 29 27
4 28 30 31 29
4 30 32 33 31
4 32 34 35 33
4 34 36 37 35
4 36 38 39 37
4 38 40 41 39
4 40 42 43 41
4 42 44 45 43
4 44 46 47 45
4 46 48 49 47
4 48 50 51 49
4 50 52 53 51
4 52 54 55 53
4 54 56 57 55
4 56 58 59 57
4 58 60 61 59
4 60 62 63 61
4 62 64 65 63
4 64 66 67 65
4 66 68 69 67
4 68 70 71 69
4 70 72 73 71
4 72 74 75 73
4 74 76 77 75
4 76 78 79 77
4 78 80 81 79
4 80 82 83 81
4 82 84 85 83
4 84 86 87 85
4 86 88 89 87
4 88 90 91 89
4 90 92 93 91
4 92 94 95 93
4 94 96 97 95
4 96 98 99 97
4 98 100 101 99
4 100 102 103 101
4 102 104 105 103
4 104 106 107 105
4 106 108 109 107
4 108 110 111 109
4 110 112 113 111
4 112 114 115 113
4 114 116 117 115
4 116 118 119 117
4 118 120 121 119
4 120 122 123 121
4 122 124 125 123
4 124 126 127 125
4 126 128 129 127
4 128 130 131 129
4 130 132 133 131
4 132 134 135 133
4 134 136 137 135
4 136 138 139 137
4 138 140 141 139
4 140 142 143 141
4 142 144 145 143
4 144 146 147 145
4 146 148 149 147
4 148 150 151 149
4 150 152 153 151
4 152 154 155 153
4 154 156 157 155
4 156 158 159 157
4 158 160 161 159
4 160 162 163 161
4 162 164 165 163
4 164 166 167 165
4 166 168 169 167
4 168 170 171 169
4 170 172 173 171
4 172 174 175 173
4 174 176 177 175
4 176 178 179 177
4 178 180 181 179
4 180 182 183 181
4 182 184 185 183
4 184 186 187 185
4 186 188 189 187
4 188 190 191 189
4 190 192 193 191
4 192 194 195 193
4 194 196 197 195
4 196 198 199 197
4 198 200 201 199
4 200 202 203 201
4 202 204 205 203
4 204 206 207 205
4 206 208 209 207
4 208 210 211 209
4 210 212 213 211
4 212 214 215 213
4 214 216 217 215
4 216 218 219 217
4 218 220 221 219
4 220 222 223 221
4 222 224 225 223
4 224 226 227 225
4 226 228 229 227
4 228 230 231 229
4 230 232 233 231
4 232 234 235 233
4 234 236 237 235
4 236 238 239 237
4 238 240 241 239
4 240 242 243 241
4 242 244 245 243
4 244 246 247 245
4 246 248 249 247
4 248 250 251 249
4 250 252 253 251
4 252 254 255 253
4 254 256 257 255
4 256 258 259 257
4 258 260 261 259
4 260 262 263 261
4 262 264 265 263
4 264 266 267 265
4 266 268 269 267
4 268 270 271 269
4 270 272 273 271
4 272 274 275 273
4 274 276 277 275
4 276 278 279 277
4 278 280 281 279
4 280 282 283 281
4 282 284 285 283
4 284 286 287 285
4 286 288 289 287
4 288 290 291 289
4 290 292 293 291
4 292 294 295 293
4 294 296 297 295
4 296 298 299 297
4 298 300 301 299
4 300 302 303 301
4 302 304 305 303
4 304 306 307 305
4 306 308 309 307
4 308 310 311 309
4 310 312 313 311
4 312 314 315 313
4 314 316 317 315
4 316 318 319 317
4 318 320 321 319
4 320 322 323 321
4 322 324 325 323
4 324 326 327 325
4 326 328 329 327
4 328 330 331 329
4 330 332 333 331
4 332 334 335 333
4 334 336 337 335
4 336 338 339 337
4 338 340 341 339
4 340 342 343 341
4 342 344 345 343
4 344 346 347 345
4 346 348 349 347
4 348 350 351 349
4 352 353 354 355
4 355 354 356 357
4 357 356 358 359
4 359 358 360 361
4 361 360 362 363
4 363 362 364 365
4 365 364 366 367
4 367 366 368 369
4 369 368 370 371
4 371 370 372 373
4 373 372 374 375
4 375 374 376 377
4 377 376 378 379
4 379 378 380 381
4 381 380 382 383
4 383 382 384 385
4 385 384 386 387
4 387 386 388 389
4 389 388 390 391
4 391 390 392 393
4 393 392 394 395
4 395 394 396 397
4 397 396 398 399
4 399 398 400 401
4 401 400 402 403
4 403 402 404 405
4 405 404 406 407
4 407 406 408 409
4 409 408 410 411
4 411 410 412 413
4 413 412 414 415
4 415 414 416 417
4 417 416 418 419
4 419 418 420 421
4 421 420 422 423
4 423 422 424 425
4 425 424 426 427
4 427 426 428 429
4 429 428 430 431
4 431 430 432 433
4 433 432 434 435
4 435 434 436 437
4 437 436 438 439
4 439 438 440 441
4 441 440 442 443
4 443 442 444 445
4 445 444 446 447
4 447 446 448 449
4 449 448 450 451
4 451 450 351 350
4 352 452 453 353
4 452 454 455 453
4 454 456 457 455
4 456 458 459 457
4 458 460 461 459
4 460 462 463 461
4 462 464 465 463
4 464 466 467 465
4 466 468 469 467
4 468 470 471 469
4 470 472 473 471
4 472 474 475 473
4 474 476 477 475
4 476 478 479 477
4 478 480 481 479
4 480 482 483 481
4 482 484 485 483
4 484 486 487 485
4 486 488 489 487
4 488 490 491 489
4 490 492 493 491
4 492 494 495 493
4 494 496 497 495
4 496 498 499 497
4 498 500 501 499
4 500 502 503 501
4 502 504 505 503
4 504 506 507 505
4 506 508 509 507
4 508 510 511 509
4 510 512 513 511
4 512 514 515 513
4 514 516 517 515
4 516 518 519 517
4 518 520 521 519
4 520 522 523 521
4 522 524 525 523
4 524 526 527 525
4 526 528 529 527
4 528 530 531 529
4 530 532 533 531
4 532 534 535 533
4 534 536 537 535
4 536 538 539 537
4 538 540 541 539
4 540 542 543 541
4 542 544 545 543
4 544 546 547 545
4 546 548 549 547
4 548 550 551 549
4 550 552 553 551
4 552 554 555 553
4 554 556 557 555
4 556 558 559 557
4 558 560 561 559
4 560 562 563 561
4 562 564 565 563
4 564 566 567 565
4 566 568 569 567
4 568 570 571 569
4 570 572 573 571
4 572 574 575 573
4 574 576 577 575
4 576 578 579 577
4 578 580 581 579
4 580 582 583 581
4 582 584 585 583
4 584 586 587 585
4 586 588 589 587
4 588 590 591 589
4 590 592 593 591
4 592 594 595 593
4 594 596 597 595
4 596 598 599 597
4 598 600 601 599
4 600 602 603 601
4 602 604 605 603
4 604 606 607 605
4 606 608 609 607
4 608 610 611 609
4 610 612 613 611
4 612 614 615 613
4 614 616 617 615
4 616 618 619 617
4 618 620 621 619
4 620 622 623 621
4 622 624 625 623
4 624 626 627 625
4 626 628 629 627
4 628 630 631 629
4 630 632 633 631
4 632 634 635 633
4 634 636 637 635
4 636 638 639 637
4 638 640 641 639
4 640 642 643 641
4 642 644 645 643
4 644 646 647 645
4 646 648 649 647
4 648 650 651 649
POINT_DATA 652
FIELD attributes 1
U 3 652 float
2.54864 -0.0170181 0.0398246
1.27483 -0.00850251 0.0199123
1.27483 -0.00850251 0.0199123
2.54864 -0.0170181 0.0398246
0.00101069 1.04715e-05 0
0.00101069 1.04715e-05 0
0.00100648 5.45669e-06 0
0.00100648 5.45669e-06 0
0.00100496 2.1858e-06 0
0.00100496 2.1858e-06 0
0.0010047 1.95426e-06 0
0.0010047 1.95426e-06 0
0.00100324 3.51407e-06 0
0.00100324 3.51407e-06 0
0.00100051 4.69246e-06 0
0.00100051 4.69246e-06 0
0.000997217 4.10251e-06 0
0.000997217 4.10251e-06 0
0.000993994 1.74483e-06 0
0.000993994 1.74483e-06 0
0.000991659 -1.20547e-06 0
0.000991659 -1.20547e-06 0
0.000990652 -3.00215e-06 0
0.000990652 -3.00215e-06 0
0.000990253 -2.41022e-06 0
0.000990253 -2.41022e-06 0
0.000988912 2.60693e-07 0
0.000988912 2.60693e-07 0
0.000985482 3.31042e-06 0
0.000985482 3.31042e-06 0
0.000980095 4.96052e-06 0
0.000980095 4.96052e-06 0
0.00097396 4.55612e-06 0
0.00097396 4.55612e-06 0
0.000968438 2.7939e-06 0
0.000968438 2.7939e-06 0
0.000964328 1.04107e-06 0
0.000964328 1.04107e-06 0
0.000961727 3.87168e-07 0
0.000961727 3.87168e-07 0
0.000960181 1.10907e-06 0
0.000960181 1.10907e-06 0
0.000958853 2.67621e-06 0
0.000958853 2.67621e-06 0
0.000956761 4.09244e-06 0
0.000956761 4.09244e-06 0
0.000953217 4.45894e-06 0
0.000953217 4.45894e-06 0
0.000948281 3.55448e-06 0
0.000948281 3.55448e-06 0
0.000942781 2.02199e-06 0
0.000942781 2.02199e-06 0
0.000937674 9.6365e-07 0
0.000937674 9.6365e-07 0
0.000933272 1.18712e-06 0
0.000933272 1.18712e-06 0
0.00092903 2.5989e-06 0
0.00092903 2.5989e-06 0
0.000924092 4.25353e-06 0
0.000924092 4.25353e-06 0
0.000918069 5.1088e-06 0
0.000918069 5.1088e-06 0
0.000911288 4.83215e-06 0
0.000911288 4.83215e-06 0
0.00090434 3.9358e-06 0
0.00090434 3.9358e-06 0
0.000897497 3.15954e-06 0
0.000897497 3.15954e-06 0
0.000890632 2.75739e-06 0
0.000890632 2.75739e-06 0
0.000883609 2.42058e-06 0
0.000883609 2.42058e-06 0
0.000876568 1.86368e-06 0
0.000876568 1.86368e-06 0
0.000869744 1.36317e-06 0
0.000869744 1.36317e-06 0
0.000863073 1.57962e-06 0
0.000863073 1.57962e-06 0
0.000856135 2.82426e-06 0
0.000856135 2.82426e-06 0
0.000848542 4.60381e-06 0
0.000848542 4.60381e-06 0
0.000840358 5.98938e-06 0
0.000840358 5.98938e-06 0
0.000832002 6.46503e-06 0
0.000832002 6.46503e-06 0
0.000823713 6.38342e-06 0
0.000823713 6.38342e-06 0
0.000815151 6.55301e-06 0
0.000815151 6.55301e-06 0
0.000805634 7.38718e-06 0
0.000805634 7.38718e-06 0
0.000794814 8.48862e-06 0
0.000794814 8.48862e-06 0
0.000783119 9.08411e-06 0
0.000783119 9.08411e-06 0
0.000771448 8.86703e-06 0
0.000771448 8.86703e-06 0
0.000760356 8.39208e-06 0
0.000760356 8.39208e-06 0
0.000749441 8.62041e-06 0
0.000749441 8.62041e-06 0
0.000737458 1.00534e-05 0
0.000737458 1.00534e-05 0
0.000723118 1.22455e-05 0
0.000723118 1.22455e-05 0
0.000705964 1.41098e-05 0
0.000705964 1.41098e-05 0
0.000686679 1.47198e-05 0
0.000686679 1.47198e-05 0
0.000666646 1.39017e-05 0
0.000666646 1.39017e-05 0
0.000647187 1.21911e-05 0
0.000647187 1.21911e-05 0
0.000629057 1.03489e-05 0
0.000629057 1.03489e-05 0
0.000612366 8.91422e-06 0
0.000612366 8.91422e-06 0
0.000596799 8.06168e-06 0
0.000596799 8.06168e-06 0
0.000581885 7.70292e-06 0
0.000581885 7.70292e-06 0
0.000567202 7.65406e-06 0
0.000567202 7.65406e-06 0
0.000552456 7.75348e-06 0
0.000552456 7.75348e-06 0
0.000537484 7.90309e-06 0
0.000537484 7.90309e-06 0
0.000522218 8.05957e-06 0
0.000522218 8.05957e-06 0
0.000506636 8.21025e-06 0
0.000506636 8.21025e-06 0
0.000490741 8.35342e-06 0
0.000490741 8.35342e-06 0
0.00047454 8.48896e-06 0
0.00047454 8.48896e-06 0
0.000458043 8.61618e-06 0
0.000458043 8.61618e-06 0
0.000441261 8.73339e-06 0
0.000441261 8.73339e-06 0
0.000424204 8.83793e-06 0
0.000424204 8.83793e-06 0
0.000406886 8.92633e-06 0
0.000406886 8.92633e-06 0
0.000389327 8.99493e-06 0
0.000389327 8.99493e-06 0
0.000371547 9.04041e-06 0
0.000371547 9.04041e-06 0
0.000353572 9.05876e-06 0
0.000353572 9.05876e-06 0
0.000335435 9.04534e-06 0
0.000335435 9.04534e-06 0
0.000317174 8.99601e-06 0
0.000317174 8.99601e-06 0
0.000298832 8.90641e-06 0
0.000298832 8.90641e-06 0
0.000280459 8.77141e-06 0
0.000280459 8.77141e-06 0
0.000262115 8.58601e-06 0
0.000262115 8.58601e-06 0
0.000243865 8.3458e-06 0
0.000243865 8.3458e-06 0
0.000225781 8.04717e-06 0
0.000225781 8.04717e-06 0
0.000207942 7.68764e-06 0
0.000207942 7.68764e-06 0
0.000190432 7.26577e-06 0
0.000190432 7.26577e-06 0
0.00017334 6.78151e-06 0
0.00017334 6.78151e-06 0
0.000156755 6.23724e-06 0
0.000156755 6.23724e-06 0
0.000140765 5.63774e-06 0
0.000140765 5.63774e-06 0
0.000125456 4.99021e-06 0
0.000125456 4.99021e-06 0
0.000110903 4.3044e-06 0
0.000110903 4.3044e-06 0
9.71745e-05 3.59245e-06 0
9.71745e-05 3.59245e-06 0
8.43213e-05 2.86887e-06 0
8.43213e-05 2.86887e-06 0
7.2377e-05 2.14996e-06 0
7.2377e-05 2.14996e-06 0
6.13549e-05 1.45281e-06 0
6.13549e-05 1.45281e-06 0
5.12448e-05 7.94475e-07 0
5.12448e-05 7.94475e-07 0
4.20118e-05 1.91647e-07 0
4.20118e-05 1.91647e-07 0
3.35952e-05 -3.4078e-07 0
3.35952e-05 -3.4078e-07 0
2.59102e-05 -7.90467e-07 0
2.59102e-05 -7.90467e-07 0
1.88447e-05 -1.14995e-06 0
1.88447e-05 -1.14995e-06 0
1.22741e-05 -1.42125e-06 0
1.22741e-05 -1.42125e-06 0
6.04558e-06 -1.58244e-06 0
6.04558e-06 -1.58244e-06 0
2.99356e-06 -1.62908e-06 0
2.99356e-06 -1.62908e-06 0
6.71343e-06 6.1208e-06 0
6.71343e-06 6.1208e-06 0
1.15676e-05 2.69464e-05 0
1.15676e-05 2.69464e-05 0
1.26522e-05 5.25539e-05 0
1.26522e-05 5.25539e-05 0
1.22215e-05 7.75337e-05 0
1.22215e-05 7.75337e-05 0
1.14641e-05 0.000101382 0
1.14641e-05 0.000101382 0
1.08231e-05 0.000123571 0
1.08231e-05 0.000123571 0
1.04108e-05 0.000144779 0
1.04108e-05 0.000144779 0
1.02053e-05 0.000165426 0
1.02053e-05 0.000165426 0
1.01485e-05 0.000185826 0
1.01485e-05 0.000185826 0
1.01847e-05 0.00020621 0
1.01847e-05 0.00020621 0
1.02742e-05 0.000226731 0
1.02742e-05 0.000226731 0
1.03921e-05 0.000247467 0
1.03921e-05 0.000247467 0
1.05247e-05 0.000268456 0
1.05247e-05 0.000268456 0
1.06658e-05 0.000289719 0
1.06658e-05 0.000289719 0
1.08132e-05 0.000311269 0
1.08132e-05 0.000311269 0
1.09676e-05 0.000333119 0
1.09676e-05 0.000333119 0
1.11303e-05 0.000355285 0
1.11303e-05 0.000355285 0
1.1303e-05 0.000377784 0
1.1303e-05 0.000377784 0
1.14873e-05 0.000400638 0
1.14873e-05 0.000400638 0
1.16853e-05 0.000423872 0
1.16853e-05 0.000423872 0
1.18988e-05 0.000447517 0
1.18988e-05 0.000447517 0
1.21304e-05 0.000471605 0
1.21304e-05 0.000471605 0
1.23815e-05 0.000496174 0
1.23815e-05 0.000496174 0
1.2655e-05 0.000521265 0
1.2655e-05 0.000521265 0
1.29526e-05 0.000546925 0
1.29526e-05 0.000546925 0
1.32786e-05 0.000573207 0
1.32786e-05 0.000573207 0
1.36343e-05 0.000600166 0
1.36343e-05 0.000600166 0
1.40278e-05 0.000627874 0
1.40278e-05 0.000627874 0
1.44558e-05 0.000656395 0
1.44558e-05 0.000656395 0
1.49377e-05 0.00068583 0
1.49377e-05 0.00068583 0
1.54577e-05 0.000716249 0
1.54577e-05 0.000716249 0
1.60604e-05 0.000747804 0
1.60604e-05 0.000747804 0
1.66964e-05 0.000780564 0
1.66964e-05 0.000780564 0
1.74724e-05 0.000814765 0
1.74724e-05 0.000814765 0
1.82559e-05 0.000850461 0
1.82559e-05 0.000850461 0
1.9295e-05 0.000888039 0
1.9295e-05 0.000888039 0
2.02653e-05 0.000927504 0
2.02653e-05 0.000927504 0
2.17344e-05 0.000969517 0
2.17344e-05 0.000969517 0
2.29256e-05 0.00101397 0
2.29256e-05 0.00101397 0
2.51673e-05 0.00106204 0
2.51673e-05 0.00106204 0
2.65971e-05 0.00111338 0
2.65971e-05 0.00111338 0
3.03308e-05 0.00117016 0
3.03308e-05 0.00117016 0
3.19898e-05 0.00123159 0
3.19898e-05 0.00123159 0
3.90212e-05 0.00130199 0
3.90212e-05 0.00130199 0
4.08437e-05 0.00137997 0
4.08437e-05 0.00137997 0
5.65917e-05 0.00147443 0
5.65917e-05 0.00147443 0
6.05593e-05 0.00158596 0
6.05593e-05 0.00158596 0
0.000104507 0.00173166 0
0.000104507 0.00173166 0
0.000127708 0.00192523 0
0.000127708 0.00192523 0
8.54477e-05 0.00118226 0
8.54477e-05 0.00118226 0
-0.000386173 0.000174771 0
-0.000386173 0.000174771 0
-0.000666219 -4.43225e-05 0
-0.000666219 -4.43225e-05 0
-0.000671978 -0.00018711 0
-0.000671978 -0.00018711 0
-0.000484464 -0.000367028 0
-0.000484464 -0.000367028 0
0.000127049 -0.000438679 0
0.000127049 -0.000438679 0
0.000779993 -0.000369408 0
0.000779993 -0.000369408 0
0.00136708 -0.000230766 0
0.00136708 -0.000230766 0
0.00159132 -6.5704e-05 0
0.00159132 -6.5704e-05 0
0.00155647 5.44285e-05 0
0.00155647 5.44285e-05 0
0.00123833 0.000160151 0
0.00123833 0.000160151 0
0.000885173 9.92688e-05 0
0.000885173 9.92688e-05 0
0.000718432 -4.5878e-05 0
0.000718432 -4.5878e-05 0
0.000411397 0.000167537 0
0.000411397 0.000167537 0
-0.000262733 0.000490924 0
-0.000262733 0.000490924 0
-0.000979514 0.000545798 0
-0.000979514 0.000545798 0
-0.00155142 0.000481412 0
-0.00155142 0.000481412 0
-0.00198547 0.000405873 0
-0.00198547 0.000405873 0
-0.00227029 0.00033108 0
-0.00227029 0.00033108 0
-0.00242365 0.000271199 0
-0.00242365 0.000271199 0
-0.002475 0.000235021 0
-0.002475 0.000235021 0
-0.00246569 0.000245127 0
-0.00246569 0.000245127 0
-0.00240605 0.000342096 0
-0.00240605 0.000342096 0
-0.00229542 0.000539245 0
-0.00229542 0.000539245 0
-0.00268426 0.000780034 0
-0.00268426 0.000780034 0
-0.00174744 0.00150554 0
-0.00174744 0.00150554 0
-8.63421e-06 7.71524e-06 0
-8.63421e-06 7.71524e-06 0
-9.04363e-06 1.6378e-05 0
-9.04363e-06 1.6378e-05 0
-9.33791e-06 3.40328e-05 0
-9.33791e-06 3.40328e-05 0
-9.18838e-06 5.1578e-05 0
-9.18838e-06 5.1578e-05 0
-9.16258e-06 6.87999e-05 0
-9.16258e-06 6.87999e-05 0
-9.19019e-06 8.61846e-05 0
-9.19019e-06 8.61846e-05 0
-9.23e-06 0.000103668 0
-9.23e-06 0.000103668 0
-9.27086e-06 0.000121264 0
-9.27086e-06 0.000121264 0
-9.30885e-06 0.000138984 0
-9.30885e-06 0.000138984 0
-9.34072e-06 0.000156825 0
-9.34072e-06 0.000156825 0
-9.36198e-06 0.000174774 0
-9.36198e-06 0.000174774 0
-9.36724e-06 0.000192807 0
-9.36724e-06 0.000192807 0
-9.35057e-06 0.000210892 0
-9.35057e-06 0.000210892 0
-9.30553e-06 0.000228981 0
-9.30553e-06 0.000228981 0
-9.22413e-06 0.000247013 0
-9.22413e-06 0.000247013 0
-9.09887e-06 0.000264907 0
-9.09887e-06 0.000264907 0
-8.92078e-06 0.00028257 0
-8.92078e-06 0.00028257 0
-8.67973e-06 0.000299885 0
-8.67973e-06 0.000299885 0
-8.36741e-06 0.00031672 0
-8.36741e-06 0.00031672 0
-7.97456e-06 0.000332923 0
-7.97456e-06 0.000332923 0
-7.49279e-06 0.000348322 0
-7.49279e-06 0.000348322 0
-6.91691e-06 0.000362722 0
-6.91691e-06 0.000362722 0
-6.24124e-06 0.00037592 0
-6.24124e-06 0.00037592 0
-5.45758e-06 0.000387699 0
-5.45758e-06 0.000387699 0
-4.56293e-06 0.000397829 0
-4.56293e-06 0.000397829 0
-3.56083e-06 0.000406078 0
-3.56083e-06 0.000406078 0
-2.44854e-06 0.000412226 0
-2.44854e-06 0.000412226 0
-1.21524e-06 0.000416048 0
-1.21524e-06 0.000416048 0
1.75073e-07 0.000417346 0
1.75073e-07 0.000417346 0
1.73804e-06 0.000415873 0
1.73804e-06 0.000415873 0
3.43657e-06 0.000411373 0
3.43657e-06 0.000411373 0
5.23619e-06 0.000403831 0
5.23619e-06 0.000403831 0
7.13036e-06 0.000392956 0
7.13036e-06 0.000392956 0
9.04943e-06 0.000379093 0
9.04943e-06 0.000379093 0
1.09959e-05 0.000361455 0
1.09959e-05 0.000361455 0
1.28929e-05 0.000341876 0
1.28929e-05 0.000341876 0
1.48805e-05 0.000317007 0
1.48805e-05 0.000317007 0
1.6815e-05 0.000293124 0
1.6815e-05 0.000293124 0
1.86859e-05 0.000260998 0
1.86859e-05 0.000260998 0
2.07668e-05 0.000233865 0
2.07668e-05 0.000233865 0
2.23308e-05 0.000194193 0
2.23308e-05 0.000194193 0
2.51152e-05 0.000164972 0
2.51152e-05 0.000164972 0
2.80902e-05 0.000116635 0
2.80902e-05 0.000116635 0
3.42845e-05 8.64231e-05 0
3.42845e-05 8.64231e-05 0
6.56678e-06 2.35958e-05 0
6.56678e-06 2.35958e-05 0
-3.39326e-05 5.89122e-05 0
-3.39326e-05 5.89122e-05 0
-0.00016836 4.18369e-05 0
-0.00016836 4.18369e-05 0
-0.000252801 0.000322609 0
-0.000252801 0.000322609 0
-0.000434679 0.000563724 0
-0.000434679 0.000563724 0
-0.000507355 0.00124753 0
-0.000507355 0.00124753 0
-1.63362e-05 7.59075e-06 0
-1.63362e-05 7.59075e-06 0
-3.20511e-05 7.55508e-06 0
-3.20511e-05 7.55508e-06 0
-4.81715e-05 7.67429e-06 0
-4.81715e-05 7.67429e-06 0
-6.4263e-05 7.73152e-06 0
-6.4263e-05 7.73152e-06 0
-8.03153e-05 7.78585e-06 0
-8.03153e-05 7.78585e-06 0
-9.63461e-05 7.8336e-06 0
-9.63461e-05 7.8336e-06 0
-0.000112283 7.86134e-06 0
-0.000112283 7.86134e-06 0
-0.000128108 7.85784e-06 0
-0.000128108 7.85784e-06 0
-0.000143733 7.81198e-06 0
-0.000143733 7.81198e-06 0
-0.000159108 7.71518e-06 0
-0.000159108 7.71518e-06 0
-0.000174132 7.56409e-06 0
-0.000174132 7.56409e-06 0
-0.000188722 7.35615e-06 0
-0.000188722 7.35615e-06 0
-0.000202761 7.08608e-06 0
-0.000202761 7.08608e-06 0
-0.000216144 6.74878e-06 0
-0.000216144 6.74878e-06 0
-0.000228748 6.34074e-06 0
-0.000228748 6.34074e-06 0
-0.000240455 5.86078e-06 0
-0.000240455 5.86078e-06 0
-0.00025114 5.30968e-06 0
-0.00025114 5.30968e-06 0
-0.00026068 4.6891e-06 0
-0.00026068 4.6891e-06 0
-0.000268956 4.00151e-06 0
-0.000268956 4.00151e-06 0
-0.000275851 3.25123e-06 0
-0.000275851 3.25123e-06 0
-0.000281258 2.445e-06 0
-0.000281258 2.445e-06 0
-0.000285081 1.59246e-06 0
-0.000285081 1.59246e-06 0
-0.000287233 7.07721e-07 0
-0.000287233 7.07721e-07 0
-0.000287644 -1.92714e-07 0
-0.000287644 -1.92714e-07 0
-0.000286289 -1.09246e-06 0
-0.000286289 -1.09246e-06 0
-0.000283153 -1.98858e-06 0
-0.000283153 -1.98858e-06 0
-0.000278219 -2.88415e-06 0
-0.000278219 -2.88415e-06 0
-0.00027149 -3.77296e-06 0
-0.00027149 -3.77296e-06 0
-0.00026299 -4.64658e-06 0
-0.00026299 -4.64658e-06 0
-0.000252757 -5.49587e-06 0
-0.000252757 -5.49587e-06 0
-0.00024085 -6.31191e-06 0
-0.00024085 -6.31191e-06 0
-0.000227346 -7.08656e-06 0
-0.000227346 -7.08656e-06 0
-0.000212335 -7.81269e-06 0
-0.000212335 -7.81269e-06 0
-0.000195922 -8.48409e-06 0
-0.000195922 -8.48409e-06 0
-0.000178222 -9.0962e-06 0
-0.000178222 -9.0962e-06 0
-0.000159359 -9.64564e-06 0
-0.000159359 -9.64564e-06 0
-0.00013946 -1.013e-05 0
-0.00013946 -1.013e-05 0
-0.000118658 -1.05488e-05 0
-0.000118658 -1.05488e-05 0
-9.70844e-05 -1.09022e-05 0
-9.70844e-05 -1.09022e-05 0
-7.48722e-05 -1.1191e-05 0
-7.48722e-05 -1.1191e-05 0
-5.2146e-05 -1.14178e-05 0
-5.2146e-05 -1.14178e-05 0
-2.90259e-05 -1.15861e-05 0
-2.90259e-05 -1.15861e-05 0
-5.62247e-06 -1.16982e-05 0
-5.62247e-06 -1.16982e-05 0
1.79568e-05 -1.17582e-05 0
1.79568e-05 -1.17582e-05 0
4.16003e-05 -1.17714e-05 0
4.16003e-05 -1.17714e-05 0
6.52188e-05 -1.17413e-05 0
6.52188e-05 -1.17413e-05 0
8.87373e-05 -1.16723e-05 0
8.87373e-05 -1.16723e-05 0
0.000112081 -1.15687e-05 0
0.000112081 -1.15687e-05 0
0.000135186 -1.1435e-05 0
0.000135186 -1.1435e-05 0
0.000157995 -1.12754e-05 0
0.000157995 -1.12754e-05 0
0.000180461 -1.10936e-05 0
0.000180461 -1.10936e-05 0
0.000202542 -1.08932e-05 0
0.000202542 -1.08932e-05 0
0.000224206 -1.06773e-05 0
0.000224206 -1.06773e-05 0
0.000245423 -1.04493e-05 0
0.000245423 -1.04493e-05 0
0.000266174 -1.02121e-05 0
0.000266174 -1.02121e-05 0
0.000286442 -9.96798e-06 0
0.000286442 -9.96798e-06 0
0.000306216 -9.71903e-06 0
0.000306216 -9.71903e-06 0
0.000325487 -9.46724e-06 0
0.000325487 -9.46724e-06 0
0.000344253 -9.21439e-06 0
0.000344253 -9.21439e-06 0
0.000362512 -8.96192e-06 0
0.000362512 -8.96192e-06 0
0.000380266 -8.711e-06 0
0.000380266 -8.711e-06 0
0.00039752 -8.4627e-06 0
0.00039752 -8.4627e-06 0
0.000414279 -8.21799e-06 0
0.000414279 -8.21799e-06 0
0.000430553 -7.97757e-06 0
0.000430553 -7.97757e-06 0
0.000446349 -7.74186e-06 0
0.000446349 -7.74186e-06 0
0.000461678 -7.51137e-06 0
0.000461678 -7.51137e-06 0
0.000476552 -7.28663e-06 0
0.000476552 -7.28663e-06 0
0.000490981 -7.06793e-06 0
0.000490981 -7.06793e-06 0
0.000504977 -6.85544e-06 0
0.000504977 -6.85544e-06 0
0.000518555 -6.64941e-06 0
0.000518555 -6.64941e-06 0
0.000531725 -6.4498e-06 0
0.000531725 -6.4498e-06 0
0.000544502 -6.25644e-06 0
0.000544502 -6.25644e-06 0
0.000556898 -6.06941e-06 0
0.000556898 -6.06941e-06 0
0.000568925 -5.8889e-06 0
0.000568925 -5.8889e-06 0
0.000580598 -5.71481e-06 0
0.000580598 -5.71481e-06 0
0.000591927 -5.54696e-06 0
0.000591927 -5.54696e-06 0
0.000602926 -5.38529e-06 0
0.000602926 -5.38529e-06 0
0.000613607 -5.22971e-06 0
0.000613607 -5.22971e-06 0
0.000623982 -5.0801e-06 0
0.000623982 -5.0801e-06 0
0.000634062 -4.93623e-06 0
0.000634062 -4.93623e-06 0
0.00064386 -4.79789e-06 0
0.00064386 -4.79789e-06 0
0.000653385 -4.66504e-06 0
0.000653385 -4.66504e-06 0
0.00066265 -4.5376e-06 0
0.00066265 -4.5376e-06 0
0.000671663 -4.4154e-06 0
0.000671663 -4.4154e-06 0
0.000680439 -4.29816e-06 0
0.000680439 -4.29816e-06 0
0.000688979 -4.18588e-06 0
0.000688979 -4.18588e-06 0
0.000697307 -4.07828e-06 0
0.000697307 -4.07828e-06 0
0.00070541 -3.97543e-06 0
0.00070541 -3.97543e-06 0
0.000713332 -3.87688e-06 0
0.000713332 -3.87688e-06 0
0.000721028 -3.78309e-06 0
0.000721028 -3.78309e-06 0
0.00072859 -3.69311e-06 0
0.00072859 -3.69311e-06 0
0.000735898 -3.60786e-06 0
0.000735898 -3.60786e-06 0
0.000743157 -3.52542e-06 0
0.000743157 -3.52542e-06 0
0.000750072 -3.44853e-06 0
0.000750072 -3.44853e-06 0
0.000757114 -3.37307e-06 0
0.000757114 -3.37307e-06 0
0.000763584 -3.30508e-06 0
0.000763584 -3.30508e-06 0
0.000770562 -3.23499e-06 0
0.000770562 -3.23499e-06 0
0.000776419 -3.17676e-06 0
0.000776419 -3.17676e-06 0
0.987319 -0.0038238 0
0.987319 -0.0038238 0
1.97386 -0.00764444 0
1.97386 -0.00764444 0
