# vtk DataFile Version 2.0
sampleSurface
ASCII
DATASET POLYDATA
POINTS 652 double
0 0 0
0.02 0 0
0.02 0 0.1
0 0 0.1
0.04 0 0
0.04 0 0.1
0.06 0 0
0.06 0 0.1
0.08 0 0
0.08 0 0.1
0.1 0 0
0.1 0 0.1
0.12 0 0
0.12 0 0.1
0.14 0 0
0.14 0 0.1
0.16 0 0
0.16 0 0.1
0.18 0 0
0.18 0 0.1
0.2 0 0
0.2 0 0.1
0.22 0 0
0.22 0 0.1
0.24 0 0
0.24 0 0.1
0.26 0 0
0.26 0 0.1
0.28 0 0
0.28 0 0.1
0.3 0 0
0.3 0 0.1
0.32 0 0
0.32 0 0.1
0.34 0 0
0.34 0 0.1
0.36 0 0
0.36 0 0.1
0.38 0 0
0.38 0 0.1
0.4 0 0
0.4 0 0.1
0.42 0 0
0.42 0 0.1
0.44 0 0
0.44 0 0.1
0.46 0 0
0.46 0 0.1
0.48 0 0
0.48 0 0.1
0.5 0 0
0.5 0 0.1
0.52 0 0
0.52 0 0.1
0.54 0 0
0.54 0 0.1
0.56 0 0
0.56 0 0.1
0.58 0 0
0.58 0 0.1
0.6 0 0
0.6 0 0.1
0.62 0 0
0.62 0 0.1
0.64 0 0
0.64 0 0.1
0.66 0 0
0.66 0 0.1
0.68 0 0
0.68 0 0.1
0.7 0 0
0.7 0 0.1
0.72 0 0
0.72 0 0.1
0.74 0 0
0.74 0 0.1
0.76 0 0
0.76 0 0.1
0.78 0 0
0.78 0 0.1
0.8 0 0
0.8 0 0.1
0.82 0 0
0.82 0 0.1
0.84 0 0
0.84 0 0.1
0.86 0 0
0.86 0 0.1
0.88 0 0
0.88 0 0.1
0.9 0 0
0.9 0 0.1
0.92 0 0
0.92 0 0.1
0.94 0 0
0.94 0 0.1
0.96 0 0
0.96 0 0.1
0.98 0 0
0.98 0 0.1
1 0 0
1 0 0.1
1.02 0 0
1.02 0 0.1
1.04 0 0
1.04 0 0.1
1.06 0 0
1.06 0 0.1
1.08 0 0
1.08 0 0.1
1.1 0 0
1.1 0 0.1
1.12 0 0
1.12 0 0.1
1.14 0 0
1.14 0 0.1
1.16 0 0
1.16 0 0.1
1.18 0 0
1.18 0 0.1
1.2 0 0
1.2 0 0.1
1.22 0 0
1.22 0 0.1
1.24 0 0
1.24 0 0.1
1.26 0 0
1.26 0 0.1
1.28 0 0
1.28 0 0.1
1.3 0 0
1.3 0 0.1
1.32 0 0
1.32 0 0.1
1.34 0 0
1.34 0 0.1
1.36 0 0
1.36 0 0.1
1.38 0 0
1.38 0 0.1
1.4 0 0
1.4 0 0.1
1.42 0 0
1.42 0 0.1
1.44 0 0
1.44 0 0.1
1.46 0 0
1.46 0 0.1
1.48 0 0
1.48 0 0.1
1.5 0 0
1.5 0 0.1
1.52 0 0
1.52 0 0.1
1.54 0 0
1.54 0 0.1
1.56 0 0
1.56 0 0.1
1.58 0 0
1.58 0 0.1
1.6 0 0
1.6 0 0.1
1.62 0 0
1.62 0 0.1
1.64 0 0
1.64 0 0.1
1.66 0 0
1.66 0 0.1
1.68 0 0
1.68 0 0.1
1.7 0 0
1.7 0 0.1
1.72 0 0
1.72 0 0.1
1.74 0 0
1.74 0 0.1
1.76 0 0
1.76 0 0.1
1.78 0 0
1.78 0 0.1
1.8 0 0
1.8 0 0.1
1.82 0 0
1.82 0 0.1
1.84 0 0
1.84 0 0.1
1.86 0 0
1.86 0 0.1
1.88 0 0
1.88 0 0.1
1.9 0 0
1.9 0 0.1
1.92 0 0
1.92 0 0.1
1.94 0 0
1.94 0 0.1
1.96 0 0
1.96 0 0.1
1.98 0 0
1.98 0 0.1
2 0 0
2 0 0.1
2 0.02 0
2 0.02 0.1
2 0.04 0
2 0.04 0.1
2 0.06 0
2 0.06 0.1
2 0.08 0
2 0.08 0.1
2 0.1 0
2 0.1 0.1
2 0.12 0
2 0.12 0.1
2 0.14 0
2 0.14 0.1
2 0.16 0
2 0.16 0.1
2 0.18 0
2 0.18 0.1
2 0.2 0
2 0.2 0.1
2 0.22 0
2 0.22 0.1
2 0.24 0
2 0.24 0.1
2 0.26 0
2 0.26 0.1
2 0.28 0
2 0.28 0.1
2 0.3 0
2 0.3 0.1
2 0.32 0
2 0.32 0.1
2 0.34 0
2 0.34 0.1
2 0.36 0
2 0.36 0.1
2 0.38 0
2 0.38 0.1
2 0.4 0
2 0.4 0.1
2 0.42 0
2 0.42 0.1
2 0.44 0
2 0.44 0.1
2 0.46 0
2 0.46 0.1
2 0.48 0
2 0.48 0.1
2 0.5 0
2 0.5 0.1
2 0.52 0
2 0.52 0.1
2 0.54 0
2 0.54 0.1
2 0.56 0
2 0.56 0.1
2 0.58 0
2 0.58 0.1
2 0.6 0
2 0.6 0.1
2 0.62 0
2 0.62 0.1
2 0.64 0
2 0.64 0.1
2 0.66 0
2 0.66 0.1
2 0.68 0
2 0.68 0.1
2 0.7 0
2 0.7 0.1
2 0.72 0
2 0.72 0.1
2 0.74 0
2 0.74 0.1
2 0.76 0
2 0.76 0.1
2 0.78 0
2 0.78 0.1
2 0.8 0
2 0.8 0.1
2 0.82 0
2 0.82 0.1
2 0.84 0
2 0.84 0.1
2 0.86 0
2 0.86 0.1
2 0.88 0
2 0.88 0.1
2 0.9 0
2 0.9 0.1
2 0.92 0
2 0.92 0.1
2 0.94 0
2 0.94 0.1
2 0.96 0
2 0.96 0.1
2 0.98 0
2 0.98 0.1
2 1 0
2 1 0.1
2.02 1 0
2.02 1 0.1
2.04 1 0
2.04 1 0.1
2.06 1 0
2.06 1 0.1
2.08 1 0
2.08 1 0.1
2.1 1 0
2.1 1 0.1
2.12 1 0
2.12 1 0.1
2.14 1 0
2.14 1 0.1
2.16 1 0
2.16 1 0.1
2.18 1 0
2.18 1 0.1
2.2 1 0
2.2 1 0.1
2.22 1 0
2.22 1 0.1
2.24 1 0
2.24 1 0.1
2.26 1 0
2.26 1 0.1
2.28 1 0
2.28 1 0.1
2.3 1 0
2.3 1 0.1
2.32 1 0
2.32 1 0.1
2.34 1 0
2.34 1 0.1
2.36 1 0
2.36 1 0.1
2.38 1 0
2.38 1 0.1
2.4 1 0
2.4 1 0.1
2.42 1 0
2.42 1 0.1
2.44 1 0
2.44 1 0.1
2.46 1 0
2.46 1 0.1
2.48 1 0
2.48 1 0.1
2.5 1 0
2.5 1 0.1
2.5 0 0
2.5 0 0.1
2.5 0.02 0.1
2.5 0.02 0
2.5 0.04 0.1
2.5 0.04 0
2.5 0.06 0.1
2.5 0.06 0
2.5 0.08 0.1
2.5 0.08 0
2.5 0.1 0.1
2.5 0.1 0
2.5 0.12 0.1
2.5 0.12 0
2.5 0.14 0.1
2.5 0.14 0
2.5 0.16 0.1
2.5 0.16 0
2.5 0.18 0.1
2.5 0.18 0
2.5 0.2 0.1
2.5 0.2 0
2.5 0.22 0.1
2.5 0.22 0
2.5 0.24 0.1
2.5 0.24 0
2.5 0.26 0.1
2.5 0.26 0
2.5 0.28 0.1
2.5 0.28 0
2.5 0.3 0.1
2.5 0.3 0
2.5 0.32 0.1
2.5 0.32 0
2.5 0.34 0.1
2.5 0.34 0
2.5 0.36 0.1
2.5 0.36 0
2.5 0.38 0.1
2.5 0.38 0
2.5 0.4 0.1
2.5 0.4 0
2.5 0.42 0.1
2.5 0.42 0
2.5 0.44 0.1
2.5 0.44 0
2.5 0.46 0.1
2.5 0.46 0
2.5 0.48 0.1
2.5 0.48 0
2.5 0.5 0.1
2.5 0.5 0
2.5 0.52 0.1
2.5 0.52 0
2.5 0.54 0.1
2.5 0.54 0
2.5 0.56 0.1
2.5 0.56 0
2.5 0.58 0.1
2.5 0.58 0
2.5 0.6 0.1
2.5 0.6 0
2.5 0.62 0.1
2.5 0.62 0
2.5 0.64 0.1
2.5 0.64 0
2.5 0.66 0.1
2.5 0.66 0
2.5 0.68 0.1
2.5 0.68 0
2.5 0.7 0.1
2.5 0.7 0
2.5 0.72 0.1
2.5 0.72 0
2.5 0.74 0.1
2.5 0.74 0
2.5 0.76 0.1
2.5 0.76 0
2.5 0.78 0.1
2.5 0.78 0
2.5 0.8 0.1
2.5 0.8 0
2.5 0.82 0.1
2.5 0.82 0
2.5 0.84 0.1
2.5 0.84 0
2.5 0.86 0.1
2.5 0.86 0
2.5 0.88 0.1
2.5 0.88 0
2.5 0.9 0.1
2.5 0.9 0
2.5 0.92 0.1
2.5 0.92 0
2.5 0.94 0.1
2.5 0.94 0
2.5 0.96 0.1
2.5 0.96 0
2.5 0.98 0.1
2.5 0.98 0
2.52 0 0
2.52 0 0.1
2.54 0 0
2.54 0 0.1
2.56 0 0
2.56 0 0.1
2.58 0 0
2.58 0 0.1
2.6 0 0
2.6 0 0.1
2.62 0 0
2.62 0 0.1
2.64 0 0
2.64 0 0.1
2.66 0 0
2.66 0 0.1
2.68 0 0
2.68 0 0.1
2.7 0 0
2.7 0 0.1
2.72 0 0
2.72 0 0.1
2.74 0 0
2.74 0 0.1
2.76 0 0
2.76 0 0.1
2.78 0 0
2.78 0 0.1
2.8 0 0
2.8 0 0.1
2.82 0 0
2.82 0 0.1
2.84 0 0
2.84 0 0.1
2.86 0 0
2.86 0 0.1
2.88 0 0
2.88 0 0.1
2.9 0 0
2.9 0 0.1
2.92 0 0
2.92 0 0.1
2.94 0 0
2.94 0 0.1
2.96 0 0
2.96 0 0.1
2.98 0 0
2.98 0 0.1
3 0 0
3 0 0.1
3.02 0 0
3.02 0 0.1
3.04 0 0
3.04 0 0.1
3.06 0 0
3.06 0 0.1
3.08 0 0
3.08 0 0.1
3.1 0 0
3.1 0 0.1
3.12 0 0
3.12 0 0.1
3.14 0 0
3.14 0 0.1
3.16 0 0
3.16 0 0.1
3.18 0 0
3.18 0 0.1
3.2 0 0
3.2 0 0.1
3.22 0 0
3.22 0 0.1
3.24 0 0
3.24 0 0.1
3.26 0 0
3.26 0 0.1
3.28 0 0
3.28 0 0.1
3.3 0 0
3.3 0 0.1
3.32 0 0
3.32 0 0.1
3.34 0 0
3.34 0 0.1
3.36 0 0
3.36 0 0.1
3.38 0 0
3.38 0 0.1
3.4 0 0
3.4 0 0.1
3.42 0 0
3.42 0 0.1
3.44 0 0
3.44 0 0.1
3.46 0 0
3.46 0 0.1
3.48 0 0
3.48 0 0.1
3.5 0 0
3.5 0 0.1
3.52 0 0
3.52 0 0.1
3.54 0 0
3.54 0 0.1
3.56 0 0
3.56 0 0.1
3.58 0 0
3.58 0 0.1
3.6 0 0
3.6 0 0.1
3.62 0 0
3.62 0 0.1
3.64 0 0
3.64 0 0.1
3.66 0 0
3.66 0 0.1
3.68 0 0
3.68 0 0.1
3.7 0 0
3.7 0 0.1
3.72 0 0
3.72 0 0.1
3.74 0 0
3.74 0 0.1
3.76 0 0
3.76 0 0.1
3.78 0 0
3.78 0 0.1
3.8 0 0
3.8 0 0.1
3.82 0 0
3.82 0 0.1
3.84 0 0
3.84 0 0.1
3.86 0 0
3.86 0 0.1
3.88 0 0
3.88 0 0.1
3.9 0 0
3.9 0 0.1
3.92 0 0
3.92 0 0.1
3.94 0 0
3.94 0 0.1
3.96 0 0
3.96 0 0.1
3.98 0 0
3.98 0 0.1
4 0 0
4 0 0.1
4.02 0 0
4.02 0 0.1
4.04 0 0
4.04 0 0.1
4.06 0 0
4.06 0 0.1
4.08 0 0
4.08 0 0.1
4.1 0 0
4.1 0 0.1
4.12 0 0
4.12 0 0.1
4.14 0 0
4.14 0 0.1
4.16 0 0
4.16 0 0.1
4.18 0 0
4.18 0 0.1
4.2 0 0
4.2 0 0.1
4.22 0 0
4.22 0 0.1
4.24 0 0
4.24 0 0.1
4.26 0 0
4.26 0 0.1
4.28 0 0
4.28 0 0.1
4.3 0 0
4.3 0 0.1
4.32 0 0
4.32 0 0.1
4.34 0 0
4.34 0 0.1
4.36 0 0
4.36 0 0.1
4.38 0 0
4.38 0 0.1
4.4 0 0
4.4 0 0.1
4.42 0 0
4.42 0 0.1
4.44 0 0
4.44 0 0.1
4.46 0 0
4.46 0 0.1
4.48 0 0
4.48 0 0.1
4.5 0 0
4.5 0 0.1

POLYGONS 325 1625
4 0 1 2 3
4 1 4 5 2
4 4 6 7 5
4 6 8 9 7
4 8 10 11 9
4 10 12 13 11
4 12 14 15 13
4 14 16 17 15
4 16 18 19 17
4 18 20 21 19
4 20 22 23 21
4 22 24 25 23
4 24 26 27 25
4 26 28 29 27
4 28 30 31 29
4 30 32 33 31
4 32 34 35 33
4 34 36 37 35
4 36 38 39 37
4 38 40 41 39
4 40 42 43 41
4 42 44 45 43
4 44 46 47 45
4 46 48 49 47
4 48 50 51 49
4 50 52 53 51
4 52 54 55 53
4 54 56 57 55
4 56 58 59 57
4 58 60 61 59
4 60 62 63 61
4 62 64 65 63
4 64 66 67 65
4 66 68 69 67
4 68 70 71 69
4 70 72 73 71
4 72 74 75 73
4 74 76 77 75
4 76 78 79 77
4 78 80 81 79
4 80 82 83 81
4 82 84 85 83
4 84 86 87 85
4 86 88 89 87
4 88 90 91 89
4 90 92 93 91
4 92 94 95 93
4 94 96 97 95
4 96 98 99 97
4 98 100 101 99
4 100 102 103 101
4 102 104 105 103
4 104 106 107 105
4 106 108 109 107
4 108 110 111 109
4 110 112 113 111
4 112 114 115 113
4 114 116 117 115
4 116 118 119 117
4 118 120 121 119
4 120 122 123 121
4 122 124 125 123
4 124 126 127 125
4 126 128 129 127
4 128 130 131 129
4 130 132 133 131
4 132 134 135 133
4 134 136 137 135
4 136 138 139 137
4 138 140 141 139
4 140 142 143 141
4 142 144 145 143
4 144 146 147 145
4 146 148 149 147
4 148 150 151 149
4 150 152 153 151
4 152 154 155 153
4 154 156 157 155
4 156 158 159 157
4 158 160 161 159
4 160 162 163 161
4 162 164 165 163
4 164 166 167 165
4 166 168 169 167
4 168 170 171 169
4 170 172 173 171
4 172 174 175 173
4 174 176 177 175
4 176 178 179 177
4 178 180 181 179
4 180 182 183 181
4 182 184 185 183
4 184 186 187 185
4 186 188 189 187
4 188 190 191 189
4 190 192 193 191
4 192 194 195 193
4 194 196 197 195
4 196 198 199 197
4 198 200 201 199
4 200 202 203 201
4 202 204 205 203
4 204 206 207 205
4 206 208 209 207
4 208 210 211 209
4 210 212 213 211
4 212 214 215 213
4 214 216 217 215
4 216 218 219 217
4 218 220 221 219
4 220 222 223 221
4 222 224 225 223
4 224 226 227 225
4 226 228 229 227
4 228 230 231 229
4 230 232 233 231
4 232 234 235 233
4 234 236 237 235
4 236 238 239 237
4 238 240 241 239
4 240 242 243 241
4 242 244 245 243
4 244 246 247 245
4 246 248 249 247
4 248 250 251 249
4 250 252 253 251
4 252 254 255 253
4 254 256 257 255
4 256 258 259 257
4 258 260 261 259
4 260 262 263 261
4 262 264 265 263
4 264 266 267 265
4 266 268 269 267
4 268 270 271 269
4 270 272 273 271
4 272 274 275 273
4 274 276 277 275
4 276 278 279 277
4 278 280 281 279
4 280 282 283 281
4 282 284 285 283
4 284 286 287 285
4 286 288 289 287
4 288 290 291 289
4 290 292 293 291
4 292 294 295 293
4 294 296 297 295
4 296 298 299 297
4 298 300 301 299
4 300 302 303 301
4 302 304 305 303
4 304 306 307 305
4 306 308 309 307
4 308 310 311 309
4 310 312 313 311
4 312 314 315 313
4 314 316 317 315
4 316 318 319 317
4 318 320 321 319
4 320 322 323 321
4 322 324 325 323
4 324 326 327 325
4 326 328 329 327
4 328 330 331 329
4 330 332 333 331
4 332 334 335 333
4 334 336 337 335
4 336 338 339 337
4 338 340 341 339
4 340 342 343 341
4 342 344 345 343
4 344 346 347 345
4 346 348 349 347
4 348 350 351 349
4 352 353 354 355
4 355 354 356 357
4 357 356 358 359
4 359 358 360 361
4 361 360 362 363
4 363 362 364 365
4 365 364 366 367
4 367 366 368 369
4 369 368 370 371
4 371 370 372 373
4 373 372 374 375
4 375 374 376 377
4 377 376 378 379
4 379 378 380 381
4 381 380 382 383
4 383 382 384 385
4 385 384 386 387
4 387 386 388 389
4 389 388 390 391
4 391 390 392 393
4 393 392 394 395
4 395 394 396 397
4 397 396 398 399
4 399 398 400 401
4 401 400 402 403
4 403 402 404 405
4 405 404 406 407
4 407 406 408 409
4 409 408 410 411
4 411 410 412 413
4 413 412 414 415
4 415 414 416 417
4 417 416 418 419
4 419 418 420 421
4 421 420 422 423
4 423 422 424 425
4 425 424 426 427
4 427 426 428 429
4 429 428 430 431
4 431 430 432 433
4 433 432 434 435
4 435 434 436 437
4 437 436 438 439
4 439 438 440 441
4 441 440 442 443
4 443 442 444 445
4 445 444 446 447
4 447 446 448 449
4 449 448 450 451
4 451 450 351 350
4 352 452 453 353
4 452 454 455 453
4 454 456 457 455
4 456 458 459 457
4 458 460 461 459
4 460 462 463 461
4 462 464 465 463
4 464 466 467 465
4 466 468 469 467
4 468 470 471 469
4 470 472 473 471
4 472 474 475 473
4 474 476 477 475
4 476 478 479 477
4 478 480 481 479
4 480 482 483 481
4 482 484 485 483
4 484 486 487 485
4 486 488 489 487
4 488 490 491 489
4 490 492 493 491
4 492 494 495 493
4 494 496 497 495
4 496 498 499 497
4 498 500 501 499
4 500 502 503 501
4 502 504 505 503
4 504 506 507 505
4 506 508 509 507
4 508 510 511 509
4 510 512 513 511
4 512 514 515 513
4 514 516 517 515
4 516 518 519 517
4 518 520 521 519
4 520 522 523 521
4 522 524 525 523
4 524 526 527 525
4 526 528 529 527
4 528 530 531 529
4 530 532 533 531
4 532 534 535 533
4 534 536 537 535
4 536 538 539 537
4 538 540 541 539
4 540 542 543 541
4 542 544 545 543
4 544 546 547 545
4 546 548 549 547
4 548 550 551 549
4 550 552 553 551
4 552 554 555 553
4 554 556 557 555
4 556 558 559 557
4 558 560 561 559
4 560 562 563 561
4 562 564 565 563
4 564 566 567 565
4 566 568 569 567
4 568 570 571 569
4 570 572 573 571
4 572 574 575 573
4 574 576 577 575
4 576 578 579 577
4 578 580 581 579
4 580 582 583 581
4 582 584 585 583
4 584 586 587 585
4 586 588 589 587
4 588 590 591 589
4 590 592 593 591
4 592 594 595 593
4 594 596 597 595
4 596 598 599 597
4 598 600 601 599
4 600 602 603 601
4 602 604 605 603
4 604 606 607 605
4 606 608 609 607
4 608 610 611 609
4 610 612 613 611
4 612 614 615 613
4 614 616 617 615
4 616 618 619 617
4 618 620 621 619
4 620 622 623 621
4 622 624 625 623
4 624 626 627 625
4 626 628 629 627
4 628 630 631 629
4 630 632 633 631
4 632 634 635 633
4 634 636 637 635
4 636 638 639 637
4 638 640 641 639
4 640 642 643 641
4 642 644 645 643
4 644 646 647 645
4 646 648 649 647
4 648 650 651 649
POINT_DATA 652
FIELD attributes 1
U 3 652 float
2.47715 0.00530725 -0.0164967
1.23907 0.00265161 -0.00824834
1.23907 0.00265161 -0.00824834
2.47715 0.00530725 -0.0164967
0.000990864 -4.69027e-06 0
0.000990864 -4.69027e-06 0
0.000993112 -4.11428e-06 0
0.000993112 -4.11428e-06 0
0.000993385 -1.11985e-06 0
0.000993385 -1.11985e-06 0
0.000993035 1.72276e-06 0
0.000993035 1.72276e-06 0
0.000991809 3.13855e-06 0
0.000991809 3.13855e-06 0
0.000987506 3.39568e-06 0
0.000987506 3.39568e-06 0
0.000981727 3.14214e-06 0
0.000981727 3.14214e-06 0
0.000976749 2.8196e-06 0
0.000976749 2.8196e-06 0
0.000972063 2.60936e-06 0
0.000972063 2.60936e-06 0
0.000966941 2.5196e-06 0
0.000966941 2.5196e-06 0
0.000961755 2.50213e-06 0
0.000961755 2.50213e-06 0
0.000956748 2.51669e-06 0
0.000956748 2.51669e-06 0
0.000951734 2.54174e-06 0
0.000951734 2.54174e-06 0
0.000946612 2.5688e-06 0
0.000946612 2.5688e-06 0
0.00094143 2.59581e-06 0
0.00094143 2.59581e-06 0
0.000936211 2.6228e-06 0
0.000936211 2.6228e-06 0
0.000930942 2.65017e-06 0
0.000930942 2.65017e-06 0
0.000925617 2.6782e-06 0
0.000925617 2.6782e-06 0
0.000920236 2.70714e-06 0
0.000920236 2.70714e-06 0
0.000914798 2.73719e-06 0
0.000914798 2.73719e-06 0
0.0009093 2.76848e-06 0
0.0009093 2.76848e-06 0
0.000903739 2.80113e-06 0
0.000903739 2.80113e-06 0
0.000898113 2.83523e-06 0
0.000898113 2.83523e-06 0
0.000892418 2.87088e-06 0
0.000892418 2.87088e-06 0
0.000886652 2.90813e-06 0
0.000886652 2.90813e-06 0
0.000880811 2.94706e-06 0
0.000880811 2.94706e-06 0
0.000874892 2.98772e-06 0
0.000874892 2.98772e-06 0
0.000868891 3.03018e-06 0
0.000868891 3.03018e-06 0
0.000862805 3.07448e-06 0
0.000862805 3.07448e-06 0
0.00085663 3.12067e-06 0
0.00085663 3.12067e-06 0
0.000850362 3.16881e-06 0
0.000850362 3.16881e-06 0
0.000843997 3.21893e-06 0
0.000843997 3.21893e-06 0
0.000837531 3.27107e-06 0
0.000837531 3.27107e-06 0
0.00083096 3.32529e-06 0
0.00083096 3.32529e-06 0
0.00082428 3.38161e-06 0
0.00082428 3.38161e-06 0
0.000817486 3.44008e-06 0
0.000817486 3.44008e-06 0
0.000810574 3.50073e-06 0
0.000810574 3.50073e-06 0
0.000803539 3.56361e-06 0
0.000803539 3.56361e-06 0
0.000796378 3.62873e-06 0
0.000796378 3.62873e-06 0
0.000789085 3.69614e-06 0
0.000789085 3.69614e-06 0
0.000781656 3.76587e-06 0
0.000781656 3.76587e-06 0
0.000774086 3.83793e-06 0
0.000774086 3.83793e-06 0
0.00076637 3.91237e-06 0
0.00076637 3.91237e-06 0
0.000758504 3.9892e-06 0
0.000758504 3.9892e-06 0
0.000750482 4.06844e-06 0
0.000750482 4.06844e-06 0
0.000742299 4.15011e-06 0
0.000742299 4.15011e-06 0
0.000733951 4.23422e-06 0
0.000733951 4.23422e-06 0
0.000725432 4.32078e-06 0
0.000725432 4.32078e-06 0
0.000716738 4.40979e-06 0
0.000716738 4.40979e-06 0
0.000707863 4.50126e-06 0
0.000707863 4.50126e-06 0
0.000698803 4.59518e-06 0
0.000698803 4.59518e-06 0
0.000689551 4.69153e-06 0
0.000689551 4.69153e-06 0
0.000680104 4.7903e-06 0
0.000680104 4.7903e-06 0
0.000670456 4.89146e-06 0
0.000670456 4.89146e-06 0
0.000660602 4.99498e-06 0
0.000660602 4.99498e-06 0
0.000650538 5.10082e-06 0
0.000650538 5.10082e-06 0
0.000640258 5.20892e-06 0
0.000640258 5.20892e-06 0
0.000629759 5.31925e-06 0
0.000629759 5.31925e-06 0
0.000619034 5.43172e-06 0
0.000619034 5.43172e-06 0
0.000608081 5.54627e-06 0
0.000608081 5.54627e-06 0
0.000596894 5.66282e-06 0
0.000596894 5.66282e-06 0
0.00058547 5.78127e-06 0
0.00058547 5.78127e-06 0
0.000573805 5.90154e-06 0
0.000573805 5.90154e-06 0
0.000561895 6.02353e-06 0
0.000561895 6.02353e-06 0
0.000549737 6.14713e-06 0
0.000549737 6.14713e-06 0
0.000537329 6.27222e-06 0
0.000537329 6.27222e-06 0
0.000524668 6.39854e-06 0
0.000524668 6.39854e-06 0
0.000511752 6.52564e-06 0
0.000511752 6.52564e-06 0
0.000498578 6.65313e-06 0
0.000498578 6.65313e-06 0
0.000485146 6.78071e-06 0
0.000485146 6.78071e-06 0
0.000471455 6.9081e-06 0
0.000471455 6.9081e-06 0
0.000457505 7.03505e-06 0
0.000457505 7.03505e-06 0
0.000443295 7.16126e-06 0
0.000443295 7.16126e-06 0
0.000428827 7.28645e-06 0
0.000428827 7.28645e-06 0
0.000414102 7.41031e-06 0
0.000414102 7.41031e-06 0
0.000399122 7.53253e-06 0
0.000399122 7.53253e-06 0
0.00038389 7.65276e-06 0
0.00038389 7.65276e-06 0
0.00036841 7.77069e-06 0
0.00036841 7.77069e-06 0
0.000352685 7.88597e-06 0
0.000352685 7.88597e-06 0
0.000336722 7.99826e-06 0
0.000336722 7.99826e-06 0
0.000320524 8.10721e-06 0
0.000320524 8.10721e-06 0
0.000304101 8.21249e-06 0
0.000304101 8.21249e-06 0
0.000287457 8.31377e-06 0
0.000287457 8.31377e-06 0
0.000270602 8.41072e-06 0
0.000270602 8.41072e-06 0
0.000253544 8.50301e-06 0
0.000253544 8.50301e-06 0
0.000236292 8.59036e-06 0
0.000236292 8.59036e-06 0
0.000218858 8.67247e-06 0
0.000218858 8.67247e-06 0
0.000201252 8.74907e-06 0
0.000201252 8.74907e-06 0
0.000183486 8.8199e-06 0
0.000183486 8.8199e-06 0
0.000165572 8.88473e-06 0
0.000165572 8.88473e-06 0
0.000147523 8.94335e-06 0
0.000147523 8.94335e-06 0
0.000129353 8.99556e-06 0
0.000129353 8.99556e-06 0
0.000111075 9.04119e-06 0
0.000111075 9.04119e-06 0
9.27044e-05 9.08008e-06 0
9.27044e-05 9.08008e-06 0
7.42559e-05 9.11212e-06 0
7.42559e-05 9.11212e-06 0
5.57447e-05 9.13713e-06 0
5.57447e-05 9.13713e-06 0
3.71866e-05 9.15495e-06 0
3.71866e-05 9.15495e-06 0
1.8598e-05 9.16471e-06 0
1.8598e-05 9.16471e-06 0
9.29805e-06 9.16736e-06 0
9.29805e-06 9.16736e-06 0
9.47238e-06 1.86675e-05 0
9.47238e-06 1.86675e-05 0
9.58369e-06 3.78179e-05 0
9.58369e-06 3.78179e-05 0
9.52534e-06 5.69745e-05 0
9.52534e-06 5.69745e-05 0
9.54791e-06 7.60287e-05 0
9.54791e-06 7.60287e-05 0
9.58834e-06 9.5168e-05 0
9.58834e-06 9.5168e-05 0
9.63803e-06 0.0001144 0
9.63803e-06 0.0001144 0
9.69721e-06 0.00013374 0
9.69721e-06 0.00013374 0
9.76632e-06 0.000153208 0
9.76632e-06 0.000153208 0
9.84577e-06 0.000172824 0
9.84577e-06 0.000172824 0
9.93598e-06 0.000192609 0
9.93598e-06 0.000192609 0
1.00375e-05 0.000212586 0
1.00375e-05 0.000212586 0
1.01509e-05 0.000232777 0
1.01509e-05 0.000232777 0
1.02769e-05 0.000253208 0
1.02769e-05 0.000253208 0
1.04163e-05 0.000273903 0
1.04163e-05 0.000273903 0
1.057e-05 0.00029489 0
1.057e-05 0.00029489 0
1.07389e-05 0.0003162 0
1.07389e-05 0.0003162 0
1.09244e-05 0.000337863 0
1.09244e-05 0.000337863 0
1.11276e-05 0.000359914 0
1.11276e-05 0.000359914 0
1.13501e-05 0.000382389 0
1.13501e-05 0.000382389 0
1.15938e-05 0.00040533 0
1.15938e-05 0.00040533 0
1.18605e-05 0.00042878 0
1.18605e-05 0.00042878 0
1.21525e-05 0.000452787 0
1.21525e-05 0.000452787 0
1.24726e-05 0.000477404 0
1.24726e-05 0.000477404 0
1.28238e-05 0.000502691 0
1.28238e-05 0.000502691 0
1.32097e-05 0.000528712 0
1.32097e-05 0.000528712 0
1.36345e-05 0.000555542 0
1.36345e-05 0.000555542 0
1.41031e-05 0.000583261 0
1.41031e-05 0.000583261 0
1.46214e-05 0.000611964 0
1.46214e-05 0.000611964 0
1.51964e-05 0.000641756 0
1.51964e-05 0.000641756 0
1.58364e-05 0.000672756 0
1.58364e-05 0.000672756 0
1.65518e-05 0.000705108 0
1.65518e-05 0.000705108 0
1.7354e-05 0.000738963 0
1.7354e-05 0.000738963 0
1.82629e-05 0.000774536 0
1.82629e-05 0.000774536 0
1.9281e-05 0.00081199 0
1.9281e-05 0.00081199 0
2.04813e-05 0.000851707 0
2.04813e-05 0.000851707 0
2.17898e-05 0.000893819 0
2.17898e-05 0.000893819 0
2.33568e-05 0.000938908 0
2.33568e-05 0.000938908 0
2.5522e-05 0.000987472 0
2.5522e-05 0.000987472 0
2.64358e-05 0.00103935 0
2.64358e-05 0.00103935 0
3.20038e-05 0.00109755 0
3.20038e-05 0.00109755 0
3.12862e-05 0.00115784 0
3.12862e-05 0.00115784 0
3.82247e-05 0.00123201 0
3.82247e-05 0.00123201 0
4.12181e-05 0.0013032 0
4.12181e-05 0.0013032 0
5.65207e-05 0.00140149 0
5.65207e-05 0.00140149 0
4.86179e-05 0.00150371 0
4.86179e-05 0.00150371 0
7.57941e-05 0.00162827 0
7.57941e-05 0.00162827 0
9.74871e-05 0.00179264 0
9.74871e-05 0.00179264 0
0.00015463 0.00199781 0
0.00015463 0.00199781 0
0.00021082 0.00231418 0
0.00021082 0.00231418 0
4.50974e-05 0.00135246 0
4.50974e-05 0.00135246 0
-0.000810674 0.000405824 0
-0.000810674 0.000405824 0
-0.0018238 0.000666576 0
-0.0018238 0.000666576 0
-0.00250296 0.000457694 0
-0.00250296 0.000457694 0
-0.00275375 3.89159e-05 0
-0.00275375 3.89159e-05 0
-0.00245626 -0.000245514 0
-0.00245626 -0.000245514 0
-0.00187294 -0.000358865 0
-0.00187294 -0.000358865 0
-0.00124155 -0.000312759 0
-0.00124155 -0.000312759 0
-0.000580853 -0.000356852 0
-0.000580853 -0.000356852 0
8.94509e-05 -0.000342097 0
8.94509e-05 -0.000342097 0
0.00054879 -0.000243962 0
0.00054879 -0.000243962 0
0.000956098 -0.000195426 0
0.000956098 -0.000195426 0
0.0012404 -0.000135966 0
0.0012404 -0.000135966 0
0.0014679 -8.74636e-05 0
0.0014679 -8.74636e-05 0
0.0016408 -5.42602e-05 0
0.0016408 -5.42602e-05 0
0.00176322 -3.70983e-05 0
0.00176322 -3.70983e-05 0
0.00185021 -3.05337e-05 0
0.00185021 -3.05337e-05 0
0.00191102 -3.0551e-05 0
0.00191102 -3.0551e-05 0
0.0019674 -3.2058e-05 0
0.0019674 -3.2058e-05 0
0.00201393 -3.09005e-05 0
0.00201393 -3.09005e-05 0
0.00206571 -3.76623e-05 0
0.00206571 -3.76623e-05 0
0.00213914 -4.97382e-05 0
0.00213914 -4.97382e-05 0
0.00219851 -3.55638e-05 0
0.00219851 -3.55638e-05 0
0.00231847 -9.42881e-05 0
0.00231847 -9.42881e-05 0
0.00244963 -9.4827e-05 0
0.00244963 -9.4827e-05 0
0.00159509 -0.000246615 0
0.00159509 -0.000246615 0
7.74729e-06 -7.84842e-06 0
7.74729e-06 -7.84842e-06 0
7.74983e-06 -1.57042e-05 0
7.74983e-06 -1.57042e-05 0
7.75567e-06 -3.14221e-05 0
7.75567e-06 -3.14221e-05 0
7.76381e-06 -4.71564e-05 0
7.76381e-06 -4.71564e-05 0
7.77496e-06 -6.29142e-05 0
7.77496e-06 -6.29142e-05 0
7.78908e-06 -7.87027e-05 0
7.78908e-06 -7.87027e-05 0
7.80607e-06 -9.45295e-05 0
7.80607e-06 -9.45295e-05 0
7.82575e-06 -0.000110401 0
7.82575e-06 -0.000110401 0
7.84784e-06 -0.000126325 0
7.84784e-06 -0.000126325 0
7.87204e-06 -0.000142308 0
7.87204e-06 -0.000142308 0
7.89795e-06 -0.000158354 0
7.89795e-06 -0.000158354 0
7.92506e-06 -0.00017447 0
7.92506e-06 -0.00017447 0
7.95277e-06 -0.000190659 0
7.95277e-06 -0.000190659 0
7.9803e-06 -0.000206924 0
7.9803e-06 -0.000206924 0
8.00673e-06 -0.000223268 0
8.00673e-06 -0.000223268 0
8.03088e-06 -0.000239689 0
8.03088e-06 -0.000239689 0
8.05131e-06 -0.000256187 0
8.05131e-06 -0.000256187 0
8.06623e-06 -0.000272756 0
8.06623e-06 -0.000272756 0
8.07342e-06 -0.000289387 0
8.07342e-06 -0.000289387 0
8.07009e-06 -0.000306068 0
8.07009e-06 -0.000306068 0
8.0528e-06 -0.00032278 0
8.0528e-06 -0.00032278 0
8.01719e-06 -0.000339497 0
8.01719e-06 -0.000339497 0
7.95782e-06 -0.000356186 0
7.95782e-06 -0.000356186 0
7.86779e-06 -0.000372801 0
7.86779e-06 -0.000372801 0
7.73836e-06 -0.000389279 0
7.73836e-06 -0.000389279 0
7.55833e-06 -0.000405541 0
7.55833e-06 -0.000405541 0
7.31319e-06 -0.000421481 0
7.31319e-06 -0.000421481 0
6.98382e-06 -0.000436958 0
6.98382e-06 -0.000436958 0
6.54436e-06 -0.000451787 0
6.54436e-06 -0.000451787 0
5.95858e-06 -0.00046572 0
5.95858e-06 -0.00046572 0
5.17342e-06 -0.000478422 0
5.17342e-06 -0.000478422 0
4.10727e-06 -0.000489432 0
4.10727e-06 -0.000489432 0
2.62879e-06 -0.000498103 0
2.62879e-06 -0.000498103 0
5.10682e-07 -0.000503483 0
5.10682e-07 -0.000503483 0
-2.62474e-06 -0.000504108 0
-2.62474e-06 -0.000504108 0
-7.25398e-06 -0.000497732 0
-7.25398e-06 -0.000497732 0
-1.39941e-05 -0.000481055 0
-1.39941e-05 -0.000481055 0
-2.37764e-05 -0.00044864 0
-2.37764e-05 -0.00044864 0
-3.80374e-05 -0.000390819 0
-3.80374e-05 -0.000390819 0
-6.06591e-05 -0.000307286 0
-6.06591e-05 -0.000307286 0
-9.01842e-05 -0.000148423 0
-9.01842e-05 -0.000148423 0
-0.000142682 7.0638e-05 0
-0.000142682 7.0638e-05 0
-0.000179459 0.000436876 0
-0.000179459 0.000436876 0
-0.000210152 0.000879208 0
-0.000210152 0.000879208 0
-0.000319501 0.0014105 0
-0.000319501 0.0014105 0
-0.000340647 0.00203616 0
-0.000340647 0.00203616 0
-2.67428e-06 0.00243589 0
-2.67428e-06 0.00243589 0
0.000409927 0.00219281 0
0.000409927 0.00219281 0
0.000528791 0.00153586 0
0.000528791 0.00153586 0
0.000610904 0.00038334 0
0.000610904 0.00038334 0
1.57601e-05 -7.98279e-06 0
1.57601e-05 -7.98279e-06 0
3.18841e-05 -8.05441e-06 0
3.18841e-05 -8.05441e-06 0
4.79575e-05 -7.97856e-06 0
4.79575e-05 -7.97856e-06 0
6.38796e-05 -7.95641e-06 0
6.38796e-05 -7.95641e-06 0
7.9782e-05 -7.93597e-06 0
7.9782e-05 -7.93597e-06 0
9.56411e-05 -7.91068e-06 0
9.56411e-05 -7.91068e-06 0
0.000111444 -7.88053e-06 0
0.000111444 -7.88053e-06 0
0.000127183 -7.84555e-06 0
0.000127183 -7.84555e-06 0
0.000142846 -7.80569e-06 0
0.000142846 -7.80569e-06 0
0.000158425 -7.76091e-06 0
0.000158425 -7.76091e-06 0
0.000173909 -7.71118e-06 0
0.000173909 -7.71118e-06 0
0.000189289 -7.6565e-06 0
0.000189289 -7.6565e-06 0
0.000204554 -7.59687e-06 0
0.000204554 -7.59687e-06 0
0.000219695 -7.53232e-06 0
0.000219695 -7.53232e-06 0
0.000234702 -7.46292e-06 0
0.000234702 -7.46292e-06 0
0.000249565 -7.38875e-06 0
0.000249565 -7.38875e-06 0
0.000264276 -7.30992e-06 0
0.000264276 -7.30992e-06 0
0.000278824 -7.22657e-06 0
0.000278824 -7.22657e-06 0
0.0002932 -7.13887e-06 0
0.0002932 -7.13887e-06 0
0.000307397 -7.04702e-06 0
0.000307397 -7.04702e-06 0
0.000321406 -6.95121e-06 0
0.000321406 -6.95121e-06 0
0.000335219 -6.85169e-06 0
0.000335219 -6.85169e-06 0
0.00034883 -6.74871e-06 0
0.00034883 -6.74871e-06 0
0.000362231 -6.64254e-06 0
0.000362231 -6.64254e-06 0
0.000375417 -6.53344e-06 0
0.000375417 -6.53344e-06 0
0.000388381 -6.4217e-06 0
0.000388381 -6.4217e-06 0
0.000401119 -6.30762e-06 0
0.000401119 -6.30762e-06 0
0.000413627 -6.19149e-06 0
0.000413627 -6.19149e-06 0
0.000425901 -6.07359e-06 0
0.000425901 -6.07359e-06 0
0.000437937 -5.95422e-06 0
0.000437937 -5.95422e-06 0
0.000449732 -5.83366e-06 0
0.000449732 -5.83366e-06 0
0.000461286 -5.71217e-06 0
0.000461286 -5.71217e-06 0
0.000472595 -5.59004e-06 0
0.000472595 -5.59004e-06 0
0.000483659 -5.46751e-06 0
0.000483659 -5.46751e-06 0
0.000494478 -5.34483e-06 0
0.000494478 -5.34483e-06 0
0.000505052 -5.22222e-06 0
0.000505052 -5.22222e-06 0
0.00051538 -5.0999e-06 0
0.00051538 -5.0999e-06 0
0.000525463 -4.97807e-06 0
0.000525463 -4.97807e-06 0
0.000535304 -4.85692e-06 0
0.000535304 -4.85692e-06 0
0.000544903 -4.73662e-06 0
0.000544903 -4.73662e-06 0
0.000554261 -4.61732e-06 0
0.000554261 -4.61732e-06 0
0.000563383 -4.49917e-06 0
0.000563383 -4.49917e-06 0
0.000572268 -4.3823e-06 0
0.000572268 -4.3823e-06 0
0.000580922 -4.26681e-06 0
0.000580922 -4.26681e-06 0
0.000589345 -4.15281e-06 0
0.000589345 -4.15281e-06 0
0.000597542 -4.04039e-06 0
0.000597542 -4.04039e-06 0
0.000605516 -3.92962e-06 0
0.000605516 -3.92962e-06 0
0.00061327 -3.82057e-06 0
0.00061327 -3.82057e-06 0
0.000620807 -3.71329e-06 0
0.000620807 -3.71329e-06 0
0.000628131 -3.60782e-06 0
0.000628131 -3.60782e-06 0
0.000635246 -3.5042e-06 0
0.000635246 -3.5042e-06 0
0.000642155 -3.40246e-06 0
0.000642155 -3.40246e-06 0
0.000648863 -3.30261e-06 0
0.000648863 -3.30261e-06 0
0.000655373 -3.20465e-06 0
0.000655373 -3.20465e-06 0
0.000661689 -3.1086e-06 0
0.000661689 -3.1086e-06 0
0.000667814 -3.01446e-06 0
0.000667814 -3.01446e-06 0
0.000673753 -2.9222e-06 0
0.000673753 -2.9222e-06 0
0.000679509 -2.83182e-06 0
0.000679509 -2.83182e-06 0
0.000685086 -2.74331e-06 0
0.000685086 -2.74331e-06 0
0.000690488 -2.65663e-06 0
0.000690488 -2.65663e-06 0
0.000695718 -2.57176e-06 0
0.000695718 -2.57176e-06 0
0.00070078 -2.48868e-06 0
0.00070078 -2.48868e-06 0
0.000705678 -2.40734e-06 0
0.000705678 -2.40734e-06 0
0.000710414 -2.32772e-06 0
0.000710414 -2.32772e-06 0
0.000714993 -2.24978e-06 0
0.000714993 -2.24978e-06 0
0.000719418 -2.17349e-06 0
0.000719418 -2.17349e-06 0
0.000723692 -2.09879e-06 0
0.000723692 -2.09879e-06 0
0.000727818 -2.02565e-06 0
0.000727818 -2.02565e-06 0
0.000731799 -1.95403e-06 0
0.000731799 -1.95403e-06 0
0.000735638 -1.88388e-06 0
0.000735638 -1.88388e-06 0
0.000739338 -1.81516e-06 0
0.000739338 -1.81516e-06 0
0.000742902 -1.74782e-06 0
0.000742902 -1.74782e-06 0
0.000746333 -1.68182e-06 0
0.000746333 -1.68182e-06 0
0.000749633 -1.61712e-06 0
0.000749633 -1.61712e-06 0
0.000752804 -1.55366e-06 0
0.000752804 -1.55366e-06 0
0.00075585 -1.49141e-06 0
0.00075585 -1.49141e-06 0
0.000758773 -1.43031e-06 0
0.000758773 -1.43031e-06 0
0.000761574 -1.37033e-06 0
0.000761574 -1.37033e-06 0
0.000764257 -1.31141e-06 0
0.000764257 -1.31141e-06 0
0.000766823 -1.25351e-06 0
0.000766823 -1.25351e-06 0
0.000769274 -1.19658e-06 0
0.000769274 -1.19658e-06 0
0.000771611 -1.14059e-06 0
0.000771611 -1.14059e-06 0
0.000773838 -1.08548e-06 0
0.000773838 -1.08548e-06 0
0.000775956 -1.03121e-06 0
0.000775956 -1.03121e-06 0
0.000777965 -9.77746e-07 0
0.000777965 -9.77746e-07 0
0.000779869 -9.25032e-07 0
0.000779869 -9.25032e-07 0
0.000781667 -8.73028e-07 0
0.000781667 -8.73028e-07 0
0.000783363 -8.21694e-07 0
0.000783363 -8.21694e-07 0
0.000784956 -7.70983e-07 0
0.000784956 -7.70983e-07 0
0.000786448 -7.20861e-07 0
0.000786448 -7.20861e-07 0
0.000787841 -6.71257e-07 0
0.000787841 -6.71257e-07 0
0.000789134 -6.22243e-07 0
0.000789134 -6.22243e-07 0
0.000790331 -5.73383e-07 0
0.000790331 -5.73383e-07 0
0.000791428 -5.2581e-07 0
0.000791428 -5.2581e-07 0
0.000792437 -4.76508e-07 0
0.000792437 -4.76508e-07 0
0.000793333 -4.31707e-07 0
0.000793333 -4.31707e-07 0
0.000794172 -3.8061e-07 0
0.000794172 -3.8061e-07 0
0.000794843 -3.38218e-07 0
0.000794843 -3.38218e-07 0
0.995708 -0.000303879 0
0.995708 -0.000303879 0
1.99062 -0.000607431 0
1.99062 -0.000607431 0
