# vtk DataFile Version 2.0
sampleSurface
ASCII
DATASET POLYDATA
POINTS 652 double
0 0 0
0.02 0 0
0.02 0 0.1
0 0 0.1
0.04 0 0
0.04 0 0.1
0.06 0 0
0.06 0 0.1
0.08 0 0
0.08 0 0.1
0.1 0 0
0.1 0 0.1
0.12 0 0
0.12 0 0.1
0.14 0 0
0.14 0 0.1
0.16 0 0
0.16 0 0.1
0.18 0 0
0.18 0 0.1
0.2 0 0
0.2 0 0.1
0.22 0 0
0.22 0 0.1
0.24 0 0
0.24 0 0.1
0.26 0 0
0.26 0 0.1
0.28 0 0
0.28 0 0.1
0.3 0 0
0.3 0 0.1
0.32 0 0
0.32 0 0.1
0.34 0 0
0.34 0 0.1
0.36 0 0
0.36 0 0.1
0.38 0 0
0.38 0 0.1
0.4 0 0
0.4 0 0.1
0.42 0 0
0.42 0 0.1
0.44 0 0
0.44 0 0.1
0.46 0 0
0.46 0 0.1
0.48 0 0
0.48 0 0.1
0.5 0 0
0.5 0 0.1
0.52 0 0
0.52 0 0.1
0.54 0 0
0.54 0 0.1
0.56 0 0
0.56 0 0.1
0.58 0 0
0.58 0 0.1
0.6 0 0
0.6 0 0.1
0.62 0 0
0.62 0 0.1
0.64 0 0
0.64 0 0.1
0.66 0 0
0.66 0 0.1
0.68 0 0
0.68 0 0.1
0.7 0 0
0.7 0 0.1
0.72 0 0
0.72 0 0.1
0.74 0 0
0.74 0 0.1
0.76 0 0
0.76 0 0.1
0.78 0 0
0.78 0 0.1
0.8 0 0
0.8 0 0.1
0.82 0 0
0.82 0 0.1
0.84 0 0
0.84 0 0.1
0.86 0 0
0.86 0 0.1
0.88 0 0
0.88 0 0.1
0.9 0 0
0.9 0 0.1
0.92 0 0
0.92 0 0.1
0.94 0 0
0.94 0 0.1
0.96 0 0
0.96 0 0.1
0.98 0 0
0.98 0 0.1
1 0 0
1 0 0.1
1.02 0 0
1.02 0 0.1
1.04 0 0
1.04 0 0.1
1.06 0 0
1.06 0 0.1
1.08 0 0
1.08 0 0.1
1.1 0 0
1.1 0 0.1
1.12 0 0
1.12 0 0.1
1.14 0 0
1.14 0 0.1
1.16 0 0
1.16 0 0.1
1.18 0 0
1.18 0 0.1
1.2 0 0
1.2 0 0.1
1.22 0 0
1.22 0 0.1
1.24 0 0
1.24 0 0.1
1.26 0 0
1.26 0 0.1
1.28 0 0
1.28 0 0.1
1.3 0 0
1.3 0 0.1
1.32 0 0
1.32 0 0.1
1.34 0 0
1.34 0 0.1
1.36 0 0
1.36 0 0.1
1.38 0 0
1.38 0 0.1
1.4 0 0
1.4 0 0.1
1.42 0 0
1.42 0 0.1
1.44 0 0
1.44 0 0.1
1.46 0 0
1.46 0 0.1
1.48 0 0
1.48 0 0.1
1.5 0 0
1.5 0 0.1
1.52 0 0
1.52 0 0.1
1.54 0 0
1.54 0 0.1
1.56 0 0
1.56 0 0.1
1.58 0 0
1.58 0 0.1
1.6 0 0
1.6 0 0.1
1.62 0 0
1.62 0 0.1
1.64 0 0
1.64 0 0.1
1.66 0 0
1.66 0 0.1
1.68 0 0
1.68 0 0.1
1.7 0 0
1.7 0 0.1
1.72 0 0
1.72 0 0.1
1.74 0 0
1.74 0 0.1
1.76 0 0
1.76 0 0.1
1.78 0 0
1.78 0 0.1
1.8 0 0
1.8 0 0.1
1.82 0 0
1.82 0 0.1
1.84 0 0
1.84 0 0.1
1.86 0 0
1.86 0 0.1
1.88 0 0
1.88 0 0.1
1.9 0 0
1.9 0 0.1
1.92 0 0
1.92 0 0.1
1.94 0 0
1.94 0 0.1
1.96 0 0
1.96 0 0.1
1.98 0 0
1.98 0 0.1
2 0 0
2 0 0.1
2 0.02 0
2 0.02 0.1
2 0.04 0
2 0.04 0.1
2 0.06 0
2 0.06 0.1
2 0.08 0
2 0.08 0.1
2 0.1 0
2 0.1 0.1
2 0.12 0
2 0.12 0.1
2 0.14 0
2 0.14 0.1
2 0.16 0
2 0.16 0.1
2 0.18 0
2 0.18 0.1
2 0.2 0
2 0.2 0.1
2 0.22 0
2 0.22 0.1
2 0.24 0
2 0.24 0.1
2 0.26 0
2 0.26 0.1
2 0.28 0
2 0.28 0.1
2 0.3 0
2 0.3 0.1
2 0.32 0
2 0.32 0.1
2 0.34 0
2 0.34 0.1
2 0.36 0
2 0.36 0.1
2 0.38 0
2 0.38 0.1
2 0.4 0
2 0.4 0.1
2 0.42 0
2 0.42 0.1
2 0.44 0
2 0.44 0.1
2 0.46 0
2 0.46 0.1
2 0.48 0
2 0.48 0.1
2 0.5 0
2 0.5 0.1
2 0.52 0
2 0.52 0.1
2 0.54 0
2 0.54 0.1
2 0.56 0
2 0.56 0.1
2 0.58 0
2 0.58 0.1
2 0.6 0
2 0.6 0.1
2 0.62 0
2 0.62 0.1
2 0.64 0
2 0.64 0.1
2 0.66 0
2 0.66 0.1
2 0.68 0
2 0.68 0.1
2 0.7 0
2 0.7 0.1
2 0.72 0
2 0.72 0.1
2 0.74 0
2 0.74 0.1
2 0.76 0
2 0.76 0.1
2 0.78 0
2 0.78 0.1
2 0.8 0
2 0.8 0.1
2 0.82 0
2 0.82 0.1
2 0.84 0
2 0.84 0.1
2 0.86 0
2 0.86 0.1
2 0.88 0
2 0.88 0.1
2 0.9 0
2 0.9 0.1
2 0.92 0
2 0.92 0.1
2 0.94 0
2 0.94 0.1
2 0.96 0
2 0.96 0.1
2 0.98 0
2 0.98 0.1
2 1 0
2 1 0.1
2.02 1 0
2.02 1 0.1
2.04 1 0
2.04 1 0.1
2.06 1 0
2.06 1 0.1
2.08 1 0
2.08 1 0.1
2.1 1 0
2.1 1 0.1
2.12 1 0
2.12 1 0.1
2.14 1 0
2.14 1 0.1
2.16 1 0
2.16 1 0.1
2.18 1 0
2.18 1 0.1
2.2 1 0
2.2 1 0.1
2.22 1 0
2.22 1 0.1
2.24 1 0
2.24 1 0.1
2.26 1 0
2.26 1 0.1
2.28 1 0
2.28 1 0.1
2.3 1 0
2.3 1 0.1
2.32 1 0
2.32 1 0.1
2.34 1 0
2.34 1 0.1
2.36 1 0
2.36 1 0.1
2.38 1 0
2.38 1 0.1
2.4 1 0
2.4 1 0.1
2.42 1 0
2.42 1 0.1
2.44 1 0
2.44 1 0.1
2.46 1 0
2.46 1 0.1
2.48 1 0
2.48 1 0.1
2.5 1 0
2.5 1 0.1
2.5 0 0
2.5 0 0.1
2.5 0.02 0.1
2.5 0.02 0
2.5 0.04 0.1
2.5 0.04 0
2.5 0.06 0.1
2.5 0.06 0
2.5 0.08 0.1
2.5 0.08 0
2.5 0.1 0.1
2.5 0.1 0
2.5 0.12 0.1
2.5 0.12 0
2.5 0.14 0.1
2.5 0.14 0
2.5 0.16 0.1
2.5 0.16 0
2.5 0.18 0.1
2.5 0.18 0
2.5 0.2 0.1
2.5 0.2 0
2.5 0.22 0.1
2.5 0.22 0
2.5 0.24 0.1
2.5 0.24 0
2.5 0.26 0.1
2.5 0.26 0
2.5 0.28 0.1
2.5 0.28 0
2.5 0.3 0.1
2.5 0.3 0
2.5 0.32 0.1
2.5 0.32 0
2.5 0.34 0.1
2.5 0.34 0
2.5 0.36 0.1
2.5 0.36 0
2.5 0.38 0.1
2.5 0.38 0
2.5 0.4 0.1
2.5 0.4 0
2.5 0.42 0.1
2.5 0.42 0
2.5 0.44 0.1
2.5 0.44 0
2.5 0.46 0.1
2.5 0.46 0
2.5 0.48 0.1
2.5 0.48 0
2.5 0.5 0.1
2.5 0.5 0
2.5 0.52 0.1
2.5 0.52 0
2.5 0.54 0.1
2.5 0.54 0
2.5 0.56 0.1
2.5 0.56 0
2.5 0.58 0.1
2.5 0.58 0
2.5 0.6 0.1
2.5 0.6 0
2.5 0.62 0.1
2.5 0.62 0
2.5 0.64 0.1
2.5 0.64 0
2.5 0.66 0.1
2.5 0.66 0
2.5 0.68 0.1
2.5 0.68 0
2.5 0.7 0.1
2.5 0.7 0
2.5 0.72 0.1
2.5 0.72 0
2.5 0.74 0.1
2.5 0.74 0
2.5 0.76 0.1
2.5 0.76 0
2.5 0.78 0.1
2.5 0.78 0
2.5 0.8 0.1
2.5 0.8 0
2.5 0.82 0.1
2.5 0.82 0
2.5 0.84 0.1
2.5 0.84 0
2.5 0.86 0.1
2.5 0.86 0
2.5 0.88 0.1
2.5 0.88 0
2.5 0.9 0.1
2.5 0.9 0
2.5 0.92 0.1
2.5 0.92 0
2.5 0.94 0.1
2.5 0.94 0
2.5 0.96 0.1
2.5 0.96 0
2.5 0.98 0.1
2.5 0.98 0
2.52 0 0
2.52 0 0.1
2.54 0 0
2.54 0 0.1
2.56 0 0
2.56 0 0.1
2.58 0 0
2.58 0 0.1
2.6 0 0
2.6 0 0.1
2.62 0 0
2.62 0 0.1
2.64 0 0
2.64 0 0.1
2.66 0 0
2.66 0 0.1
2.68 0 0
2.68 0 0.1
2.7 0 0
2.7 0 0.1
2.72 0 0
2.72 0 0.1
2.74 0 0
2.74 0 0.1
2.76 0 0
2.76 0 0.1
2.78 0 0
2.78 0 0.1
2.8 0 0
2.8 0 0.1
2.82 0 0
2.82 0 0.1
2.84 0 0
2.84 0 0.1
2.86 0 0
2.86 0 0.1
2.88 0 0
2.88 0 0.1
2.9 0 0
2.9 0 0.1
2.92 0 0
2.92 0 0.1
2.94 0 0
2.94 0 0.1
2.96 0 0
2.96 0 0.1
2.98 0 0
2.98 0 0.1
3 0 0
3 0 0.1
3.02 0 0
3.02 0 0.1
3.04 0 0
3.04 0 0.1
3.06 0 0
3.06 0 0.1
3.08 0 0
3.08 0 0.1
3.1 0 0
3.1 0 0.1
3.12 0 0
3.12 0 0.1
3.14 0 0
3.14 0 0.1
3.16 0 0
3.16 0 0.1
3.18 0 0
3.18 0 0.1
3.2 0 0
3.2 0 0.1
3.22 0 0
3.22 0 0.1
3.24 0 0
3.24 0 0.1
3.26 0 0
3.26 0 0.1
3.28 0 0
3.28 0 0.1
3.3 0 0
3.3 0 0.1
3.32 0 0
3.32 0 0.1
3.34 0 0
3.34 0 0.1
3.36 0 0
3.36 0 0.1
3.38 0 0
3.38 0 0.1
3.4 0 0
3.4 0 0.1
3.42 0 0
3.42 0 0.1
3.44 0 0
3.44 0 0.1
3.46 0 0
3.46 0 0.1
3.48 0 0
3.48 0 0.1
3.5 0 0
3.5 0 0.1
3.52 0 0
3.52 0 0.1
3.54 0 0
3.54 0 0.1
3.56 0 0
3.56 0 0.1
3.58 0 0
3.58 0 0.1
3.6 0 0
3.6 0 0.1
3.62 0 0
3.62 0 0.1
3.64 0 0
3.64 0 0.1
3.66 0 0
3.66 0 0.1
3.68 0 0
3.68 0 0.1
3.7 0 0
3.7 0 0.1
3.72 0 0
3.72 0 0.1
3.74 0 0
3.74 0 0.1
3.76 0 0
3.76 0 0.1
3.78 0 0
3.78 0 0.1
3.8 0 0
3.8 0 0.1
3.82 0 0
3.82 0 0.1
3.84 0 0
3.84 0 0.1
3.86 0 0
3.86 0 0.1
3.88 0 0
3.88 0 0.1
3.9 0 0
3.9 0 0.1
3.92 0 0
3.92 0 0.1
3.94 0 0
3.94 0 0.1
3.96 0 0
3.96 0 0.1
3.98 0 0
3.98 0 0.1
4 0 0
4 0 0.1
4.02 0 0
4.02 0 0.1
4.04 0 0
4.04 0 0.1
4.06 0 0
4.06 0 0.1
4.08 0 0
4.08 0 0.1
4.1 0 0
4.1 0 0.1
4.12 0 0
4.12 0 0.1
4.14 0 0
4.14 0 0.1
4.16 0 0
4.16 0 0.1
4.18 0 0
4.18 0 0.1
4.2 0 0
4.2 0 0.1
4.22 0 0
4.22 0 0.1
4.24 0 0
4.24 0 0.1
4.26 0 0
4.26 0 0.1
4.28 0 0
4.28 0 0.1
4.3 0 0
4.3 0 0.1
4.32 0 0
4.32 0 0.1
4.34 0 0
4.34 0 0.1
4.36 0 0
4.36 0 0.1
4.38 0 0
4.38 0 0.1
4.4 0 0
4.4 0 0.1
4.42 0 0
4.42 0 0.1
4.44 0 0
4.44 0 0.1
4.46 0 0
4.46 0 0.1
4.48 0 0
4.48 0 0.1
4.5 0 0
4.5 0 0.1

POLYGONS 325 1625
4 0 1 2 3
4 1 4 5 2
4 4 6 7 5
4 6 8 9 7
4 8 10 11 9
4 10 12 13 11
4 12 14 15 13
4 14 16 17 15
4 16 18 19 17
4 18 20 21 19
4 20 22 23 21
4 22 24 25 23
4 24 26 27 25
4 26 28 29 27
4 28 30 31 29
4 30 32 33 31
4 32 34 35 33
4 34 36 37 35
4 36 38 39 37
4 38 40 41 39
4 40 42 43 41
4 42 44 45 43
4 44 46 47 45
4 46 48 49 47
4 48 50 51 49
4 50 52 53 51
4 52 54 55 53
4 54 56 57 55
4 56 58 59 57
4 58 60 61 59
4 60 62 63 61
4 62 64 65 63
4 64 66 67 65
4 66 68 69 67
4 68 70 71 69
4 70 72 73 71
4 72 74 75 73
4 74 76 77 75
4 76 78 79 77
4 78 80 81 79
4 80 82 83 81
4 82 84 85 83
4 84 86 87 85
4 86 88 89 87
4 88 90 91 89
4 90 92 93 91
4 92 94 95 93
4 94 96 97 95
4 96 98 99 97
4 98 100 101 99
4 100 102 103 101
4 102 104 105 103
4 104 106 107 105
4 106 108 109 107
4 108 110 111 109
4 110 112 113 111
4 112 114 115 113
4 114 116 117 115
4 116 118 119 117
4 118 120 121 119
4 120 122 123 121
4 122 124 125 123
4 124 126 127 125
4 126 128 129 127
4 128 130 131 129
4 130 132 133 131
4 132 134 135 133
4 134 136 137 135
4 136 138 139 137
4 138 140 141 139
4 140 142 143 141
4 142 144 145 143
4 144 146 147 145
4 146 148 149 147
4 148 150 151 149
4 150 152 153 151
4 152 154 155 153
4 154 156 157 155
4 156 158 159 157
4 158 160 161 159
4 160 162 163 161
4 162 164 165 163
4 164 166 167 165
4 166 168 169 167
4 168 170 171 169
4 170 172 173 171
4 172 174 175 173
4 174 176 177 175
4 176 178 179 177
4 178 180 181 179
4 180 182 183 181
4 182 184 185 183
4 184 186 187 185
4 186 188 189 187
4 188 190 191 189
4 190 192 193 191
4 192 194 195 193
4 194 196 197 195
4 196 198 199 197
4 198 200 201 199
4 200 202 203 201
4 202 204 205 203
4 204 206 207 205
4 206 208 209 207
4 208 210 211 209
4 210 212 213 211
4 212 214 215 213
4 214 216 217 215
4 216 218 219 217
4 218 220 221 219
4 220 222 223 221
4 222 224 225 223
4 224 226 227 225
4 226 228 229 227
4 228 230 231 229
4 230 232 233 231
4 232 234 235 233
4 234 236 237 235
4 236 238 239 237
4 238 240 241 239
4 240 242 243 241
4 242 244 245 243
4 244 246 247 245
4 246 248 249 247
4 248 250 251 249
4 250 252 253 251
4 252 254 255 253
4 254 256 257 255
4 256 258 259 257
4 258 260 261 259
4 260 262 263 261
4 262 264 265 263
4 264 266 267 265
4 266 268 269 267
4 268 270 271 269
4 270 272 273 271
4 272 274 275 273
4 274 276 277 275
4 276 278 279 277
4 278 280 281 279
4 280 282 283 281
4 282 284 285 283
4 284 286 287 285
4 286 288 289 287
4 288 290 291 289
4 290 292 293 291
4 292 294 295 293
4 294 296 297 295
4 296 298 299 297
4 298 300 301 299
4 300 302 303 301
4 302 304 305 303
4 304 306 307 305
4 306 308 309 307
4 308 310 311 309
4 310 312 313 311
4 312 314 315 313
4 314 316 317 315
4 316 318 319 317
4 318 320 321 319
4 320 322 323 321
4 322 324 325 323
4 324 326 327 325
4 326 328 329 327
4 328 330 331 329
4 330 332 333 331
4 332 334 335 333
4 334 336 337 335
4 336 338 339 337
4 338 340 341 339
4 340 342 343 341
4 342 344 345 343
4 344 346 347 345
4 346 348 349 347
4 348 350 351 349
4 352 353 354 355
4 355 354 356 357
4 357 356 358 359
4 359 358 360 361
4 361 360 362 363
4 363 362 364 365
4 365 364 366 367
4 367 366 368 369
4 369 368 370 371
4 371 370 372 373
4 373 372 374 375
4 375 374 376 377
4 377 376 378 379
4 379 378 380 381
4 381 380 382 383
4 383 382 384 385
4 385 384 386 387
4 387 386 388 389
4 389 388 390 391
4 391 390 392 393
4 393 392 394 395
4 395 394 396 397
4 397 396 398 399
4 399 398 400 401
4 401 400 402 403
4 403 402 404 405
4 405 404 406 407
4 407 406 408 409
4 409 408 410 411
4 411 410 412 413
4 413 412 414 415
4 415 414 416 417
4 417 416 418 419
4 419 418 420 421
4 421 420 422 423
4 423 422 424 425
4 425 424 426 427
4 427 426 428 429
4 429 428 430 431
4 431 430 432 433
4 433 432 434 435
4 435 434 436 437
4 437 436 438 439
4 439 438 440 441
4 441 440 442 443
4 443 442 444 445
4 445 444 446 447
4 447 446 448 449
4 449 448 450 451
4 451 450 351 350
4 352 452 453 353
4 452 454 455 453
4 454 456 457 455
4 456 458 459 457
4 458 460 461 459
4 460 462 463 461
4 462 464 465 463
4 464 466 467 465
4 466 468 469 467
4 468 470 471 469
4 470 472 473 471
4 472 474 475 473
4 474 476 477 475
4 476 478 479 477
4 478 480 481 479
4 480 482 483 481
4 482 484 485 483
4 484 486 487 485
4 486 488 489 487
4 488 490 491 489
4 490 492 493 491
4 492 494 495 493
4 494 496 497 495
4 496 498 499 497
4 498 500 501 499
4 500 502 503 501
4 502 504 505 503
4 504 506 507 505
4 506 508 509 507
4 508 510 511 509
4 510 512 513 511
4 512 514 515 513
4 514 516 517 515
4 516 518 519 517
4 518 520 521 519
4 520 522 523 521
4 522 524 525 523
4 524 526 527 525
4 526 528 529 527
4 528 530 531 529
4 530 532 533 531
4 532 534 535 533
4 534 536 537 535
4 536 538 539 537
4 538 540 541 539
4 540 542 543 541
4 542 544 545 543
4 544 546 547 545
4 546 548 549 547
4 548 550 551 549
4 550 552 553 551
4 552 554 555 553
4 554 556 557 555
4 556 558 559 557
4 558 560 561 559
4 560 562 563 561
4 562 564 565 563
4 564 566 567 565
4 566 568 569 567
4 568 570 571 569
4 570 572 573 571
4 572 574 575 573
4 574 576 577 575
4 576 578 579 577
4 578 580 581 579
4 580 582 583 581
4 582 584 585 583
4 584 586 587 585
4 586 588 589 587
4 588 590 591 589
4 590 592 593 591
4 592 594 595 593
4 594 596 597 595
4 596 598 599 597
4 598 600 601 599
4 600 602 603 601
4 602 604 605 603
4 604 606 607 605
4 606 608 609 607
4 608 610 611 609
4 610 612 613 611
4 612 614 615 613
4 614 616 617 615
4 616 618 619 617
4 618 620 621 619
4 620 622 623 621
4 622 624 625 623
4 624 626 627 625
4 626 628 629 627
4 628 630 631 629
4 630 632 633 631
4 632 634 635 633
4 634 636 637 635
4 636 638 639 637
4 638 640 641 639
4 640 642 643 641
4 642 644 645 643
4 644 646 647 645
4 646 648 649 647
4 648 650 651 649
POINT_DATA 652
FIELD attributes 1
U 3 652 float
2.43892 0.0271898 0.00745426
1.21995 0.0135917 0.00372713
1.21995 0.0135917 0.00372713
2.43892 0.0271898 0.00745426
0.000988925 -3.53905e-06 0
0.000988925 -3.53905e-06 0
0.000989064 -4.03005e-07 0
0.000989064 -4.03005e-07 0
0.000989263 -1.03924e-06 0
0.000989263 -1.03924e-06 0
0.000990433 -2.37412e-06 0
0.000990433 -2.37412e-06 0
0.000991174 -1.953e-06 0
0.000991174 -1.953e-06 0
0.00099031 1.59963e-07 0
0.00099031 1.59963e-07 0
0.000988289 2.10218e-06 0
0.000988289 2.10218e-06 0
0.000986385 2.47938e-06 0
0.000986385 2.47938e-06 0
0.000985443 1.80665e-06 0
0.000985443 1.80665e-06 0
0.000985088 1.59442e-06 0
0.000985088 1.59442e-06 0
0.000984147 2.43328e-06 0
0.000984147 2.43328e-06 0
0.000981952 3.39911e-06 0
0.000981952 3.39911e-06 0
0.000978992 3.28382e-06 0
0.000978992 3.28382e-06 0
0.000976255 2.10145e-06 0
0.000976255 2.10145e-06 0
0.000974172 1.18336e-06 0
0.000974172 1.18336e-06 0
0.00097227 1.78379e-06 0
0.00097227 1.78379e-06 0
0.000969678 3.73231e-06 0
0.000969678 3.73231e-06 0
0.000965944 5.5254e-06 0
0.000965944 5.5254e-06 0
0.00096144 5.67742e-06 0
0.00096144 5.67742e-06 0
0.000957021 3.99128e-06 0
0.000957021 3.99128e-06 0
0.000953293 1.67653e-06 0
0.000953293 1.67653e-06 0
0.000950155 3.39318e-07 0
0.000950155 3.39318e-07 0
0.000946883 8.05287e-07 0
0.000946883 8.05287e-07 0
0.000942572 2.7202e-06 0
0.000942572 2.7202e-06 0
0.000936643 5.01287e-06 0
0.000936643 5.01287e-06 0
0.000929103 6.66928e-06 0
0.000929103 6.66928e-06 0
0.000920442 7.24999e-06 0
0.000920442 7.24999e-06 0
0.000911306 6.9195e-06 0
0.000911306 6.9195e-06 0
0.00090219 6.14124e-06 0
0.00090219 6.14124e-06 0
0.000893321 5.3441e-06 0
0.000893321 5.3441e-06 0
0.000884709 4.75772e-06 0
0.000884709 4.75772e-06 0
0.000876262 4.42403e-06 0
0.000876262 4.42403e-06 0
0.000867867 4.28566e-06 0
0.000867867 4.28566e-06 0
0.000859442 4.26427e-06 0
0.000859442 4.26427e-06 0
0.00085094 4.29971e-06 0
0.00085094 4.29971e-06 0
0.000842338 4.3578e-06 0
0.000842338 4.3578e-06 0
0.000833626 4.42345e-06 0
0.000833626 4.42345e-06 0
0.000824799 4.49164e-06 0
0.000824799 4.49164e-06 0
0.000815854 4.56137e-06 0
0.000815854 4.56137e-06 0
0.000806787 4.63276e-06 0
0.000806787 4.63276e-06 0
0.000797594 4.706e-06 0
0.000797594 4.706e-06 0
0.00078827 4.78123e-06 0
0.00078827 4.78123e-06 0
0.000778811 4.85848e-06 0
0.000778811 4.85848e-06 0
0.000769212 4.93772e-06 0
0.000769212 4.93772e-06 0
0.000759471 5.01896e-06 0
0.000759471 5.01896e-06 0
0.000749581 5.10213e-06 0
0.000749581 5.10213e-06 0
0.000739538 5.1872e-06 0
0.000739538 5.1872e-06 0
0.000729338 5.2741e-06 0
0.000729338 5.2741e-06 0
0.000718977 5.36278e-06 0
0.000718977 5.36278e-06 0
0.00070845 5.45314e-06 0
0.00070845 5.45314e-06 0
0.000697753 5.54512e-06 0
0.000697753 5.54512e-06 0
0.000686881 5.63859e-06 0
0.000686881 5.63859e-06 0
0.000675832 5.73345e-06 0
0.000675832 5.73345e-06 0
0.000664601 5.82957e-06 0
0.000664601 5.82957e-06 0
0.000653184 5.9268e-06 0
0.000653184 5.9268e-06 0
0.000641577 6.02498e-06 0
0.000641577 6.02498e-06 0
0.000629778 6.1239e-06 0
0.000629778 6.1239e-06 0
0.000617784 6.22335e-06 0
0.000617784 6.22335e-06 0
0.000605592 6.32305e-06 0
0.000605592 6.32305e-06 0
0.000593199 6.42274e-06 0
0.000593199 6.42274e-06 0
0.000580604 6.52212e-06 0
0.000580604 6.52212e-06 0
0.000567806 6.62091e-06 0
0.000567806 6.62091e-06 0
0.000554802 6.71883e-06 0
0.000554802 6.71883e-06 0
0.000541594 6.81567e-06 0
0.000541594 6.81567e-06 0
0.000528181 6.91123e-06 0
0.000528181 6.91123e-06 0
0.000514564 7.00486e-06 0
0.000514564 7.00486e-06 0
0.000500747 7.09529e-06 0
0.000500747 7.09529e-06 0
0.00048673 7.18118e-06 0
0.00048673 7.18118e-06 0
0.000472516 7.2615e-06 0
0.000472516 7.2615e-06 0
0.00045811 7.33553e-06 0
0.00045811 7.33553e-06 0
0.000443516 7.40271e-06 0
0.000443516 7.40271e-06 0
0.000428739 7.4625e-06 0
0.000428739 7.4625e-06 0
0.000413787 7.51434e-06 0
0.000413787 7.51434e-06 0
0.000398668 7.55762e-06 0
0.000398668 7.55762e-06 0
0.00038339 7.59173e-06 0
0.00038339 7.59173e-06 0
0.000367964 7.61606e-06 0
0.000367964 7.61606e-06 0
0.000352399 7.63011e-06 0
0.000352399 7.63011e-06 0
0.000336709 7.63343e-06 0
0.000336709 7.63343e-06 0
0.000320906 7.6257e-06 0
0.000320906 7.6257e-06 0
0.000305002 7.60674e-06 0
0.000305002 7.60674e-06 0
0.000289013 7.57655e-06 0
0.000289013 7.57655e-06 0
0.000272953 7.5353e-06 0
0.000272953 7.5353e-06 0
0.000256836 7.4834e-06 0
0.000256836 7.4834e-06 0
0.000240677 7.42147e-06 0
0.000240677 7.42147e-06 0
0.00022449 7.35041e-06 0
0.00022449 7.35041e-06 0
0.00020829 7.27139e-06 0
0.00020829 7.27139e-06 0
0.000192089 7.18581e-06 0
0.000192089 7.18581e-06 0
0.000175899 7.09537e-06 0
0.000175899 7.09537e-06 0
0.000159729 7.00198e-06 0
0.000159729 7.00198e-06 0
0.00014359 6.90774e-06 0
0.00014359 6.90774e-06 0
0.000127486 6.8149e-06 0
0.000127486 6.8149e-06 0
0.000111422 6.7258e-06 0
0.000111422 6.7258e-06 0
9.54002e-05 6.64279e-06 0
9.54002e-05 6.64279e-06 0
7.942e-05 6.5681e-06 0
7.942e-05 6.5681e-06 0
6.34788e-05 6.50391e-06 0
6.34788e-05 6.50391e-06 0
4.75717e-05 6.45153e-06 0
4.75717e-05 6.45153e-06 0
3.16933e-05 6.41107e-06 0
3.16933e-05 6.41107e-06 0
1.58342e-05 6.38803e-06 0
1.58342e-05 6.38803e-06 0
7.90757e-06 6.38227e-06 0
7.90757e-06 6.38227e-06 0
9.0597e-06 1.59329e-05 0
9.0597e-06 1.59329e-05 0
1.00689e-05 3.61617e-05 0
1.00689e-05 3.61617e-05 0
9.76437e-06 5.62836e-05 0
9.76437e-06 5.62836e-05 0
9.54748e-06 7.53373e-05 0
9.54748e-06 7.53373e-05 0
9.49273e-06 9.44613e-05 0
9.49273e-06 9.44613e-05 0
9.51393e-06 0.000113497 0
9.51393e-06 0.000113497 0
9.56225e-06 0.000132597 0
9.56225e-06 0.000132597 0
9.62172e-06 0.000151814 0
9.62172e-06 0.000151814 0
9.68923e-06 0.000171162 0
9.68923e-06 0.000171162 0
9.76492e-06 0.000190651 0
9.76492e-06 0.000190651 0
9.84947e-06 0.0002103 0
9.84947e-06 0.0002103 0
9.94352e-06 0.000230128 0
9.94352e-06 0.000230128 0
1.00477e-05 0.000250153 0
1.00477e-05 0.000250153 0
1.01626e-05 0.000270396 0
1.01626e-05 0.000270396 0
1.02889e-05 0.000290881 0
1.02889e-05 0.000290881 0
1.04275e-05 0.00031163 0
1.04275e-05 0.00031163 0
1.05793e-05 0.000332669 0
1.05793e-05 0.000332669 0
1.07452e-05 0.000354025 0
1.07452e-05 0.000354025 0
1.09264e-05 0.000375727 0
1.09264e-05 0.000375727 0
1.11242e-05 0.000397807 0
1.11242e-05 0.000397807 0
1.13402e-05 0.0004203 0
1.13402e-05 0.0004203 0
1.15764e-05 0.000443244 0
1.15764e-05 0.000443244 0
1.18329e-05 0.00046668 0
1.18329e-05 0.00046668 0
1.21163e-05 0.000490655 0
1.21163e-05 0.000490655 0
1.24233e-05 0.000515215 0
1.24233e-05 0.000515215 0
1.27613e-05 0.000540424 0
1.27613e-05 0.000540424 0
1.3134e-05 0.000566336 0
1.3134e-05 0.000566336 0
1.35439e-05 0.00059303 0
1.35439e-05 0.00059303 0
1.39883e-05 0.000620574 0
1.39883e-05 0.000620574 0
1.45009e-05 0.000649082 0
1.45009e-05 0.000649082 0
1.50436e-05 0.000678615 0
1.50436e-05 0.000678615 0
1.56764e-05 0.000709351 0
1.56764e-05 0.000709351 0
1.63491e-05 0.000741354 0
1.63491e-05 0.000741354 0
1.71805e-05 0.000774896 0
1.71805e-05 0.000774896 0
1.79937e-05 0.000809986 0
1.79937e-05 0.000809986 0
1.90972e-05 0.000847114 0
1.90972e-05 0.000847114 0
2.0151e-05 0.000886185 0
2.0151e-05 0.000886185 0
2.17366e-05 0.000928111 0
2.17366e-05 0.000928111 0
2.29358e-05 0.00097242 0
2.29358e-05 0.00097242 0
2.54272e-05 0.00102088 0
2.54272e-05 0.00102088 0
2.68131e-05 0.00107241 0
2.68131e-05 0.00107241 0
3.11811e-05 0.00113038 0
3.11811e-05 0.00113038 0
3.25613e-05 0.00119268 0
3.25613e-05 0.00119268 0
4.06846e-05 0.00126544 0
4.06846e-05 0.00126544 0
4.22258e-05 0.00134576 0
4.22258e-05 0.00134576 0
6.00613e-05 0.0014448 0
6.00613e-05 0.0014448 0
6.46419e-05 0.00156223 0
6.46419e-05 0.00156223 0
0.000114293 0.00171825 0
0.000114293 0.00171825 0
0.000142246 0.00192837 0
0.000142246 0.00192837 0
9.98659e-05 0.00114895 0
9.98659e-05 0.00114895 0
-0.000332698 -9.66609e-05 0
-0.000332698 -9.66609e-05 0
-0.000166604 -0.000553119 0
-0.000166604 -0.000553119 0
0.000420329 -0.000492343 0
0.000420329 -0.000492343 0
0.000409488 -0.000143658 0
0.000409488 -0.000143658 0
-4.38e-05 0.000274924 0
-4.38e-05 0.000274924 0
-0.000973668 0.000520429 0
-0.000973668 0.000520429 0
-0.00185752 0.000484021 0
-0.00185752 0.000484021 0
-0.00258404 0.000376191 0
-0.00258404 0.000376191 0
-0.00311388 0.000257545 0
-0.00311388 0.000257545 0
-0.00342925 0.000135875 0
-0.00342925 0.000135875 0
-0.00353039 2.27698e-05 0
-0.00353039 2.27698e-05 0
-0.00344513 -7.38898e-05 0
-0.00344513 -7.38898e-05 0
-0.00320579 -0.000149272 0
-0.00320579 -0.000149272 0
-0.00284785 -0.00020314 0
-0.00284785 -0.00020314 0
-0.00240885 -0.000236401 0
-0.00240885 -0.000236401 0
-0.00192694 -0.000251504 0
-0.00192694 -0.000251504 0
-0.00143372 -0.000252119 0
-0.00143372 -0.000252119 0
-0.000952658 -0.000239911 0
-0.000952658 -0.000239911 0
-0.000502007 -0.00021632 0
-0.000502007 -0.00021632 0
-0.00010172 -0.000188812 0
-0.00010172 -0.000188812 0
0.000245465 -0.000167412 0
0.000245465 -0.000167412 0
0.000540969 -0.000138665 0
0.000540969 -0.000138665 0
0.000796993 -0.000128509 0
0.000796993 -0.000128509 0
0.00101928 -0.000111436 0
0.00101928 -0.000111436 0
0.000650767 -6.99717e-05 0
0.000650767 -6.99717e-05 0
-1.04455e-06 3.42819e-07 0
-1.04455e-06 3.42819e-07 0
-1.06246e-06 6.88204e-07 0
-1.06246e-06 6.88204e-07 0
-1.11591e-06 1.43149e-06 0
-1.11591e-06 1.43149e-06 0
-1.20495e-06 2.31663e-06 0
-1.20495e-06 2.31663e-06 0
-1.33008e-06 3.41551e-06 0
-1.33008e-06 3.41551e-06 0
-1.49109e-06 4.80366e-06 0
-1.49109e-06 4.80366e-06 0
-1.68996e-06 6.56147e-06 0
-1.68996e-06 6.56147e-06 0
-1.92899e-06 8.77204e-06 0
-1.92899e-06 8.77204e-06 0
-2.21146e-06 1.15236e-05 0
-2.21146e-06 1.15236e-05 0
-2.54114e-06 1.49113e-05 0
-2.54114e-06 1.49113e-05 0
-2.92155e-06 1.90408e-05 0
-2.92155e-06 1.90408e-05 0
-3.35663e-06 2.40216e-05 0
-3.35663e-06 2.40216e-05 0
-3.84964e-06 2.99742e-05 0
-3.84964e-06 2.99742e-05 0
-4.40637e-06 3.70356e-05 0
-4.40637e-06 3.70356e-05 0
-5.03368e-06 4.53518e-05 0
-5.03368e-06 4.53518e-05 0
-5.73844e-06 5.50865e-05 0
-5.73844e-06 5.50865e-05 0
-6.52937e-06 6.642e-05 0
-6.52937e-06 6.642e-05 0
-7.41475e-06 7.95515e-05 0
-7.41475e-06 7.95515e-05 0
-8.40483e-06 9.47032e-05 0
-8.40483e-06 9.47032e-05 0
-9.51074e-06 0.000112114 0
-9.51074e-06 0.000112114 0
-1.07425e-05 0.000132054 0
-1.07425e-05 0.000132054 0
-1.21101e-05 0.000154798 0
-1.21101e-05 0.000154798 0
-1.36216e-05 0.000180668 0
-1.36216e-05 0.000180668 0
-1.52828e-05 0.000209948 0
-1.52828e-05 0.000209948 0
-1.70908e-05 0.000243012 0
-1.70908e-05 0.000243012 0
-1.90436e-05 0.000280073 0
-1.90436e-05 0.000280073 0
-2.11005e-05 0.000321537 0
-2.11005e-05 0.000321537 0
-2.32728e-05 0.00036742 0
-2.32728e-05 0.00036742 0
-2.53782e-05 0.000418043 0
-2.53782e-05 0.000418043 0
-2.75141e-05 0.000473024 0
-2.75141e-05 0.000473024 0
-2.9413e-05 0.000532344 0
-2.9413e-05 0.000532344 0
-3.06717e-05 0.000595227 0
-3.06717e-05 0.000595227 0
-3.15837e-05 0.000660373 0
-3.15837e-05 0.000660373 0
-3.18227e-05 0.000726918 0
-3.18227e-05 0.000726918 0
-3.05777e-05 0.000792974 0
-3.05777e-05 0.000792974 0
-2.7574e-05 0.000854983 0
-2.7574e-05 0.000854983 0
-2.28863e-05 0.000910068 0
-2.28863e-05 0.000910068 0
-1.65161e-05 0.000954045 0
-1.65161e-05 0.000954045 0
-8.22735e-06 0.000983613 0
-8.22735e-06 0.000983613 0
2.86475e-06 0.00099351 0
2.86475e-06 0.00099351 0
1.72931e-05 0.000980983 0
1.72931e-05 0.000980983 0
3.36937e-05 0.000938092 0
3.36937e-05 0.000938092 0
5.14413e-05 0.00086912 0
5.14413e-05 0.00086912 0
6.71164e-05 0.000763526 0
6.71164e-05 0.000763526 0
8.4495e-05 0.000641521 0
8.4495e-05 0.000641521 0
9.59195e-05 0.000471586 0
9.59195e-05 0.000471586 0
0.00010876 0.000318792 0
0.00010876 0.000318792 0
4.18177e-05 0.000100346 0
4.18177e-05 0.000100346 0
-7.10507e-05 4.89463e-05 0
-7.10507e-05 4.89463e-05 0
3.91469e-05 6.17818e-05 0
3.91469e-05 6.17818e-05 0
-6.76863e-07 -6.1462e-08 0
-6.76863e-07 -6.1462e-08 0
2.45616e-07 -3.93308e-07 0
2.45616e-07 -3.93308e-07 0
9.33961e-07 -3.31255e-07 0
9.33961e-07 -3.31255e-07 0
1.57732e-06 -4.01223e-07 0
1.57732e-06 -4.01223e-07 0
2.56813e-06 -5.5154e-07 0
2.56813e-06 -5.5154e-07 0
3.82675e-06 -7.45312e-07 0
3.82675e-06 -7.45312e-07 0
5.56796e-06 -9.66211e-07 0
5.56796e-06 -9.66211e-07 0
7.75206e-06 -1.21408e-06 0
7.75206e-06 -1.21408e-06 0
1.04643e-05 -1.48508e-06 0
1.04643e-05 -1.48508e-06 0
1.37412e-05 -1.77624e-06 0
1.37412e-05 -1.77624e-06 0
1.76213e-05 -2.08403e-06 0
1.76213e-05 -2.08403e-06 0
2.2134e-05 -2.40482e-06 0
2.2134e-05 -2.40482e-06 0
2.73014e-05 -2.73489e-06 0
2.73014e-05 -2.73489e-06 0
3.31383e-05 -3.07052e-06 0
3.31383e-05 -3.07052e-06 0
3.96517e-05 -3.40802e-06 0
3.96517e-05 -3.40802e-06 0
4.68415e-05 -3.74382e-06 0
4.68415e-05 -3.74382e-06 0
5.47004e-05 -4.07449e-06 0
5.47004e-05 -4.07449e-06 0
6.32149e-05 -4.39687e-06 0
6.32149e-05 -4.39687e-06 0
7.23649e-05 -4.70806e-06 0
7.23649e-05 -4.70806e-06 0
8.21253e-05 -5.00547e-06 0
8.21253e-05 -5.00547e-06 0
9.24657e-05 -5.28681e-06 0
9.24657e-05 -5.28681e-06 0
0.000103352 -5.55017e-06 0
0.000103352 -5.55017e-06 0
0.000114745 -5.79396e-06 0
0.000114745 -5.79396e-06 0
0.000126606 -6.01697e-06 0
0.000126606 -6.01697e-06 0
0.000138891 -6.21833e-06 0
0.000138891 -6.21833e-06 0
0.000151557 -6.39749e-06 0
0.000151557 -6.39749e-06 0
0.000164558 -6.55421e-06 0
0.000164558 -6.55421e-06 0
0.000177849 -6.68854e-06 0
0.000177849 -6.68854e-06 0
0.000191386 -6.80077e-06 0
0.000191386 -6.80077e-06 0
0.000205126 -6.8914e-06 0
0.000205126 -6.8914e-06 0
0.000219025 -6.96114e-06 0
0.000219025 -6.96114e-06 0
0.000233043 -7.01084e-06 0
0.000233043 -7.01084e-06 0
0.000247141 -7.04147e-06 0
0.000247141 -7.04147e-06 0
0.000261282 -7.05412e-06 0
0.000261282 -7.05412e-06 0
0.000275431 -7.04992e-06 0
0.000275431 -7.04992e-06 0
0.000289556 -7.03006e-06 0
0.000289556 -7.03006e-06 0
0.000303625 -6.99575e-06 0
0.000303625 -6.99575e-06 0
0.000317613 -6.94822e-06 0
0.000317613 -6.94822e-06 0
0.000331492 -6.88867e-06 0
0.000331492 -6.88867e-06 0
0.000345241 -6.81827e-06 0
0.000345241 -6.81827e-06 0
0.000358839 -6.73816e-06 0
0.000358839 -6.73816e-06 0
0.000372267 -6.64944e-06 0
0.000372267 -6.64944e-06 0
0.000385509 -6.55314e-06 0
0.000385509 -6.55314e-06 0
0.000398551 -6.45025e-06 0
0.000398551 -6.45025e-06 0
0.00041138 -6.34169e-06 0
0.00041138 -6.34169e-06 0
0.000423987 -6.22833e-06 0
0.000423987 -6.22833e-06 0
0.000436362 -6.11095e-06 0
0.000436362 -6.11095e-06 0
0.000448499 -5.99031e-06 0
0.000448499 -5.99031e-06 0
0.00046039 -5.86707e-06 0
0.00046039 -5.86707e-06 0
0.000472032 -5.74186e-06 0
0.000472032 -5.74186e-06 0
0.000483422 -5.61523e-06 0
0.000483422 -5.61523e-06 0
0.000494556 -5.48769e-06 0
0.000494556 -5.48769e-06 0
0.000505435 -5.35971e-06 0
0.000505435 -5.35971e-06 0
0.000516056 -5.23168e-06 0
0.000516056 -5.23168e-06 0
0.000526421 -5.10397e-06 0
0.000526421 -5.10397e-06 0
0.00053653 -4.9769e-06 0
0.00053653 -4.9769e-06 0
0.000546386 -4.85075e-06 0
0.000546386 -4.85075e-06 0
0.00055599 -4.72577e-06 0
0.00055599 -4.72577e-06 0
0.000565344 -4.60218e-06 0
0.000565344 -4.60218e-06 0
0.000574452 -4.48015e-06 0
0.000574452 -4.48015e-06 0
0.000583318 -4.35984e-06 0
0.000583318 -4.35984e-06 0
0.000591944 -4.24139e-06 0
0.000591944 -4.24139e-06 0
0.000600334 -4.1249e-06 0
0.000600334 -4.1249e-06 0
0.000608493 -4.01046e-06 0
0.000608493 -4.01046e-06 0
0.000616424 -3.89813e-06 0
0.000616424 -3.89813e-06 0
0.000624133 -3.78798e-06 0
0.000624133 -3.78798e-06 0
0.000631623 -3.68004e-06 0
0.000631623 -3.68004e-06 0
0.000638898 -3.57433e-06 0
0.000638898 -3.57433e-06 0
0.000645964 -3.47087e-06 0
0.000645964 -3.47087e-06 0
0.000652825 -3.36966e-06 0
0.000652825 -3.36966e-06 0
0.000659485 -3.2707e-06 0
0.000659485 -3.2707e-06 0
0.000665949 -3.17397e-06 0
0.000665949 -3.17397e-06 0
0.000672222 -3.07944e-06 0
0.000672222 -3.07944e-06 0
0.000678307 -2.98711e-06 0
0.000678307 -2.98711e-06 0
0.000684209 -2.89692e-06 0
0.000684209 -2.89692e-06 0
0.000689932 -2.80885e-06 0
0.000689932 -2.80885e-06 0
0.000695481 -2.72285e-06 0
0.000695481 -2.72285e-06 0
0.000700859 -2.63888e-06 0
0.000700859 -2.63888e-06 0
0.000706071 -2.5569e-06 0
0.000706071 -2.5569e-06 0
0.000711121 -2.47685e-06 0
0.000711121 -2.47685e-06 0
0.000716012 -2.39868e-06 0
0.000716012 -2.39868e-06 0
0.000720748 -2.32236e-06 0
0.000720748 -2.32236e-06 0
0.000725333 -2.24779e-06 0
0.000725333 -2.24779e-06 0
0.00072977 -2.17498e-06 0
0.00072977 -2.17498e-06 0
0.000734063 -2.10379e-06 0
0.000734063 -2.10379e-06 0
0.000738214 -2.03427e-06 0
0.000738214 -2.03427e-06 0
0.000742229 -1.96623e-06 0
0.000742229 -1.96623e-06 0
0.000746106 -1.89981e-06 0
0.000746106 -1.89981e-06 0
0.000749857 -1.83465e-06 0
0.000749857 -1.83465e-06 0
0.000753469 -1.77115e-06 0
0.000753469 -1.77115e-06 0
0.00075697 -1.70856e-06 0
0.00075697 -1.70856e-06 0
0.000760323 -1.64789e-06 0
0.000760323 -1.64789e-06 0
0.000763594 -1.58746e-06 0
0.000763594 -1.58746e-06 0
0.000766683 -1.52967e-06 0
0.000766683 -1.52967e-06 0
0.000769755 -1.47071e-06 0
0.000769755 -1.47071e-06 0
0.000772557 -1.41629e-06 0
0.000772557 -1.41629e-06 0
0.000775487 -1.35755e-06 0
0.000775487 -1.35755e-06 0
0.000777926 -1.30783e-06 0
0.000777926 -1.30783e-06 0
0.979517 -0.00149911 0
0.979517 -0.00149911 0
1.95825 -0.00299693 0
1.95825 -0.00299693 0
