# vtk DataFile Version 2.0
sampleSurface
ASCII
DATASET POLYDATA
POINTS 652 double
0 0 0
0.02 0 0
0.02 0 0.1
0 0 0.1
0.04 0 0
0.04 0 0.1
0.06 0 0
0.06 0 0.1
0.08 0 0
0.08 0 0.1
0.1 0 0
0.1 0 0.1
0.12 0 0
0.12 0 0.1
0.14 0 0
0.14 0 0.1
0.16 0 0
0.16 0 0.1
0.18 0 0
0.18 0 0.1
0.2 0 0
0.2 0 0.1
0.22 0 0
0.22 0 0.1
0.24 0 0
0.24 0 0.1
0.26 0 0
0.26 0 0.1
0.28 0 0
0.28 0 0.1
0.3 0 0
0.3 0 0.1
0.32 0 0
0.32 0 0.1
0.34 0 0
0.34 0 0.1
0.36 0 0
0.36 0 0.1
0.38 0 0
0.38 0 0.1
0.4 0 0
0.4 0 0.1
0.42 0 0
0.42 0 0.1
0.44 0 0
0.44 0 0.1
0.46 0 0
0.46 0 0.1
0.48 0 0
0.48 0 0.1
0.5 0 0
0.5 0 0.1
0.52 0 0
0.52 0 0.1
0.54 0 0
0.54 0 0.1
0.56 0 0
0.56 0 0.1
0.58 0 0
0.58 0 0.1
0.6 0 0
0.6 0 0.1
0.62 0 0
0.62 0 0.1
0.64 0 0
0.64 0 0.1
0.66 0 0
0.66 0 0.1
0.68 0 0
0.68 0 0.1
0.7 0 0
0.7 0 0.1
0.72 0 0
0.72 0 0.1
0.74 0 0
0.74 0 0.1
0.76 0 0
0.76 0 0.1
0.78 0 0
0.78 0 0.1
0.8 0 0
0.8 0 0.1
0.82 0 0
0.82 0 0.1
0.84 0 0
0.84 0 0.1
0.86 0 0
0.86 0 0.1
0.88 0 0
0.88 0 0.1
0.9 0 0
0.9 0 0.1
0.92 0 0
0.92 0 0.1
0.94 0 0
0.94 0 0.1
0.96 0 0
0.96 0 0.1
0.98 0 0
0.98 0 0.1
1 0 0
1 0 0.1
1.02 0 0
1.02 0 0.1
1.04 0 0
1.04 0 0.1
1.06 0 0
1.06 0 0.1
1.08 0 0
1.08 0 0.1
1.1 0 0
1.1 0 0.1
1.12 0 0
1.12 0 0.1
1.14 0 0
1.14 0 0.1
1.16 0 0
1.16 0 0.1
1.18 0 0
1.18 0 0.1
1.2 0 0
1.2 0 0.1
1.22 0 0
1.22 0 0.1
1.24 0 0
1.24 0 0.1
1.26 0 0
1.26 0 0.1
1.28 0 0
1.28 0 0.1
1.3 0 0
1.3 0 0.1
1.32 0 0
1.32 0 0.1
1.34 0 0
1.34 0 0.1
1.36 0 0
1.36 0 0.1
1.38 0 0
1.38 0 0.1
1.4 0 0
1.4 0 0.1
1.42 0 0
1.42 0 0.1
1.44 0 0
1.44 0 0.1
1.46 0 0
1.46 0 0.1
1.48 0 0
1.48 0 0.1
1.5 0 0
1.5 0 0.1
1.52 0 0
1.52 0 0.1
1.54 0 0
1.54 0 0.1
1.56 0 0
1.56 0 0.1
1.58 0 0
1.58 0 0.1
1.6 0 0
1.6 0 0.1
1.62 0 0
1.62 0 0.1
1.64 0 0
1.64 0 0.1
1.66 0 0
1.66 0 0.1
1.68 0 0
1.68 0 0.1
1.7 0 0
1.7 0 0.1
1.72 0 0
1.72 0 0.1
1.74 0 0
1.74 0 0.1
1.76 0 0
1.76 0 0.1
1.78 0 0
1.78 0 0.1
1.8 0 0
1.8 0 0.1
1.82 0 0
1.82 0 0.1
1.84 0 0
1.84 0 0.1
1.86 0 0
1.86 0 0.1
1.88 0 0
1.88 0 0.1
1.9 0 0
1.9 0 0.1
1.92 0 0
1.92 0 0.1
1.94 0 0
1.94 0 0.1
1.96 0 0
1.96 0 0.1
1.98 0 0
1.98 0 0.1
2 0 0
2 0 0.1
2 0.02 0
2 0.02 0.1
2 0.04 0
2 0.04 0.1
2 0.06 0
2 0.06 0.1
2 0.08 0
2 0.08 0.1
2 0.1 0
2 0.1 0.1
2 0.12 0
2 0.12 0.1
2 0.14 0
2 0.14 0.1
2 0.16 0
2 0.16 0.1
2 0.18 0
2 0.18 0.1
2 0.2 0
2 0.2 0.1
2 0.22 0
2 0.22 0.1
2 0.24 0
2 0.24 0.1
2 0.26 0
2 0.26 0.1
2 0.28 0
2 0.28 0.1
2 0.3 0
2 0.3 0.1
2 0.32 0
2 0.32 0.1
2 0.34 0
2 0.34 0.1
2 0.36 0
2 0.36 0.1
2 0.38 0
2 0.38 0.1
2 0.4 0
2 0.4 0.1
2 0.42 0
2 0.42 0.1
2 0.44 0
2 0.44 0.1
2 0.46 0
2 0.46 0.1
2 0.48 0
2 0.48 0.1
2 0.5 0
2 0.5 0.1
2 0.52 0
2 0.52 0.1
2 0.54 0
2 0.54 0.1
2 0.56 0
2 0.56 0.1
2 0.58 0
2 0.58 0.1
2 0.6 0
2 0.6 0.1
2 0.62 0
2 0.62 0.1
2 0.64 0
2 0.64 0.1
2 0.66 0
2 0.66 0.1
2 0.68 0
2 0.68 0.1
2 0.7 0
2 0.7 0.1
2 0.72 0
2 0.72 0.1
2 0.74 0
2 0.74 0.1
2 0.76 0
2 0.76 0.1
2 0.78 0
2 0.78 0.1
2 0.8 0
2 0.8 0.1
2 0.82 0
2 0.82 0.1
2 0.84 0
2 0.84 0.1
2 0.86 0
2 0.86 0.1
2 0.88 0
2 0.88 0.1
2 0.9 0
2 0.9 0.1
2 0.92 0
2 0.92 0.1
2 0.94 0
2 0.94 0.1
2 0.96 0
2 0.96 0.1
2 0.98 0
2 0.98 0.1
2 1 0
2 1 0.1
2.02 1 0
2.02 1 0.1
2.04 1 0
2.04 1 0.1
2.06 1 0
2.06 1 0.1
2.08 1 0
2.08 1 0.1
2.1 1 0
2.1 1 0.1
2.12 1 0
2.12 1 0.1
2.14 1 0
2.14 1 0.1
2.16 1 0
2.16 1 0.1
2.18 1 0
2.18 1 0.1
2.2 1 0
2.2 1 0.1
2.22 1 0
2.22 1 0.1
2.24 1 0
2.24 1 0.1
2.26 1 0
2.26 1 0.1
2.28 1 0
2.28 1 0.1
2.3 1 0
2.3 1 0.1
2.32 1 0
2.32 1 0.1
2.34 1 0
2.34 1 0.1
2.36 1 0
2.36 1 0.1
2.38 1 0
2.38 1 0.1
2.4 1 0
2.4 1 0.1
2.42 1 0
2.42 1 0.1
2.44 1 0
2.44 1 0.1
2.46 1 0
2.46 1 0.1
2.48 1 0
2.48 1 0.1
2.5 1 0
2.5 1 0.1
2.5 0 0
2.5 0 0.1
2.5 0.02 0.1
2.5 0.02 0
2.5 0.04 0.1
2.5 0.04 0
2.5 0.06 0.1
2.5 0.06 0
2.5 0.08 0.1
2.5 0.08 0
2.5 0.1 0.1
2.5 0.1 0
2.5 0.12 0.1
2.5 0.12 0
2.5 0.14 0.1
2.5 0.14 0
2.5 0.16 0.1
2.5 0.16 0
2.5 0.18 0.1
2.5 0.18 0
2.5 0.2 0.1
2.5 0.2 0
2.5 0.22 0.1
2.5 0.22 0
2.5 0.24 0.1
2.5 0.24 0
2.5 0.26 0.1
2.5 0.26 0
2.5 0.28 0.1
2.5 0.28 0
2.5 0.3 0.1
2.5 0.3 0
2.5 0.32 0.1
2.5 0.32 0
2.5 0.34 0.1
2.5 0.34 0
2.5 0.36 0.1
2.5 0.36 0
2.5 0.38 0.1
2.5 0.38 0
2.5 0.4 0.1
2.5 0.4 0
2.5 0.42 0.1
2.5 0.42 0
2.5 0.44 0.1
2.5 0.44 0
2.5 0.46 0.1
2.5 0.46 0
2.5 0.48 0.1
2.5 0.48 0
2.5 0.5 0.1
2.5 0.5 0
2.5 0.52 0.1
2.5 0.52 0
2.5 0.54 0.1
2.5 0.54 0
2.5 0.56 0.1
2.5 0.56 0
2.5 0.58 0.1
2.5 0.58 0
2.5 0.6 0.1
2.5 0.6 0
2.5 0.62 0.1
2.5 0.62 0
2.5 0.64 0.1
2.5 0.64 0
2.5 0.66 0.1
2.5 0.66 0
2.5 0.68 0.1
2.5 0.68 0
2.5 0.7 0.1
2.5 0.7 0
2.5 0.72 0.1
2.5 0.72 0
2.5 0.74 0.1
2.5 0.74 0
2.5 0.76 0.1
2.5 0.76 0
2.5 0.78 0.1
2.5 0.78 0
2.5 0.8 0.1
2.5 0.8 0
2.5 0.82 0.1
2.5 0.82 0
2.5 0.84 0.1
2.5 0.84 0
2.5 0.86 0.1
2.5 0.86 0
2.5 0.88 0.1
2.5 0.88 0
2.5 0.9 0.1
2.5 0.9 0
2.5 0.92 0.1
2.5 0.92 0
2.5 0.94 0.1
2.5 0.94 0
2.5 0.96 0.1
2.5 0.96 0
2.5 0.98 0.1
2.5 0.98 0
2.52 0 0
2.52 0 0.1
2.54 0 0
2.54 0 0.1
2.56 0 0
2.56 0 0.1
2.58 0 0
2.58 0 0.1
2.6 0 0
2.6 0 0.1
2.62 0 0
2.62 0 0.1
2.64 0 0
2.64 0 0.1
2.66 0 0
2.66 0 0.1
2.68 0 0
2.68 0 0.1
2.7 0 0
2.7 0 0.1
2.72 0 0
2.72 0 0.1
2.74 0 0
2.74 0 0.1
2.76 0 0
2.76 0 0.1
2.78 0 0
2.78 0 0.1
2.8 0 0
2.8 0 0.1
2.82 0 0
2.82 0 0.1
2.84 0 0
2.84 0 0.1
2.86 0 0
2.86 0 0.1
2.88 0 0
2.88 0 0.1
2.9 0 0
2.9 0 0.1
2.92 0 0
2.92 0 0.1
2.94 0 0
2.94 0 0.1
2.96 0 0
2.96 0 0.1
2.98 0 0
2.98 0 0.1
3 0 0
3 0 0.1
3.02 0 0
3.02 0 0.1
3.04 0 0
3.04 0 0.1
3.06 0 0
3.06 0 0.1
3.08 0 0
3.08 0 0.1
3.1 0 0
3.1 0 0.1
3.12 0 0
3.12 0 0.1
3.14 0 0
3.14 0 0.1
3.16 0 0
3.16 0 0.1
3.18 0 0
3.18 0 0.1
3.2 0 0
3.2 0 0.1
3.22 0 0
3.22 0 0.1
3.24 0 0
3.24 0 0.1
3.26 0 0
3.26 0 0.1
3.28 0 0
3.28 0 0.1
3.3 0 0
3.3 0 0.1
3.32 0 0
3.32 0 0.1
3.34 0 0
3.34 0 0.1
3.36 0 0
3.36 0 0.1
3.38 0 0
3.38 0 0.1
3.4 0 0
3.4 0 0.1
3.42 0 0
3.42 0 0.1
3.44 0 0
3.44 0 0.1
3.46 0 0
3.46 0 0.1
3.48 0 0
3.48 0 0.1
3.5 0 0
3.5 0 0.1
3.52 0 0
3.52 0 0.1
3.54 0 0
3.54 0 0.1
3.56 0 0
3.56 0 0.1
3.58 0 0
3.58 0 0.1
3.6 0 0
3.6 0 0.1
3.62 0 0
3.62 0 0.1
3.64 0 0
3.64 0 0.1
3.66 0 0
3.66 0 0.1
3.68 0 0
3.68 0 0.1
3.7 0 0
3.7 0 0.1
3.72 0 0
3.72 0 0.1
3.74 0 0
3.74 0 0.1
3.76 0 0
3.76 0 0.1
3.78 0 0
3.78 0 0.1
3.8 0 0
3.8 0 0.1
3.82 0 0
3.82 0 0.1
3.84 0 0
3.84 0 0.1
3.86 0 0
3.86 0 0.1
3.88 0 0
3.88 0 0.1
3.9 0 0
3.9 0 0.1
3.92 0 0
3.92 0 0.1
3.94 0 0
3.94 0 0.1
3.96 0 0
3.96 0 0.1
3.98 0 0
3.98 0 0.1
4 0 0
4 0 0.1
4.02 0 0
4.02 0 0.1
4.04 0 0
4.04 0 0.1
4.06 0 0
4.06 0 0.1
4.08 0 0
4.08 0 0.1
4.1 0 0
4.1 0 0.1
4.12 0 0
4.12 0 0.1
4.14 0 0
4.14 0 0.1
4.16 0 0
4.16 0 0.1
4.18 0 0
4.18 0 0.1
4.2 0 0
4.2 0 0.1
4.22 0 0
4.22 0 0.1
4.24 0 0
4.24 0 0.1
4.26 0 0
4.26 0 0.1
4.28 0 0
4.28 0 0.1
4.3 0 0
4.3 0 0.1
4.32 0 0
4.32 0 0.1
4.34 0 0
4.34 0 0.1
4.36 0 0
4.36 0 0.1
4.38 0 0
4.38 0 0.1
4.4 0 0
4.4 0 0.1
4.42 0 0
4.42 0 0.1
4.44 0 0
4.44 0 0.1
4.46 0 0
4.46 0 0.1
4.48 0 0
4.48 0 0.1
4.5 0 0
4.5 0 0.1

POLYGONS 325 1625
4 0 1 2 3
4 1 4 5 2
4 4 6 7 5
4 6 8 9 7
4 8 10 11 9
4 10 12 13 11
4 12 14 15 13
4 14 16 17 15
4 16 18 19 17
4 18 20 21 19
4 20 22 23 21
4 22 24 25 23
4 24 26 27 25
4 26 28 29 27
4 28 30 31 29
4 30 32 33 31
4 32 34 35 33
4 34 36 37 35
4 36 38 39 37
4 38 40 41 39
4 40 42 43 41
4 42 44 45 43
4 44 46 47 45
4 46 48 49 47
4 48 50 51 49
4 50 52 53 51
4 52 54 55 53
4 54 56 57 55
4 56 58 59 57
4 58 60 61 59
4 60 62 63 61
4 62 64 65 63
4 64 66 67 65
4 66 68 69 67
4 68 70 71 69
4 70 72 73 71
4 72 74 75 73
4 74 76 77 75
4 76 78 79 77
4 78 80 81 79
4 80 82 83 81
4 82 84 85 83
4 84 86 87 85
4 86 88 89 87
4 88 90 91 89
4 90 92 93 91
4 92 94 95 93
4 94 96 97 95
4 96 98 99 97
4 98 100 101 99
4 100 102 103 101
4 102 104 105 103
4 104 106 107 105
4 106 108 109 107
4 108 110 111 109
4 110 112 113 111
4 112 114 115 113
4 114 116 117 115
4 116 118 119 117
4 118 120 121 119
4 120 122 123 121
4 122 124 125 123
4 124 126 127 125
4 126 128 129 127
4 128 130 131 129
4 130 132 133 131
4 132 134 135 133
4 134 136 137 135
4 136 138 139 137
4 138 140 141 139
4 140 142 143 141
4 142 144 145 143
4 144 146 147 145
4 146 148 149 147
4 148 150 151 149
4 150 152 153 151
4 152 154 155 153
4 154 156 157 155
4 156 158 159 157
4 158 160 161 159
4 160 162 163 161
4 162 164 165 163
4 164 166 167 165
4 166 168 169 167
4 168 170 171 169
4 170 172 173 171
4 172 174 175 173
4 174 176 177 175
4 176 178 179 177
4 178 180 181 179
4 180 182 183 181
4 182 184 185 183
4 184 186 187 185
4 186 188 189 187
4 188 190 191 189
4 190 192 193 191
4 192 194 195 193
4 194 196 197 195
4 196 198 199 197
4 198 200 201 199
4 200 202 203 201
4 202 204 205 203
4 204 206 207 205
4 206 208 209 207
4 208 210 211 209
4 210 212 213 211
4 212 214 215 213
4 214 216 217 215
4 216 218 219 217
4 218 220 221 219
4 220 222 223 221
4 222 224 225 223
4 224 226 227 225
4 226 228 229 227
4 228 230 231 229
4 230 232 233 231
4 232 234 235 233
4 234 236 237 235
4 236 238 239 237
4 238 240 241 239
4 240 242 243 241
4 242 244 245 243
4 244 246 247 245
4 246 248 249 247
4 248 250 251 249
4 250 252 253 251
4 252 254 255 253
4 254 256 257 255
4 256 258 259 257
4 258 260 261 259
4 260 262 263 261
4 262 264 265 263
4 264 266 267 265
4 266 268 269 267
4 268 270 271 269
4 270 272 273 271
4 272 274 275 273
4 274 276 277 275
4 276 278 279 277
4 278 280 281 279
4 280 282 283 281
4 282 284 285 283
4 284 286 287 285
4 286 288 289 287
4 288 290 291 289
4 290 292 293 291
4 292 294 295 293
4 294 296 297 295
4 296 298 299 297
4 298 300 301 299
4 300 302 303 301
4 302 304 305 303
4 304 306 307 305
4 306 308 309 307
4 308 310 311 309
4 310 312 313 311
4 312 314 315 313
4 314 316 317 315
4 316 318 319 317
4 318 320 321 319
4 320 322 323 321
4 322 324 325 323
4 324 326 327 325
4 326 328 329 327
4 328 330 331 329
4 330 332 333 331
4 332 334 335 333
4 334 336 337 335
4 336 338 339 337
4 338 340 341 339
4 340 342 343 341
4 342 344 345 343
4 344 346 347 345
4 346 348 349 347
4 348 350 351 349
4 352 353 354 355
4 355 354 356 357
4 357 356 358 359
4 359 358 360 361
4 361 360 362 363
4 363 362 364 365
4 365 364 366 367
4 367 366 368 369
4 369 368 370 371
4 371 370 372 373
4 373 372 374 375
4 375 374 376 377
4 377 376 378 379
4 379 378 380 381
4 381 380 382 383
4 383 382 384 385
4 385 384 386 387
4 387 386 388 389
4 389 388 390 391
4 391 390 392 393
4 393 392 394 395
4 395 394 396 397
4 397 396 398 399
4 399 398 400 401
4 401 400 402 403
4 403 402 404 405
4 405 404 406 407
4 407 406 408 409
4 409 408 410 411
4 411 410 412 413
4 413 412 414 415
4 415 414 416 417
4 417 416 418 419
4 419 418 420 421
4 421 420 422 423
4 423 422 424 425
4 425 424 426 427
4 427 426 428 429
4 429 428 430 431
4 431 430 432 433
4 433 432 434 435
4 435 434 436 437
4 437 436 438 439
4 439 438 440 441
4 441 440 442 443
4 443 442 444 445
4 445 444 446 447
4 447 446 448 449
4 449 448 450 451
4 451 450 351 350
4 352 452 453 353
4 452 454 455 453
4 454 456 457 455
4 456 458 459 457
4 458 460 461 459
4 460 462 463 461
4 462 464 465 463
4 464 466 467 465
4 466 468 469 467
4 468 470 471 469
4 470 472 473 471
4 472 474 475 473
4 474 476 477 475
4 476 478 479 477
4 478 480 481 479
4 480 482 483 481
4 482 484 485 483
4 484 486 487 485
4 486 488 489 487
4 488 490 491 489
4 490 492 493 491
4 492 494 495 493
4 494 496 497 495
4 496 498 499 497
4 498 500 501 499
4 500 502 503 501
4 502 504 505 503
4 504 506 507 505
4 506 508 509 507
4 508 510 511 509
4 510 512 513 511
4 512 514 515 513
4 514 516 517 515
4 516 518 519 517
4 518 520 521 519
4 520 522 523 521
4 522 524 525 523
4 524 526 527 525
4 526 528 529 527
4 528 530 531 529
4 530 532 533 531
4 532 534 535 533
4 534 536 537 535
4 536 538 539 537
4 538 540 541 539
4 540 542 543 541
4 542 544 545 543
4 544 546 547 545
4 546 548 549 547
4 548 550 551 549
4 550 552 553 551
4 552 554 555 553
4 554 556 557 555
4 556 558 559 557
4 558 560 561 559
4 560 562 563 561
4 562 564 565 563
4 564 566 567 565
4 566 568 569 567
4 568 570 571 569
4 570 572 573 571
4 572 574 575 573
4 574 576 577 575
4 576 578 579 577
4 578 580 581 579
4 580 582 583 581
4 582 584 585 583
4 584 586 587 585
4 586 588 589 587
4 588 590 591 589
4 590 592 593 591
4 592 594 595 593
4 594 596 597 595
4 596 598 599 597
4 598 600 601 599
4 600 602 603 601
4 602 604 605 603
4 604 606 607 605
4 606 608 609 607
4 608 610 611 609
4 610 612 613 611
4 612 614 615 613
4 614 616 617 615
4 616 618 619 617
4 618 620 621 619
4 620 622 623 621
4 622 624 625 623
4 624 626 627 625
4 626 628 629 627
4 628 630 631 629
4 630 632 633 631
4 632 634 635 633
4 634 636 637 635
4 636 638 639 637
4 638 640 641 639
4 640 642 643 641
4 642 644 645 643
4 644 646 647 645
4 646 648 649 647
4 648 650 651 649
POINT_DATA 652
FIELD attributes 1
U 3 652 float
2.49672 -0.0467554 -0.00854553
1.24886 -0.0233727 -0.00427276
1.24886 -0.0233727 -0.00427276
2.49672 -0.0467554 -0.00854553
0.000993084 8.27756e-06 0
0.000993084 8.27756e-06 0
0.000989987 4.2625e-06 0
0.000989987 4.2625e-06 0
0.000988751 -2.236e-08 0
0.000988751 -2.236e-08 0
0.000988068 -2.876e-06 0
0.000988068 -2.876e-06 0
0.000988189 -3.07191e-06 0
0.000988189 -3.07191e-06 0
0.000988937 -9.21548e-07 0
0.000988937 -9.21548e-07 0
0.000988149 1.76989e-06 0
0.000988149 1.76989e-06 0
0.000984833 3.49376e-06 0
0.000984833 3.49376e-06 0
0.00098013 3.97495e-06 0
0.00098013 3.97495e-06 0
0.000974887 3.71987e-06 0
0.000974887 3.71987e-06 0
0.000969204 3.28794e-06 0
0.000969204 3.28794e-06 0
0.000963422 2.96117e-06 0
0.000963422 2.96117e-06 0
0.000957891 2.7892e-06 0
0.000957891 2.7892e-06 0
0.000952512 2.72677e-06 0
0.000952512 2.72677e-06 0
0.000947084 2.7205e-06 0
0.000947084 2.7205e-06 0
0.000941591 2.73686e-06 0
0.000941591 2.73686e-06 0
0.000936077 2.76095e-06 0
0.000936077 2.76095e-06 0
0.00093053 2.78785e-06 0
0.00093053 2.78785e-06 0
0.000924927 2.8163e-06 0
0.000924927 2.8163e-06 0
0.000919267 2.8461e-06 0
0.000919267 2.8461e-06 0
0.00091355 2.87735e-06 0
0.00091355 2.87735e-06 0
0.000907773 2.91016e-06 0
0.000907773 2.91016e-06 0
0.000901932 2.94461e-06 0
0.000901932 2.94461e-06 0
0.000896023 2.98076e-06 0
0.000896023 2.98076e-06 0
0.000890043 3.01865e-06 0
0.000890043 3.01865e-06 0
0.000883989 3.05831e-06 0
0.000883989 3.05831e-06 0
0.000877856 3.09978e-06 0
0.000877856 3.09978e-06 0
0.000871642 3.14309e-06 0
0.000871642 3.14309e-06 0
0.000865343 3.18827e-06 0
0.000865343 3.18827e-06 0
0.000858954 3.23535e-06 0
0.000858954 3.23535e-06 0
0.000852472 3.28436e-06 0
0.000852472 3.28436e-06 0
0.000845894 3.33534e-06 0
0.000845894 3.33534e-06 0
0.000839214 3.38831e-06 0
0.000839214 3.38831e-06 0
0.000832429 3.4433e-06 0
0.000832429 3.4433e-06 0
0.000825535 3.50036e-06 0
0.000825535 3.50036e-06 0
0.000818527 3.5595e-06 0
0.000818527 3.5595e-06 0
0.000811402 3.62076e-06 0
0.000811402 3.62076e-06 0
0.000804155 3.68416e-06 0
0.000804155 3.68416e-06 0
0.000796781 3.74973e-06 0
0.000796781 3.74973e-06 0
0.000789276 3.8175e-06 0
0.000789276 3.8175e-06 0
0.000781636 3.88748e-06 0
0.000781636 3.88748e-06 0
0.000773856 3.9597e-06 0
0.000773856 3.9597e-06 0
0.00076593 4.03416e-06 0
0.00076593 4.03416e-06 0
0.000757856 4.1109e-06 0
0.000757856 4.1109e-06 0
0.000749627 4.18991e-06 0
0.000749627 4.18991e-06 0
0.000741239 4.2712e-06 0
0.000741239 4.2712e-06 0
0.000732687 4.35477e-06 0
0.000732687 4.35477e-06 0
0.000723966 4.44063e-06 0
0.000723966 4.44063e-06 0
0.000715072 4.52875e-06 0
0.000715072 4.52875e-06 0
0.000706 4.61913e-06 0
0.000706 4.61913e-06 0
0.000696745 4.71175e-06 0
0.000696745 4.71175e-06 0
0.000687302 4.80657e-06 0
0.000687302 4.80657e-06 0
0.000677666 4.90357e-06 0
0.000677666 4.90357e-06 0
0.000667833 5.0027e-06 0
0.000667833 5.0027e-06 0
0.000657799 5.10392e-06 0
0.000657799 5.10392e-06 0
0.000647558 5.20717e-06 0
0.000647558 5.20717e-06 0
0.000637106 5.31238e-06 0
0.000637106 5.31238e-06 0
0.000626439 5.41947e-06 0
0.000626439 5.41947e-06 0
0.000615552 5.52839e-06 0
0.000615552 5.52839e-06 0
0.000604443 5.63902e-06 0
0.000604443 5.63902e-06 0
0.000593107 5.7513e-06 0
0.000593107 5.7513e-06 0
0.00058154 5.86512e-06 0
0.00058154 5.86512e-06 0
0.000569739 5.9804e-06 0
0.000569739 5.9804e-06 0
0.000557702 6.09708e-06 0
0.000557702 6.09708e-06 0
0.000545425 6.21506e-06 0
0.000545425 6.21506e-06 0
0.000532906 6.3343e-06 0
0.000532906 6.3343e-06 0
0.000520145 6.45453e-06 0
0.000520145 6.45453e-06 0
0.000507138 6.57508e-06 0
0.000507138 6.57508e-06 0
0.000493886 6.69529e-06 0
0.000493886 6.69529e-06 0
0.000480387 6.81474e-06 0
0.000480387 6.81474e-06 0
0.000466641 6.93318e-06 0
0.000466641 6.93318e-06 0
0.000452648 7.05036e-06 0
0.000452648 7.05036e-06 0
0.000438409 7.166e-06 0
0.000438409 7.166e-06 0
0.000423926 7.27985e-06 0
0.000423926 7.27985e-06 0
0.000409201 7.39161e-06 0
0.000409201 7.39161e-06 0
0.000394237 7.50099e-06 0
0.000394237 7.50099e-06 0
0.000379036 7.60771e-06 0
0.000379036 7.60771e-06 0
0.000363604 7.71146e-06 0
0.000363604 7.71146e-06 0
0.000347945 7.81197e-06 0
0.000347945 7.81197e-06 0
0.000332065 7.90896e-06 0
0.000332065 7.90896e-06 0
0.000315968 8.00216e-06 0
0.000315968 8.00216e-06 0
0.000299663 8.09133e-06 0
0.000299663 8.09133e-06 0
0.000283157 8.17624e-06 0
0.000283157 8.17624e-06 0
0.000266458 8.25668e-06 0
0.000266458 8.25668e-06 0
0.000249574 8.33247e-06 0
0.000249574 8.33247e-06 0
0.000232514 8.40345e-06 0
0.000232514 8.40345e-06 0
0.00021529 8.46948e-06 0
0.00021529 8.46948e-06 0
0.000197911 8.53045e-06 0
0.000197911 8.53045e-06 0
0.000180389 8.58626e-06 0
0.000180389 8.58626e-06 0
0.000162734 8.63686e-06 0
0.000162734 8.63686e-06 0
0.00014496 8.68219e-06 0
0.00014496 8.68219e-06 0
0.000127077 8.72223e-06 0
0.000127077 8.72223e-06 0
0.0001091 8.75696e-06 0
0.0001091 8.75696e-06 0
9.10407e-05 8.78638e-06 0
9.10407e-05 8.78638e-06 0
7.29127e-05 8.81047e-06 0
7.29127e-05 8.81047e-06 0
5.47297e-05 8.82915e-06 0
5.47297e-05 8.82915e-06 0
3.65058e-05 8.84229e-06 0
3.65058e-05 8.84229e-06 0
1.82554e-05 8.84911e-06 0
1.82554e-05 8.84911e-06 0
9.12529e-06 8.85074e-06 0
9.12529e-06 8.85074e-06 0
9.40483e-06 1.83321e-05 0
9.40483e-06 1.83321e-05 0
9.58786e-06 3.75349e-05 0
9.58786e-06 3.75349e-05 0
9.48368e-06 5.66809e-05 0
9.48368e-06 5.66809e-05 0
9.49226e-06 7.55999e-05 0
9.49226e-06 7.55999e-05 0
9.53047e-06 9.46314e-05 0
9.53047e-06 9.46314e-05 0
9.57868e-06 0.000113752 0
9.57868e-06 0.000113752 0
9.63584e-06 0.000132975 0
9.63584e-06 0.000132975 0
9.7025e-06 0.000152321 0
9.7025e-06 0.000152321 0
9.77909e-06 0.000171811 0
9.77909e-06 0.000171811 0
9.86604e-06 0.000191464 0
9.86604e-06 0.000191464 0
9.96386e-06 0.000211301 0
9.96386e-06 0.000211301 0
1.00731e-05 0.000231344 0
1.00731e-05 0.000231344 0
1.01944e-05 0.000251618 0
1.01944e-05 0.000251618 0
1.03286e-05 0.000272147 0
1.03286e-05 0.000272147 0
1.04764e-05 0.000292957 0
1.04764e-05 0.000292957 0
1.06389e-05 0.000314077 0
1.06389e-05 0.000314077 0
1.08171e-05 0.000335537 0
1.08171e-05 0.000335537 0
1.10123e-05 0.000357369 0
1.10123e-05 0.000357369 0
1.12259e-05 0.00037961 0
1.12259e-05 0.00037961 0
1.14597e-05 0.000402296 0
1.14597e-05 0.000402296 0
1.17153e-05 0.000425471 0
1.17153e-05 0.000425471 0
1.19951e-05 0.00044918 0
1.19951e-05 0.00044918 0
1.23015e-05 0.000473474 0
1.23015e-05 0.000473474 0
1.26374e-05 0.000498408 0
1.26374e-05 0.000498408 0
1.30061e-05 0.000524044 0
1.30061e-05 0.000524044 0
1.34116e-05 0.000550452 0
1.34116e-05 0.000550452 0
1.38585e-05 0.00057771 0
1.38585e-05 0.00057771 0
1.43521e-05 0.000605905 0
1.43521e-05 0.000605905 0
1.48998e-05 0.000635139 0
1.48998e-05 0.000635139 0
1.55062e-05 0.000665517 0
1.55062e-05 0.000665517 0
1.61903e-05 0.000697189 0
1.61903e-05 0.000697189 0
1.69408e-05 0.000730278 0
1.69408e-05 0.000730278 0
1.78108e-05 0.000764989 0
1.78108e-05 0.000764989 0
1.87988e-05 0.000801541 0
1.87988e-05 0.000801541 0
1.97804e-05 0.000840041 0
1.97804e-05 0.000840041 0
2.14372e-05 0.000881206 0
2.14372e-05 0.000881206 0
2.22247e-05 0.000924464 0
2.22247e-05 0.000924464 0
2.4777e-05 0.000971994 0
2.4777e-05 0.000971994 0
2.6201e-05 0.00102144 0
2.6201e-05 0.00102144 0
2.94131e-05 0.00107756 0
2.94131e-05 0.00107756 0
3.06283e-05 0.00113769 0
3.06283e-05 0.00113769 0
3.648e-05 0.00120345 0
3.648e-05 0.00120345 0
4.14447e-05 0.00128038 0
4.14447e-05 0.00128038 0
4.80172e-05 0.00136746 0
4.80172e-05 0.00136746 0
5.01686e-05 0.00146615 0
5.01686e-05 0.00146615 0
8.02159e-05 0.00159067 0
8.02159e-05 0.00159067 0
8.38641e-05 0.00174076 0
8.38641e-05 0.00174076 0
0.000169945 0.0019496 0
0.000169945 0.0019496 0
0.000199128 0.00224424 0
0.000199128 0.00224424 0
0.000341193 0.00161623 0
0.000341193 0.00161623 0
-0.000187389 0.000633887 0
-0.000187389 0.000633887 0
-0.00115732 0.000455162 0
-0.00115732 0.000455162 0
-0.00204582 0.000447947 0
-0.00204582 0.000447947 0
-0.00290934 0.000306499 0
-0.00290934 0.000306499 0
-0.00317784 7.07667e-05 0
-0.00317784 7.07667e-05 0
-0.00304559 -0.000158024 0
-0.00304559 -0.000158024 0
-0.00253085 -0.000319678 0
-0.00253085 -0.000319678 0
-0.00181386 -0.000362563 0
-0.00181386 -0.000362563 0
-0.00104117 -0.000349702 0
-0.00104117 -0.000349702 0
-0.000332762 -0.000320058 0
-0.000332762 -0.000320058 0
0.000258185 -0.000254716 0
0.000258185 -0.000254716 0
0.000687646 -0.000183666 0
0.000687646 -0.000183666 0
0.00102587 -0.000134907 0
0.00102587 -0.000134907 0
0.00127635 -0.000100893 0
0.00127635 -0.000100893 0
0.00145696 -8.31301e-05 0
0.00145696 -8.31301e-05 0
0.00157021 -7.54695e-05 0
0.00157021 -7.54695e-05 0
0.00164413 -7.34599e-05 0
0.00164413 -7.34599e-05 0
0.00170487 -5.94815e-05 0
0.00170487 -5.94815e-05 0
0.00176996 -4.49737e-05 0
0.00176996 -4.49737e-05 0
0.00184446 -3.15884e-05 0
0.00184446 -3.15884e-05 0
0.00192021 -2.88731e-05 0
0.00192021 -2.88731e-05 0
0.00199439 -2.35765e-05 0
0.00199439 -2.35765e-05 0
0.00207315 -3.86127e-05 0
0.00207315 -3.86127e-05 0
0.00215251 -3.60992e-05 0
0.00215251 -3.60992e-05 0
0.00123915 5.18613e-06 0
0.00123915 5.18613e-06 0
6.71067e-06 -6.91822e-06 0
6.71067e-06 -6.91822e-06 0
6.71062e-06 -1.38435e-05 0
6.71062e-06 -1.38435e-05 0
6.70839e-06 -2.76928e-05 0
6.70839e-06 -2.76928e-05 0
6.70266e-06 -4.15382e-05 0
6.70266e-06 -4.15382e-05 0
6.69404e-06 -5.53766e-05 0
6.69404e-06 -5.53766e-05 0
6.68228e-06 -6.9204e-05 0
6.68228e-06 -6.9204e-05 0
6.66697e-06 -8.30164e-05 0
6.66697e-06 -8.30164e-05 0
6.6475e-06 -9.68087e-05 0
6.6475e-06 -9.68087e-05 0
6.62313e-06 -0.000110574 0
6.62313e-06 -0.000110574 0
6.59291e-06 -0.000124306 0
6.59291e-06 -0.000124306 0
6.55572e-06 -0.000137993 0
6.55572e-06 -0.000137993 0
6.51019e-06 -0.000151624 0
6.51019e-06 -0.000151624 0
6.45469e-06 -0.000165185 0
6.45469e-06 -0.000165185 0
6.38727e-06 -0.000178657 0
6.38727e-06 -0.000178657 0
6.30559e-06 -0.000192017 0
6.30559e-06 -0.000192017 0
6.20688e-06 -0.00020524 0
6.20688e-06 -0.00020524 0
6.08782e-06 -0.000218293 0
6.08782e-06 -0.000218293 0
5.94449e-06 -0.000231134 0
5.94449e-06 -0.000231134 0
5.77217e-06 -0.000243718 0
5.77217e-06 -0.000243718 0
5.56529e-06 -0.000255983 0
5.56529e-06 -0.000255983 0
5.31721e-06 -0.00026786 0
5.31721e-06 -0.00026786 0
5.02001e-06 -0.000279261 0
5.02001e-06 -0.000279261 0
4.66426e-06 -0.000290081 0
4.66426e-06 -0.000290081 0
4.23869e-06 -0.000300192 0
4.23869e-06 -0.000300192 0
3.72966e-06 -0.000309435 0
3.72966e-06 -0.000309435 0
3.1203e-06 -0.000317619 0
3.1203e-06 -0.000317619 0
2.38907e-06 -0.000324506 0
2.38907e-06 -0.000324506 0
1.50645e-06 -0.000329802 0
1.50645e-06 -0.000329802 0
4.29063e-07 -0.000333141 0
4.29063e-07 -0.000333141 0
-9.06267e-07 -0.000334052 0
-9.06267e-07 -0.000334052 0
-2.59003e-06 -0.000331901 0
-2.59003e-06 -0.000331901 0
-4.7519e-06 -0.000325864 0
-4.7519e-06 -0.000325864 0
-7.56391e-06 -0.000314838 0
-7.56391e-06 -0.000314838 0
-1.12151e-05 -0.000297324 0
-1.12151e-05 -0.000297324 0
-1.5923e-05 -0.00027138 0
-1.5923e-05 -0.00027138 0
-2.20298e-05 -0.000234661 0
-2.20298e-05 -0.000234661 0
-2.98864e-05 -0.000180661 0
-2.98864e-05 -0.000180661 0
-4.19522e-05 -0.000113414 0
-4.19522e-05 -0.000113414 0
-5.65684e-05 -8.1441e-06 0
-5.65684e-05 -8.1441e-06 0
-8.11989e-05 0.000122943 0
-8.11989e-05 0.000122943 0
-0.000105174 0.000323816 0
-0.000105174 0.000323816 0
-0.000137121 0.000562602 0
-0.000137121 0.000562602 0
-0.00018923 0.000893784 0
-0.00018923 0.000893784 0
-0.000211218 0.00131623 0
-0.000211218 0.00131623 0
-0.000179981 0.00174931 0
-0.000179981 0.00174931 0
-0.000106644 0.00208515 0
-0.000106644 0.00208515 0
6.36852e-05 0.00219436 0
6.36852e-05 0.00219436 0
0.000317497 0.00187797 0
0.000317497 0.00187797 0
0.000404191 0.00119308 0
0.000404191 0.00119308 0
0.000325719 0.000427073 0
0.000325719 0.000427073 0
1.39009e-05 -7.12327e-06 0
1.39009e-05 -7.12327e-06 0
2.84474e-05 -7.24831e-06 0
2.84474e-05 -7.24831e-06 0
4.29125e-05 -7.15503e-06 0
4.29125e-05 -7.15503e-06 0
5.71684e-05 -7.14156e-06 0
5.71684e-05 -7.14156e-06 0
7.14666e-05 -7.14144e-06 0
7.14666e-05 -7.14144e-06 0
8.57669e-05 -7.14099e-06 0
8.57669e-05 -7.14099e-06 0
0.000100063 -7.13926e-06 0
0.000100063 -7.13926e-06 0
0.000114355 -7.136e-06 0
0.000114355 -7.136e-06 0
0.000128638 -7.13082e-06 0
0.000128638 -7.13082e-06 0
0.000142909 -7.12324e-06 0
0.000142909 -7.12324e-06 0
0.000157161 -7.11283e-06 0
0.000157161 -7.11283e-06 0
0.00017139 -7.09912e-06 0
0.00017139 -7.09912e-06 0
0.000185587 -7.0817e-06 0
0.000185587 -7.0817e-06 0
0.000199745 -7.06019e-06 0
0.000199745 -7.06019e-06 0
0.000213856 -7.03422e-06 0
0.000213856 -7.03422e-06 0
0.00022791 -7.00352e-06 0
0.00022791 -7.00352e-06 0
0.000241898 -6.96784e-06 0
0.000241898 -6.96784e-06 0
0.000255809 -6.92699e-06 0
0.000255809 -6.92699e-06 0
0.000269633 -6.88085e-06 0
0.000269633 -6.88085e-06 0
0.000283359 -6.82937e-06 0
0.000283359 -6.82937e-06 0
0.000296977 -6.77253e-06 0
0.000296977 -6.77253e-06 0
0.000310475 -6.71039e-06 0
0.000310475 -6.71039e-06 0
0.000323844 -6.64305e-06 0
0.000323844 -6.64305e-06 0
0.000337073 -6.57065e-06 0
0.000337073 -6.57065e-06 0
0.000350151 -6.49341e-06 0
0.000350151 -6.49341e-06 0
0.000363071 -6.41154e-06 0
0.000363071 -6.41154e-06 0
0.000375822 -6.32531e-06 0
0.000375822 -6.32531e-06 0
0.000388396 -6.23501e-06 0
0.000388396 -6.23501e-06 0
0.000400785 -6.14095e-06 0
0.000400785 -6.14095e-06 0
0.000412983 -6.04344e-06 0
0.000412983 -6.04344e-06 0
0.000424982 -5.94283e-06 0
0.000424982 -5.94283e-06 0
0.000436777 -5.83946e-06 0
0.000436777 -5.83946e-06 0
0.000448362 -5.73365e-06 0
0.000448362 -5.73365e-06 0
0.000459733 -5.62574e-06 0
0.000459733 -5.62574e-06 0
0.000470885 -5.51607e-06 0
0.000470885 -5.51607e-06 0
0.000481817 -5.40496e-06 0
0.000481817 -5.40496e-06 0
0.000492525 -5.2927e-06 0
0.000492525 -5.2927e-06 0
0.000503008 -5.1796e-06 0
0.000503008 -5.1796e-06 0
0.000513263 -5.06593e-06 0
0.000513263 -5.06593e-06 0
0.00052329 -4.95195e-06 0
0.00052329 -4.95195e-06 0
0.000533088 -4.83792e-06 0
0.000533088 -4.83792e-06 0
0.000542659 -4.72406e-06 0
0.000542659 -4.72406e-06 0
0.000552002 -4.61058e-06 0
0.000552002 -4.61058e-06 0
0.000561118 -4.49767e-06 0
0.000561118 -4.49767e-06 0
0.000570009 -4.38551e-06 0
0.000570009 -4.38551e-06 0
0.000578675 -4.27427e-06 0
0.000578675 -4.27427e-06 0
0.000587121 -4.16407e-06 0
0.000587121 -4.16407e-06 0
0.000595346 -4.05505e-06 0
0.000595346 -4.05505e-06 0
0.000603355 -3.94733e-06 0
0.000603355 -3.94733e-06 0
0.00061115 -3.84099e-06 0
0.00061115 -3.84099e-06 0
0.000618733 -3.73613e-06 0
0.000618733 -3.73613e-06 0
0.000626107 -3.63281e-06 0
0.000626107 -3.63281e-06 0
0.000633276 -3.5311e-06 0
0.000633276 -3.5311e-06 0
0.000640244 -3.43104e-06 0
0.000640244 -3.43104e-06 0
0.000647012 -3.33267e-06 0
0.000647012 -3.33267e-06 0
0.000653586 -3.23603e-06 0
0.000653586 -3.23603e-06 0
0.000659967 -3.14114e-06 0
0.000659967 -3.14114e-06 0
0.000666161 -3.048e-06 0
0.000666161 -3.048e-06 0
0.00067217 -2.95662e-06 0
0.00067217 -2.95662e-06 0
0.000677997 -2.86701e-06 0
0.000677997 -2.86701e-06 0
0.000683647 -2.77916e-06 0
0.000683647 -2.77916e-06 0
0.000689123 -2.69305e-06 0
0.000689123 -2.69305e-06 0
0.000694429 -2.60867e-06 0
0.000694429 -2.60867e-06 0
0.000699567 -2.526e-06 0
0.000699567 -2.526e-06 0
0.000704541 -2.44502e-06 0
0.000704541 -2.44502e-06 0
0.000709355 -2.36569e-06 0
0.000709355 -2.36569e-06 0
0.000714012 -2.288e-06 0
0.000714012 -2.288e-06 0
0.000718515 -2.2119e-06 0
0.000718515 -2.2119e-06 0
0.000722867 -2.13736e-06 0
0.000722867 -2.13736e-06 0
0.000727071 -2.06435e-06 0
0.000727071 -2.06435e-06 0
0.000731131 -1.99282e-06 0
0.000731131 -1.99282e-06 0
0.000735049 -1.92274e-06 0
0.000735049 -1.92274e-06 0
0.000738829 -1.85407e-06 0
0.000738829 -1.85407e-06 0
0.000742472 -1.78676e-06 0
0.000742472 -1.78676e-06 0
0.000745982 -1.72078e-06 0
0.000745982 -1.72078e-06 0
0.000749361 -1.65607e-06 0
0.000749361 -1.65607e-06 0
0.000752612 -1.5926e-06 0
0.000752612 -1.5926e-06 0
0.000755737 -1.53032e-06 0
0.000755737 -1.53032e-06 0
0.000758738 -1.46919e-06 0
0.000758738 -1.46919e-06 0
0.000761618 -1.40916e-06 0
0.000761618 -1.40916e-06 0
0.000764379 -1.35019e-06 0
0.000764379 -1.35019e-06 0
0.000767024 -1.29224e-06 0
0.000767024 -1.29224e-06 0
0.000769553 -1.23526e-06 0
0.000769553 -1.23526e-06 0
0.000771969 -1.17921e-06 0
0.000771969 -1.17921e-06 0
0.000774274 -1.12404e-06 0
0.000774274 -1.12404e-06 0
0.000776469 -1.06971e-06 0
0.000776469 -1.06971e-06 0
0.000778556 -1.01617e-06 0
0.000778556 -1.01617e-06 0
0.000780537 -9.63403e-07 0
0.000780537 -9.63403e-07 0
0.000782414 -9.11305e-07 0
0.000782414 -9.11305e-07 0
0.000784186 -8.59979e-07 0
0.000784186 -8.59979e-07 0
0.000785857 -8.0901e-07 0
0.000785857 -8.0901e-07 0
0.000787424 -7.59217e-07 0
0.000787424 -7.59217e-07 0
0.000788898 -7.08822e-07 0
0.000788898 -7.08822e-07 0
0.00079026 -6.60787e-07 0
0.00079026 -6.60787e-07 0
0.000791547 -6.10628e-07 0
0.000791547 -6.10628e-07 0
0.000792697 -5.64079e-07 0
0.000792697 -5.64079e-07 0
0.000793819 -5.13708e-07 0
0.000793819 -5.13708e-07 0
0.000794731 -4.70321e-07 0
0.000794731 -4.70321e-07 0
0.996239 -0.000466813 0
0.996239 -0.000466813 0
1.99168 -0.000933166 0
1.99168 -0.000933166 0
