/*--------------------------------*- C++ -*----------------------------------*\
| =========                 |                                                 |
| \\      /  F ield         | OpenFOAM: The Open Source CFD Toolbox           |
|  \\    /   O peration     | Version:  4.1                                   |
|   \\  /    A nd           | Web:      www.OpenFOAM.org                      |
|    \\/     M anipulation  |                                                 |
\*---------------------------------------------------------------------------*/
FoamFile
{
    version     2.0;
    format      ascii;
    class       volScalarField;
    location    "0.151";
    object      k_0;
}
// * * * * * * * * * * * * * * * * * * * * * * * * * * * * * * * * * * * * * //

dimensions      [0 2 -2 0 0 0 0];

internalField   nonuniform List<scalar> 
43750
(
3.62576e-05
6.32244e-05
9.21804e-05
0.000111028
0.000119587
0.000120512
0.000117371
0.00010017
7.39761e-05
6.11678e-05
5.78408e-05
5.76544e-05
5.68491e-05
5.66947e-05
5.77628e-05
6.58358e-05
0.000114927
0.000397732
0.00119326
0.00156596
0.00156995
0.00134945
0.000782838
0.00054451
0.000533622
0.000601935
0.000638828
0.000587369
0.000380546
0.000285021
0.000295532
0.000476565
0.00140115
0.00245404
0.00270725
0.00259669
0.0019389
0.00136027
0.0012705
0.00141072
0.00226763
0.00494928
0.00746896
0.00873441
0.00898871
0.00875691
0.0072656
0.00429932
0.00243515
0.00142694
0.000862129
0.000540816
0.000400542
0.000377987
0.000411797
0.000628337
0.00119888
0.00160513
0.00178727
0.00187328
0.00200931
0.00238589
0.00377044
0.00679416
0.00902036
0.0102145
0.0106603
0.0107313
0.0106792
0.0103908
0.00992841
0.00952153
0.0091406
0.00877362
0.00841769
0.00807103
0.00773198
0.00739891
0.00707041
0.00674427
0.00641743
0.00608773
0.00575282
0.00540943
0.005055
0.00468854
0.00431025
0.00392068
0.0035209
0.00311285
0.00269965
0.00228749
0.00188433
0.00150015
0.00114345
0.000824266
0.000545747
0.000318117
0.000142393
2.26794e-05
2.00266e-05
2.02373e-05
2.06428e-05
2.07989e-05
2.07857e-05
2.05997e-05
2.03751e-05
2.03705e-05
2.05057e-05
2.06346e-05
2.06321e-05
2.05539e-05
2.05104e-05
2.05407e-05
2.0702e-05
2.12663e-05
2.3444e-05
2.79579e-05
3.05614e-05
3.46312e-05
4.52e-05
5.09534e-05
5.08019e-05
4.92062e-05
4.7668e-05
4.49961e-05
3.87919e-05
3.30319e-05
3.06414e-05
3.07689e-05
3.40406e-05
5.19701e-05
0.00011336
0.000163327
0.000180078
0.000180531
0.000167343
0.00014799
0.000145811
0.000155215
0.000213616
0.000430798
0.000672655
0.00080142
0.000847873
0.000849904
0.000808265
0.000620402
0.000390457
0.000250808
0.000170187
0.000124888
0.000103233
9.71683e-05
9.81442e-05
0.00010964
0.000153316
0.00029038
0.000563561
0.000761632
0.000861001
0.000939131
0.00109457
0.00146841
0.00224063
0.0029937
0.00359633
0.00403271
0.00431188
0.00445304
0.00450921
0.00451753
0.00451411
0.00450215
0.0044825
0.00446003
0.00443536
0.00440705
0.00437347
0.00433661
0.00429343
0.00424401
0.00418755
0.0041214
0.00404134
0.00393726
0.00380741
0.0036502
0.0034626
0.00324475
0.00299995
0.00272535
0.00241568
0.00207616
0.00170486
0.00132897
0.000941248
0.000622157
0.000255276
4.43298e-05
2.00193e-05
1.99739e-05
1.98008e-05
1.94931e-05
1.93239e-05
1.88457e-05
1.76543e-05
1.72591e-05
1.73163e-05
1.73036e-05
1.6655e-05
1.402e-05
1.27597e-05
1.2862e-05
1.37582e-05
1.46057e-05
1.47465e-05
1.45969e-05
1.38899e-05
1.22122e-05
1.03579e-05
8.99476e-06
8.40621e-06
8.32136e-06
8.40601e-06
8.93696e-06
1.01429e-05
1.08458e-05
1.11128e-05
1.12519e-05
1.15223e-05
1.23268e-05
1.49329e-05
1.75369e-05
1.85655e-05
1.86523e-05
1.84002e-05
1.82222e-05
1.84207e-05
1.97318e-05
2.51019e-05
4.05233e-05
5.57283e-05
6.5157e-05
6.89477e-05
6.91933e-05
6.67395e-05
5.49034e-05
3.9957e-05
3.1168e-05
2.6243e-05
2.35696e-05
2.23633e-05
2.20762e-05
2.21751e-05
2.30549e-05
2.69861e-05
4.22629e-05
9.22887e-05
0.000144994
0.000173051
0.000189025
0.000212674
0.000266865
0.000410197
0.00060021
0.000770346
0.000908232
0.00101136
0.00108427
0.00113691
0.00117838
0.00121465
0.00125024
0.00128538
0.00132127
0.00135849
0.00139471
0.00143294
0.00146842
0.00150505
0.00153896
0.00156919
0.00159976
0.00162365
0.00165624
0.00168706
0.00171153
0.00172934
0.00172922
0.00171612
0.00168017
0.00160478
0.00149784
0.00134302
0.00112897
0.000832015
0.000548373
0.000222993
4.18961e-05
2.03702e-05
2.09519e-05
2.15471e-05
2.1797e-05
2.18745e-05
2.19345e-05
2.19605e-05
2.19103e-05
2.16128e-05
2.12392e-05
2.10354e-05
2.09468e-05
2.09394e-05
2.09556e-05
2.0984e-05
2.10678e-05
2.12014e-05
2.12563e-05
2.12372e-05
2.11651e-05
2.09745e-05
2.05268e-05
2.01053e-05
1.98184e-05
1.96478e-05
1.95535e-05
1.95086e-05
1.9501e-05
1.95323e-05
1.9743e-05
2.00695e-05
2.01576e-05
2.0137e-05
2.00519e-05
2.00412e-05
2.01077e-05
2.04563e-05
2.13901e-05
2.24734e-05
2.36522e-05
2.48635e-05
2.5837e-05
2.63966e-05
2.66427e-05
2.68515e-05
2.73041e-05
2.8689e-05
3.24231e-05
3.52305e-05
3.60782e-05
3.6019e-05
3.52945e-05
3.4622e-05
3.46227e-05
3.4991e-05
3.60803e-05
3.87309e-05
4.53201e-05
5.20813e-05
5.62323e-05
5.94444e-05
6.50849e-05
7.81997e-05
0.000115577
0.000195798
0.000277001
0.000346767
0.000399756
0.000436787
0.000463853
0.000486225
0.00050827
0.000530377
0.000554537
0.00057988
0.000606609
0.000635588
0.000664672
0.000696667
0.000728568
0.000761805
0.000796403
0.000829502
0.000863281
0.000895942
0.000924151
0.000950932
0.000974849
0.000984636
0.000984434
0.000979197
0.000961777
0.000918564
0.000850839
0.000760333
0.000644478
0.000496561
0.000314432
0.000135819
2.78063e-05
2.09629e-05
2.10744e-05
2.12766e-05
2.19354e-05
2.27004e-05
2.27924e-05
2.25623e-05
2.22229e-05
2.18693e-05
2.16098e-05
2.14651e-05
2.14121e-05
2.14118e-05
2.14626e-05
2.16004e-05
2.16619e-05
2.16515e-05
2.15276e-05
2.12879e-05
2.11244e-05
2.10214e-05
2.09721e-05
2.09634e-05
2.09849e-05
2.10907e-05
2.11143e-05
2.11028e-05
2.11081e-05
2.11773e-05
2.143e-05
2.16795e-05
2.17949e-05
2.18597e-05
2.19865e-05
2.23865e-05
2.31045e-05
2.35475e-05
2.37415e-05
2.39112e-05
2.4312e-05
2.5117e-05
2.56444e-05
2.5714e-05
2.54021e-05
2.44666e-05
2.41488e-05
2.42747e-05
2.53238e-05
2.83145e-05
3.02081e-05
3.07192e-05
3.06623e-05
3.00814e-05
2.93523e-05
2.91671e-05
2.92248e-05
2.96977e-05
2.99989e-05
2.9987e-05
3.0146e-05
3.07264e-05
3.26648e-05
3.91711e-05
5.91593e-05
8.68088e-05
0.000110145
0.000127504
0.000139446
0.000147859
0.000153578
0.000157899
0.000164875
0.000174226
0.000185763
0.000198505
0.000212191
0.000227546
0.000243231
0.000260933
0.000279271
0.000298553
0.00031974
0.000340433
0.000362467
0.000384817
0.000405358
0.000425824
0.000444
0.000458381
0.000465642
0.000465912
0.000462995
0.00045192
0.000424188
0.000383635
0.000328977
0.000258232
0.00017081
7.76849e-05
1.60502e-05
2.07499e-05
2.10715e-05
2.13455e-05
2.13555e-05
2.13364e-05
2.1318e-05
2.13545e-05
2.16121e-05
2.17397e-05
2.17212e-05
2.15679e-05
2.14925e-05
2.15369e-05
2.17317e-05
2.17864e-05
2.17507e-05
2.15542e-05
2.13013e-05
2.12075e-05
2.11787e-05
2.11551e-05
2.11526e-05
2.11607e-05
2.11956e-05
2.12369e-05
2.12386e-05
2.12315e-05
2.12335e-05
2.12499e-05
2.12934e-05
2.13525e-05
2.14679e-05
2.17332e-05
2.21259e-05
2.24857e-05
2.26774e-05
2.2708e-05
2.2695e-05
2.2702e-05
2.27897e-05
2.32339e-05
2.43373e-05
2.48325e-05
2.48138e-05
2.43636e-05
2.39791e-05
2.39816e-05
2.4363e-05
2.5576e-05
2.62796e-05
2.64056e-05
2.62932e-05
2.57959e-05
2.54272e-05
2.52779e-05
2.52257e-05
2.52297e-05
2.52623e-05
2.53079e-05
2.54011e-05
2.57268e-05
2.70651e-05
3.20749e-05
4.22574e-05
5.07169e-05
5.61021e-05
5.84559e-05
5.86443e-05
5.64107e-05
5.35484e-05
5.3286e-05
5.37796e-05
5.54573e-05
5.98123e-05
6.57105e-05
7.18607e-05
7.89224e-05
8.61801e-05
9.46146e-05
0.000103562
0.000113181
0.000124076
0.000135042
0.000147104
0.000159652
0.000172071
0.000184639
0.000196643
0.000207343
0.000215546
0.00022005
0.000220554
0.000218935
0.000211677
0.000194543
0.000169883
0.000136891
9.4542e-05
4.44531e-05
9.28044e-06
2.06603e-05
2.1061e-05
2.13996e-05
2.1431e-05
2.12721e-05
2.10974e-05
2.11077e-05
2.12827e-05
2.14474e-05
2.15361e-05
2.17421e-05
2.21843e-05
2.23212e-05
2.22472e-05
2.21525e-05
2.21465e-05
2.22108e-05
2.25889e-05
2.29649e-05
2.29637e-05
2.26146e-05
2.19209e-05
2.16347e-05
2.15878e-05
2.16132e-05
2.16047e-05
2.15186e-05
2.13872e-05
2.13075e-05
2.12699e-05
2.12645e-05
2.12765e-05
2.13514e-05
2.15832e-05
2.17424e-05
2.17678e-05
2.17366e-05
2.16525e-05
2.16439e-05
2.17217e-05
2.2192e-05
2.34443e-05
2.41453e-05
2.42335e-05
2.40286e-05
2.3675e-05
2.36248e-05
2.37096e-05
2.39928e-05
2.41207e-05
2.4119e-05
2.4029e-05
2.39215e-05
2.392e-05
2.40523e-05
2.46103e-05
2.52615e-05
2.56414e-05
2.58078e-05
2.59408e-05
2.62779e-05
2.764e-05
3.23851e-05
3.74586e-05
4.00898e-05
4.07211e-05
4.01633e-05
3.61279e-05
2.75425e-05
2.1885e-05
1.91843e-05
1.85162e-05
1.86124e-05
1.92802e-05
2.12924e-05
2.4024e-05
2.71237e-05
3.02929e-05
3.40903e-05
3.82038e-05
4.27669e-05
4.80437e-05
5.35897e-05
5.9815e-05
6.65156e-05
7.35038e-05
8.07555e-05
8.80622e-05
9.49993e-05
0.000101084
0.000105658
0.000107923
0.000108069
0.000106581
0.0001008
8.92706e-05
7.38344e-05
5.29152e-05
2.55104e-05
5.36392e-06
2.08439e-05
2.07628e-05
2.08242e-05
2.10415e-05
2.12963e-05
2.14308e-05
2.1501e-05
2.15411e-05
2.155e-05
2.15818e-05
2.17887e-05
2.23113e-05
2.26515e-05
2.27675e-05
2.2756e-05
2.25835e-05
2.24084e-05
2.24347e-05
2.28606e-05
2.42109e-05
2.47087e-05
2.45701e-05
2.37561e-05
2.28171e-05
2.22405e-05
2.1885e-05
2.17281e-05
2.16915e-05
2.16835e-05
2.16663e-05
2.16171e-05
2.15032e-05
2.14309e-05
2.14102e-05
2.14137e-05
2.14412e-05
2.14931e-05
2.15385e-05
2.162e-05
2.18874e-05
2.29946e-05
2.44314e-05
2.49259e-05
2.49014e-05
2.44327e-05
2.34219e-05
2.28862e-05
2.27286e-05
2.27258e-05
2.27901e-05
2.30932e-05
2.34258e-05
2.35431e-05
2.36417e-05
2.38895e-05
2.45508e-05
2.52882e-05
2.58109e-05
2.61451e-05
2.65646e-05
2.74807e-05
3.01422e-05
3.44027e-05
3.71941e-05
3.81042e-05
3.80132e-05
3.64549e-05
2.94406e-05
1.92722e-05
1.25877e-05
8.83645e-06
7.12895e-06
6.65663e-06
6.68039e-06
6.99252e-06
7.9185e-06
9.27354e-06
1.06112e-05
1.22488e-05
1.40551e-05
1.6126e-05
1.8562e-05
2.12457e-05
2.43077e-05
2.77337e-05
3.14537e-05
3.54471e-05
3.96358e-05
4.38305e-05
4.77796e-05
5.11714e-05
5.35025e-05
5.43878e-05
5.42162e-05
5.25146e-05
4.76019e-05
4.04234e-05
2.99232e-05
1.47285e-05
3.11213e-06
2.05396e-05
2.08446e-05
2.09055e-05
2.09525e-05
2.11025e-05
2.13233e-05
2.15897e-05
2.17943e-05
2.17866e-05
2.15715e-05
2.13629e-05
2.13039e-05
2.12998e-05
2.13351e-05
2.15519e-05
2.18514e-05
2.20428e-05
2.23603e-05
2.27633e-05
2.29503e-05
2.29123e-05
2.25608e-05
2.20388e-05
2.18386e-05
2.18115e-05
2.18278e-05
2.18502e-05
2.18582e-05
2.18579e-05
2.18509e-05
2.18327e-05
2.17841e-05
2.16453e-05
2.14992e-05
2.14044e-05
2.13732e-05
2.1382e-05
2.14356e-05
2.15602e-05
2.1847e-05
2.27891e-05
2.40298e-05
2.45961e-05
2.46675e-05
2.45129e-05
2.37833e-05
2.30351e-05
2.27575e-05
2.27315e-05
2.28144e-05
2.32693e-05
2.38891e-05
2.41075e-05
2.41288e-05
2.416e-05
2.43574e-05
2.49828e-05
2.55121e-05
2.58426e-05
2.63038e-05
2.73814e-05
3.07049e-05
3.49389e-05
3.73008e-05
3.79425e-05
3.77531e-05
3.58547e-05
2.78697e-05
1.70866e-05
9.95879e-06
5.79197e-06
3.64569e-06
2.73056e-06
2.48637e-06
2.49898e-06
2.65572e-06
3.13759e-06
3.71892e-06
4.41237e-06
5.18478e-06
6.09742e-06
7.18755e-06
8.44406e-06
9.90129e-06
1.15929e-05
1.34957e-05
1.56109e-05
1.79083e-05
2.03159e-05
2.2706e-05
2.49191e-05
2.66981e-05
2.77219e-05
2.79046e-05
2.74924e-05
2.56516e-05
2.23858e-05
1.70964e-05
8.57192e-06
1.81819e-06
2.05206e-05
2.07092e-05
2.07265e-05
2.07194e-05
2.06823e-05
2.06821e-05
2.07632e-05
2.08468e-05
2.08701e-05
2.09729e-05
2.1227e-05
2.14852e-05
2.16742e-05
2.17656e-05
2.17702e-05
2.17269e-05
2.17067e-05
2.17219e-05
2.17716e-05
2.17826e-05
2.17567e-05
2.16655e-05
2.16445e-05
2.17025e-05
2.1941e-05
2.20617e-05
2.20545e-05
2.19326e-05
2.17656e-05
2.17208e-05
2.17315e-05
2.17883e-05
2.1807e-05
2.1785e-05
2.165e-05
2.15139e-05
2.15074e-05
2.16004e-05
2.17693e-05
2.19063e-05
2.21957e-05
2.2893e-05
2.34988e-05
2.37561e-05
2.3768e-05
2.35707e-05
2.30051e-05
2.27364e-05
2.27151e-05
2.28099e-05
2.32884e-05
2.38261e-05
2.39827e-05
2.39825e-05
2.3983e-05
2.40339e-05
2.43019e-05
2.47337e-05
2.50545e-05
2.5568e-05
2.67921e-05
3.04435e-05
3.4828e-05
3.72487e-05
3.78978e-05
3.77084e-05
3.58034e-05
2.77368e-05
1.66617e-05
9.29291e-06
4.93221e-06
2.6052e-06
1.50109e-06
1.06626e-06
9.62229e-07
9.73019e-07
1.06662e-06
1.29847e-06
1.59464e-06
1.92191e-06
2.3174e-06
2.79627e-06
3.37208e-06
4.05184e-06
4.86764e-06
5.81637e-06
6.90658e-06
8.13032e-06
9.46401e-06
1.08491e-05
1.22028e-05
1.33949e-05
1.42363e-05
1.45593e-05
1.45037e-05
1.39083e-05
1.24926e-05
9.88425e-06
5.02276e-06
1.0708e-06
2.09932e-05
2.09391e-05
2.09359e-05
2.09048e-05
2.08741e-05
2.09049e-05
2.11555e-05
2.13585e-05
2.13244e-05
2.12224e-05
2.1217e-05
2.12768e-05
2.16053e-05
2.19823e-05
2.20444e-05
2.19292e-05
2.15589e-05
2.13681e-05
2.13394e-05
2.13692e-05
2.14935e-05
2.16227e-05
2.18733e-05
2.24875e-05
2.29412e-05
2.30196e-05
2.29054e-05
2.2454e-05
2.21867e-05
2.21686e-05
2.23211e-05
2.28211e-05
2.30484e-05
2.3035e-05
2.27557e-05
2.22338e-05
2.20559e-05
2.20732e-05
2.22622e-05
2.24406e-05
2.25834e-05
2.28342e-05
2.31456e-05
2.33931e-05
2.34841e-05
2.34553e-05
2.31773e-05
2.28167e-05
2.27358e-05
2.27787e-05
2.30516e-05
2.32977e-05
2.33365e-05
2.33031e-05
2.3215e-05
2.32008e-05
2.32773e-05
2.35119e-05
2.37211e-05
2.41067e-05
2.51876e-05
2.8911e-05
3.39877e-05
3.68095e-05
3.76253e-05
3.74795e-05
3.56807e-05
2.78335e-05
1.67106e-05
9.23131e-06
4.74858e-06
2.32218e-06
1.13129e-06
6.10033e-07
4.22514e-07
3.85016e-07
3.95501e-07
4.49316e-07
5.75039e-07
7.15185e-07
8.85207e-07
1.09304e-06
1.35313e-06
1.66597e-06
2.05308e-06
2.51806e-06
3.06943e-06
3.70866e-06
4.43007e-06
5.21081e-06
6.0085e-06
6.75702e-06
7.35141e-06
7.681e-06
7.72682e-06
7.56244e-06
7.00539e-06
5.75558e-06
3.00884e-06
6.38608e-07
2.05789e-05
2.05706e-05
2.09448e-05
2.14224e-05
2.1554e-05
2.1553e-05
2.14635e-05
2.11911e-05
2.1062e-05
2.10523e-05
2.10703e-05
2.11312e-05
2.1278e-05
2.16813e-05
2.20915e-05
2.21805e-05
2.20885e-05
2.1786e-05
2.1508e-05
2.13789e-05
2.13408e-05
2.13328e-05
2.13606e-05
2.15519e-05
2.23523e-05
2.33293e-05
2.36452e-05
2.36159e-05
2.33474e-05
2.31706e-05
2.31845e-05
2.34176e-05
2.4147e-05
2.45197e-05
2.45346e-05
2.43627e-05
2.3871e-05
2.35347e-05
2.33262e-05
2.31469e-05
2.30289e-05
2.29967e-05
2.30218e-05
2.31691e-05
2.33307e-05
2.33482e-05
2.32445e-05
2.28768e-05
2.26315e-05
2.25324e-05
2.24914e-05
2.24771e-05
2.24757e-05
2.24821e-05
2.25283e-05
2.27291e-05
2.29699e-05
2.30919e-05
2.31949e-05
2.34139e-05
2.41047e-05
2.67548e-05
3.22456e-05
3.57135e-05
3.68746e-05
3.68256e-05
3.53133e-05
2.81334e-05
1.6906e-05
9.30907e-06
4.76921e-06
2.28215e-06
1.03705e-06
4.72062e-07
2.43968e-07
1.70085e-07
1.59611e-07
1.67704e-07
2.03289e-07
2.65875e-07
3.39554e-07
4.29131e-07
5.45584e-07
6.88115e-07
8.69814e-07
1.0949e-06
1.36983e-06
1.69922e-06
2.08258e-06
2.51432e-06
2.97315e-06
3.42501e-06
3.81667e-06
4.07558e-06
4.16674e-06
4.13266e-06
3.93558e-06
3.36526e-06
1.83997e-06
3.86058e-07
2.14094e-05
2.12952e-05
2.13674e-05
2.14763e-05
2.15473e-05
2.1365e-05
2.10525e-05
2.09539e-05
2.09463e-05
2.09806e-05
2.1063e-05
2.10975e-05
2.11205e-05
2.11816e-05
2.12468e-05
2.12633e-05
2.12633e-05
2.12457e-05
2.12139e-05
2.12113e-05
2.12261e-05
2.12197e-05
2.12322e-05
2.13587e-05
2.1813e-05
2.21951e-05
2.23552e-05
2.24489e-05
2.26244e-05
2.29657e-05
2.33836e-05
2.37957e-05
2.41124e-05
2.42453e-05
2.4254e-05
2.41989e-05
2.39475e-05
2.34798e-05
2.31038e-05
2.28653e-05
2.27662e-05
2.27523e-05
2.27731e-05
2.29547e-05
2.32331e-05
2.33007e-05
2.32575e-05
2.30136e-05
2.26546e-05
2.23213e-05
2.20661e-05
2.19532e-05
2.19377e-05
2.196e-05
2.21039e-05
2.24701e-05
2.26852e-05
2.27656e-05
2.283e-05
2.29792e-05
2.3499e-05
2.56001e-05
3.11027e-05
3.50791e-05
3.65312e-05
3.6556e-05
3.52351e-05
2.85267e-05
1.72356e-05
9.4923e-06
4.84288e-06
2.30674e-06
1.03295e-06
4.39394e-07
1.89308e-07
9.63767e-08
7.02361e-08
6.85005e-08
7.50867e-08
9.72584e-08
1.30486e-07
1.69063e-07
2.21041e-07
2.85487e-07
3.7024e-07
4.78362e-07
6.14123e-07
7.82499e-07
9.83553e-07
1.21909e-06
1.47864e-06
1.74375e-06
1.99247e-06
2.1722e-06
2.26661e-06
2.27694e-06
2.21972e-06
1.97261e-06
1.13824e-06
2.36176e-07
2.09374e-05
2.08232e-05
2.07919e-05
2.10415e-05
2.13053e-05
2.1376e-05
2.1342e-05
2.12299e-05
2.12055e-05
2.12183e-05
2.12819e-05
2.13568e-05
2.14406e-05
2.15109e-05
2.14958e-05
2.13833e-05
2.13245e-05
2.1322e-05
2.13682e-05
2.15362e-05
2.15861e-05
2.15438e-05
2.15412e-05
2.16876e-05
2.19455e-05
2.19836e-05
2.19522e-05
2.19132e-05
2.19228e-05
2.20281e-05
2.24876e-05
2.33507e-05
2.39116e-05
2.41783e-05
2.42513e-05
2.42466e-05
2.41702e-05
2.38575e-05
2.33972e-05
2.30569e-05
2.28074e-05
2.26235e-05
2.25525e-05
2.25678e-05
2.27367e-05
2.29959e-05
2.30677e-05
2.30447e-05
2.28995e-05
2.24988e-05
2.21272e-05
2.18806e-05
2.17756e-05
2.17679e-05
2.18293e-05
2.20647e-05
2.22398e-05
2.23108e-05
2.23755e-05
2.2524e-05
2.30329e-05
2.50869e-05
3.07235e-05
3.49705e-05
3.65458e-05
3.66026e-05
3.53913e-05
2.90972e-05
1.77115e-05
9.78086e-06
4.99231e-06
2.37086e-06
1.05302e-06
4.42643e-07
1.77547e-07
7.33889e-08
3.81756e-08
3.00667e-08
3.05172e-08
3.57643e-08
4.97385e-08
6.66489e-08
8.99026e-08
1.18815e-07
1.5817e-07
2.09797e-07
2.76274e-07
3.61956e-07
4.6639e-07
5.93789e-07
7.39249e-07
8.9176e-07
1.0461e-06
1.16373e-06
1.23766e-06
1.27027e-06
1.2582e-06
1.15849e-06
7.08223e-07
1.45858e-07
2.11428e-05
2.1096e-05
2.10098e-05
2.1141e-05
2.16854e-05
2.21163e-05
2.23657e-05
2.24469e-05
2.23617e-05
2.19231e-05
2.15019e-05
2.14026e-05
2.14533e-05
2.18283e-05
2.21558e-05
2.21479e-05
2.18822e-05
2.15419e-05
2.14476e-05
2.14226e-05
2.13985e-05
2.13991e-05
2.14737e-05
2.19091e-05
2.25991e-05
2.28112e-05
2.27954e-05
2.2598e-05
2.22143e-05
2.209e-05
2.21045e-05
2.22786e-05
2.29115e-05
2.3535e-05
2.38309e-05
2.39139e-05
2.39073e-05
2.38379e-05
2.36471e-05
2.33537e-05
2.30438e-05
2.27928e-05
2.2639e-05
2.25959e-05
2.2626e-05
2.28369e-05
2.31031e-05
2.31839e-05
2.31515e-05
2.29151e-05
2.23509e-05
2.1965e-05
2.17868e-05
2.174e-05
2.1754e-05
2.18547e-05
2.19663e-05
2.20175e-05
2.20775e-05
2.22215e-05
2.27221e-05
2.47497e-05
3.05752e-05
3.51534e-05
3.6934e-05
3.70658e-05
3.60594e-05
3.04624e-05
1.8795e-05
1.0423e-05
5.32615e-06
2.52038e-06
1.11033e-06
4.59567e-07
1.81241e-07
6.90616e-08
2.79601e-08
1.54986e-08
1.34552e-08
1.43214e-08
1.85764e-08
2.612e-08
3.66666e-08
4.95389e-08
6.77513e-08
9.22931e-08
1.2457e-07
1.68052e-07
2.21841e-07
2.90276e-07
3.71304e-07
4.57808e-07
5.52144e-07
6.2702e-07
6.78071e-07
7.14557e-07
7.20395e-07
6.82275e-07
4.41155e-07
9.07077e-08
2.07546e-05
2.10206e-05
2.14321e-05
2.15568e-05
2.1504e-05
2.13691e-05
2.13236e-05
2.13224e-05
2.13172e-05
2.13219e-05
2.13792e-05
2.16694e-05
2.21236e-05
2.22459e-05
2.22035e-05
2.19402e-05
2.15816e-05
2.13992e-05
2.13441e-05
2.13456e-05
2.1396e-05
2.16041e-05
2.22271e-05
2.30255e-05
2.36109e-05
2.39035e-05
2.39588e-05
2.38874e-05
2.34266e-05
2.26437e-05
2.22877e-05
2.22202e-05
2.2249e-05
2.23903e-05
2.25551e-05
2.27658e-05
2.30539e-05
2.32479e-05
2.32824e-05
2.32706e-05
2.3233e-05
2.31346e-05
2.29554e-05
2.28433e-05
2.28284e-05
2.29091e-05
2.3326e-05
2.37673e-05
2.38615e-05
2.37598e-05
2.3132e-05
2.23193e-05
2.19213e-05
2.17912e-05
2.17832e-05
2.18249e-05
2.18941e-05
2.19303e-05
2.19819e-05
2.21143e-05
2.2593e-05
2.45342e-05
3.0469e-05
3.5626e-05
3.77752e-05
3.80278e-05
3.71854e-05
3.21682e-05
2.02743e-05
1.132e-05
5.82528e-06
2.7768e-06
1.22902e-06
5.04939e-07
1.94125e-07
7.16977e-08
2.60983e-08
1.06571e-08
6.60518e-09
6.30962e-09
7.22084e-09
1.00226e-08
1.49715e-08
2.06645e-08
2.90734e-08
4.07032e-08
5.62292e-08
7.82689e-08
1.0576e-07
1.42304e-07
1.87258e-07
2.35793e-07
2.92761e-07
3.39735e-07
3.72858e-07
4.03892e-07
4.17322e-07
4.03422e-07
2.74744e-07
5.67119e-08
2.13031e-05
2.11196e-05
2.10507e-05
2.1007e-05
2.10804e-05
2.11221e-05
2.11026e-05
2.10241e-05
2.10148e-05
2.10796e-05
2.14025e-05
2.20596e-05
2.25394e-05
2.27237e-05
2.2715e-05
2.25602e-05
2.20288e-05
2.1602e-05
2.14648e-05
2.14658e-05
2.15641e-05
2.1709e-05
2.18244e-05
2.20582e-05
2.2703e-05
2.3562e-05
2.40691e-05
2.41806e-05
2.40847e-05
2.35185e-05
2.28191e-05
2.25911e-05
2.25952e-05
2.2712e-05
2.28061e-05
2.28726e-05
2.29772e-05
2.31435e-05
2.32963e-05
2.33775e-05
2.33868e-05
2.33568e-05
2.32086e-05
2.29515e-05
2.2872e-05
2.28993e-05
2.31461e-05
2.37882e-05
2.4136e-05
2.41658e-05
2.40007e-05
2.32746e-05
2.24504e-05
2.20446e-05
2.19126e-05
2.19013e-05
2.19156e-05
2.19403e-05
2.19841e-05
2.21009e-05
2.25451e-05
2.43948e-05
3.02764e-05
3.57107e-05
3.81438e-05
3.85186e-05
3.78266e-05
3.34019e-05
2.1626e-05
1.21608e-05
6.31451e-06
3.03739e-06
1.35716e-06
5.64195e-07
2.18541e-07
7.88492e-08
2.73836e-08
9.61239e-09
4.14748e-09
3.00226e-09
3.09846e-09
3.87122e-09
6.02779e-09
8.59982e-09
1.2483e-08
1.79921e-08
2.53801e-08
3.65517e-08
5.05e-08
6.99065e-08
9.4779e-08
1.21788e-07
1.55824e-07
1.85086e-07
2.05799e-07
2.29202e-07
2.44037e-07
2.39896e-07
1.7123e-07
3.55767e-08
2.06567e-05
2.09565e-05
2.119e-05
2.13299e-05
2.13187e-05
2.1181e-05
2.11058e-05
2.11257e-05
2.13869e-05
2.19526e-05
2.20542e-05
2.19394e-05
2.18428e-05
2.18734e-05
2.20371e-05
2.21729e-05
2.22124e-05
2.22063e-05
2.2137e-05
2.19314e-05
2.17746e-05
2.17049e-05
2.17044e-05
2.18147e-05
2.23225e-05
2.29928e-05
2.33104e-05
2.33618e-05
2.32861e-05
2.28691e-05
2.24661e-05
2.23684e-05
2.23985e-05
2.26376e-05
2.3223e-05
2.34622e-05
2.35446e-05
2.37207e-05
2.4031e-05
2.42183e-05
2.42458e-05
2.41903e-05
2.38378e-05
2.31808e-05
2.28887e-05
2.2854e-05
2.2972e-05
2.35645e-05
2.4045e-05
2.41219e-05
2.40288e-05
2.35487e-05
2.29566e-05
2.25781e-05
2.23038e-05
2.21236e-05
2.20491e-05
2.20397e-05
2.20544e-05
2.21407e-05
2.25221e-05
2.41673e-05
2.98352e-05
3.55556e-05
3.81442e-05
3.86179e-05
3.80574e-05
3.41617e-05
2.27357e-05
1.28841e-05
6.75625e-06
3.28244e-06
1.48132e-06
6.22107e-07
2.43399e-07
8.87846e-08
3.02367e-08
1.00105e-08
3.46743e-09
1.69032e-09
1.45589e-09
1.61333e-09
2.37824e-09
3.5473e-09
5.35156e-09
7.96979e-09
1.14403e-08
1.711e-08
2.41376e-08
3.43874e-08
4.8123e-08
6.30609e-08
8.3193e-08
1.01388e-07
1.13992e-07
1.30519e-07
1.43885e-07
1.43441e-07
1.06752e-07
2.25762e-08
2.14246e-05
2.19489e-05
2.20371e-05
2.20377e-05
2.22936e-05
2.23414e-05
2.20943e-05
2.1482e-05
2.12183e-05
2.11964e-05
2.12639e-05
2.15156e-05
2.17839e-05
2.19733e-05
2.20825e-05
2.21267e-05
2.21691e-05
2.2298e-05
2.26564e-05
2.27914e-05
2.27555e-05
2.25123e-05
2.22041e-05
2.2143e-05
2.21866e-05
2.22299e-05
2.22043e-05
2.20584e-05
2.18993e-05
2.18125e-05
2.1779e-05
2.17808e-05
2.18162e-05
2.20089e-05
2.26487e-05
2.3353e-05
2.39597e-05
2.44506e-05
2.47559e-05
2.4855e-05
2.48379e-05
2.46436e-05
2.38945e-05
2.31356e-05
2.28292e-05
2.27988e-05
2.29187e-05
2.34329e-05
2.38171e-05
2.38875e-05
2.38198e-05
2.34381e-05
2.30014e-05
2.27687e-05
2.26382e-05
2.25181e-05
2.24099e-05
2.23524e-05
2.23426e-05
2.23783e-05
2.26541e-05
2.39232e-05
2.887e-05
3.50477e-05
3.79516e-05
3.85287e-05
3.80421e-05
3.45814e-05
2.36369e-05
1.35202e-05
7.16082e-06
3.51317e-06
1.60088e-06
6.78941e-07
2.68335e-07
9.89086e-08
3.4011e-08
1.09416e-08
3.49967e-09
1.25469e-09
7.51458e-10
7.41269e-10
9.48325e-10
1.44863e-09
2.28841e-09
3.53755e-09
5.13987e-09
8.02623e-09
1.15409e-08
1.6925e-08
2.4502e-08
3.27245e-08
4.45254e-08
5.58263e-08
6.33827e-08
7.45517e-08
8.53431e-08
8.64476e-08
6.65517e-08
1.44572e-08
2.14296e-05
2.13507e-05
2.11359e-05
2.11131e-05
2.12873e-05
2.16336e-05
2.16135e-05
2.13201e-05
2.11431e-05
2.11347e-05
2.12142e-05
2.13509e-05
2.15343e-05
2.17317e-05
2.18205e-05
2.17975e-05
2.16839e-05
2.1667e-05
2.17391e-05
2.20527e-05
2.22598e-05
2.22548e-05
2.21453e-05
2.2049e-05
2.20233e-05
2.19893e-05
2.19059e-05
2.18749e-05
2.18786e-05
2.18826e-05
2.18833e-05
2.18873e-05
2.19102e-05
2.20016e-05
2.22816e-05
2.30078e-05
2.38114e-05
2.44556e-05
2.48407e-05
2.49409e-05
2.48989e-05
2.45902e-05
2.3627e-05
2.2897e-05
2.26477e-05
2.2639e-05
2.27845e-05
2.31744e-05
2.3347e-05
2.33604e-05
2.32945e-05
2.308e-05
2.29515e-05
2.29277e-05
2.29402e-05
2.29353e-05
2.28889e-05
2.28356e-05
2.28289e-05
2.28578e-05
2.30522e-05
2.40379e-05
2.80281e-05
3.40224e-05
3.72865e-05
3.806e-05
3.76902e-05
3.4645e-05
2.43541e-05
1.40549e-05
7.5131e-06
3.72258e-06
1.71372e-06
7.34353e-07
2.93288e-07
1.0926e-07
3.79788e-08
1.23214e-08
3.76059e-09
1.1765e-09
4.79467e-10
3.66066e-10
4.10454e-10
5.81912e-10
9.70684e-10
1.57663e-09
2.2956e-09
3.76864e-09
5.52052e-09
8.32879e-09
1.25051e-08
1.7013e-08
2.38796e-08
3.08756e-08
3.54129e-08
4.26907e-08
5.08629e-08
5.24974e-08
4.15502e-08
9.31489e-09
2.0648e-05
2.07622e-05
2.11796e-05
2.17432e-05
2.19513e-05
2.19667e-05
2.18604e-05
2.1657e-05
2.16194e-05
2.16627e-05
2.16821e-05
2.164e-05
2.15631e-05
2.15641e-05
2.16272e-05
2.16627e-05
2.16389e-05
2.15161e-05
2.13794e-05
2.1358e-05
2.13717e-05
2.14309e-05
2.16247e-05
2.18896e-05
2.19999e-05
2.20034e-05
2.19805e-05
2.19878e-05
2.20726e-05
2.22945e-05
2.25662e-05
2.28306e-05
2.29789e-05
2.30224e-05
2.30753e-05
2.31944e-05
2.34254e-05
2.38937e-05
2.42835e-05
2.44342e-05
2.44199e-05
2.41669e-05
2.32977e-05
2.26258e-05
2.23902e-05
2.23774e-05
2.25119e-05
2.29224e-05
2.31322e-05
2.316e-05
2.31204e-05
2.30308e-05
2.30129e-05
2.30407e-05
2.31013e-05
2.3118e-05
2.31045e-05
2.30774e-05
2.30775e-05
2.31105e-05
2.3306e-05
2.42062e-05
2.77916e-05
3.30441e-05
3.59215e-05
3.67354e-05
3.65089e-05
3.40663e-05
2.47001e-05
1.43625e-05
7.74128e-06
3.87135e-06
1.79999e-06
7.79456e-07
3.14741e-07
1.18601e-07
4.17194e-08
1.36996e-08
4.20626e-09
1.23921e-09
3.97068e-10
2.03532e-10
1.96497e-10
2.44027e-10
4.00827e-10
7.01585e-10
1.03356e-09
1.76193e-09
2.63438e-09
4.09355e-09
6.39665e-09
8.85828e-09
1.28295e-08
1.71395e-08
1.98958e-08
2.44982e-08
3.04439e-08
3.20981e-08
2.60116e-08
6.02963e-09
2.1055e-05
2.11467e-05
2.12407e-05
2.1237e-05
2.11692e-05
2.1174e-05
2.12941e-05
2.15757e-05
2.17784e-05
2.18384e-05
2.17885e-05
2.1542e-05
2.1321e-05
2.12231e-05
2.12073e-05
2.12195e-05
2.12749e-05
2.13398e-05
2.13691e-05
2.13733e-05
2.13409e-05
2.13044e-05
2.13157e-05
2.14162e-05
2.15873e-05
2.16379e-05
2.16576e-05
2.17087e-05
2.18714e-05
2.23952e-05
2.31806e-05
2.37053e-05
2.39174e-05
2.39342e-05
2.3853e-05
2.35405e-05
2.33458e-05
2.3325e-05
2.33441e-05
2.33607e-05
2.33429e-05
2.3185e-05
2.2642e-05
2.21806e-05
2.1994e-05
2.1974e-05
2.20537e-05
2.24649e-05
2.28604e-05
2.30002e-05
2.30731e-05
2.31974e-05
2.33549e-05
2.34436e-05
2.3454e-05
2.33896e-05
2.32213e-05
2.31479e-05
2.31389e-05
2.31667e-05
2.33553e-05
2.42327e-05
2.76598e-05
3.23772e-05
3.48961e-05
3.5554e-05
3.53213e-05
3.31247e-05
2.455e-05
1.4418e-05
7.84388e-06
3.96063e-06
1.85952e-06
8.13199e-07
3.3167e-07
1.26266e-07
4.48869e-08
1.49022e-08
4.62104e-09
1.34649e-09
3.92571e-10
1.41052e-10
1.0101e-10
1.10916e-10
1.66016e-10
3.08341e-10
4.66579e-10
8.23296e-10
1.25483e-09
2.00649e-09
3.27832e-09
4.61698e-09
6.90258e-09
9.5452e-09
1.12408e-08
1.40863e-08
1.82957e-08
1.97485e-08
1.63404e-08
3.91898e-09
2.04416e-05
2.12683e-05
2.16062e-05
2.15948e-05
2.14474e-05
2.14087e-05
2.14852e-05
2.17986e-05
2.19732e-05
2.19309e-05
2.18281e-05
2.18852e-05
2.19551e-05
2.18937e-05
2.17052e-05
2.15849e-05
2.15402e-05
2.15247e-05
2.15098e-05
2.14672e-05
2.13665e-05
2.13267e-05
2.1332e-05
2.13864e-05
2.14355e-05
2.1438e-05
2.14392e-05
2.14697e-05
2.16261e-05
2.22404e-05
2.31487e-05
2.36564e-05
2.38094e-05
2.38067e-05
2.37016e-05
2.33879e-05
2.31478e-05
2.30048e-05
2.29199e-05
2.28714e-05
2.28168e-05
2.2694e-05
2.23601e-05
2.20389e-05
2.18994e-05
2.18843e-05
2.19249e-05
2.21027e-05
2.24108e-05
2.26896e-05
2.29865e-05
2.33649e-05
2.3626e-05
2.36828e-05
2.36453e-05
2.34404e-05
2.32186e-05
2.31335e-05
2.31218e-05
2.31482e-05
2.33331e-05
2.41976e-05
2.75388e-05
3.19885e-05
3.43217e-05
3.49091e-05
3.46772e-05
3.25823e-05
2.43954e-05
1.4461e-05
7.92747e-06
4.03439e-06
1.90986e-06
8.42504e-07
3.46784e-07
1.33308e-07
4.78854e-08
1.60767e-08
5.04585e-09
1.4821e-09
4.15144e-10
1.24206e-10
5.91587e-11
5.5618e-11
7.17938e-11
1.32731e-10
2.1003e-10
3.84533e-10
5.98746e-10
9.79597e-10
1.68181e-09
2.40864e-09
3.7169e-09
5.33124e-09
6.38383e-09
8.11761e-09
1.10356e-08
1.22217e-08
1.03052e-08
2.55725e-09
2.13395e-05
2.14308e-05
2.17271e-05
2.19047e-05
2.19369e-05
2.19306e-05
2.187e-05
2.18713e-05
2.19755e-05
2.20748e-05
2.20895e-05
2.20651e-05
2.20617e-05
2.2139e-05
2.21875e-05
2.21108e-05
2.19103e-05
2.18721e-05
2.19037e-05
2.19197e-05
2.18793e-05
2.17115e-05
2.15549e-05
2.14793e-05
2.14318e-05
2.14065e-05
2.14071e-05
2.14508e-05
2.16654e-05
2.23373e-05
2.29447e-05
2.31854e-05
2.32172e-05
2.31708e-05
2.29667e-05
2.27953e-05
2.27293e-05
2.27242e-05
2.27671e-05
2.2779e-05
2.27618e-05
2.26886e-05
2.24376e-05
2.21372e-05
2.19957e-05
2.19765e-05
2.20099e-05
2.21595e-05
2.228e-05
2.23923e-05
2.27103e-05
2.32268e-05
2.35427e-05
2.36175e-05
2.35882e-05
2.33959e-05
2.31202e-05
2.30091e-05
2.29913e-05
2.30156e-05
2.31957e-05
2.40466e-05
2.73549e-05
3.17652e-05
3.40577e-05
3.46339e-05
3.44162e-05
3.24269e-05
2.44737e-05
1.45858e-05
8.05092e-06
4.12789e-06
1.96996e-06
8.76572e-07
3.6413e-07
1.41332e-07
5.12847e-08
1.74048e-08
5.5264e-09
1.64263e-09
4.59416e-10
1.28659e-10
4.40612e-11
3.01705e-11
3.38285e-11
5.6645e-11
9.41229e-11
1.79063e-10
2.86925e-10
4.7566e-10
8.6422e-10
1.25487e-09
2.00331e-09
2.9859e-09
3.6438e-09
4.68254e-09
6.68455e-09
7.60632e-09
6.52657e-09
1.67543e-09
2.07736e-05
2.11433e-05
2.17599e-05
2.20301e-05
2.20618e-05
2.20424e-05
2.18938e-05
2.16038e-05
2.14831e-05
2.14786e-05
2.15695e-05
2.19921e-05
2.23568e-05
2.23974e-05
2.23153e-05
2.22236e-05
2.22255e-05
2.2399e-05
2.30161e-05
2.34155e-05
2.34565e-05
2.3284e-05
2.26158e-05
2.19898e-05
2.16419e-05
2.14902e-05
2.14619e-05
2.14969e-05
2.17298e-05
2.22267e-05
2.24242e-05
2.24333e-05
2.23523e-05
2.21395e-05
2.20393e-05
2.2035e-05
2.21096e-05
2.24631e-05
2.28519e-05
2.29896e-05
2.29978e-05
2.29654e-05
2.28351e-05
2.26728e-05
2.26048e-05
2.25963e-05
2.26044e-05
2.25891e-05
2.24885e-05
2.2474e-05
2.25223e-05
2.27719e-05
2.31966e-05
2.3374e-05
2.33883e-05
2.33051e-05
2.29962e-05
2.27573e-05
2.26901e-05
2.27012e-05
2.28529e-05
2.36533e-05
2.68976e-05