/*--------------------------------*- C++ -*----------------------------------*\
| =========                 |                                                 |
| \\      /  F ield         | OpenFOAM: The Open Source CFD Toolbox           |
|  \\    /   O peration     | Version:  4.1                                   |
|   \\  /    A nd           | Web:      www.OpenFOAM.org                      |
|    \\/     M anipulation  |                                                 |
\*---------------------------------------------------------------------------*/
FoamFile
{
    version     2.0;
    format      ascii;
    class       volScalarField;
    location    "0.151";
    object      nut;
}
// * * * * * * * * * * * * * * * * * * * * * * * * * * * * * * * * * * * * * //

dimensions      [0 2 -1 0 0 0 0];

internalField   nonuniform List<scalar> 
43750
(
2.28707e-08
2.71721e-08
1.2051e-08
0
0
0
0
0
0
0
0
9.38514e-10
0
0
0
0
0
4.88888e-08
2.41038e-07
3.47282e-07
2.8417e-07
1.352e-07
2.37488e-08
1.43156e-08
7.20638e-08
1.62418e-07
2.15776e-07
1.7339e-07
5.74791e-08
0
0
0
1.23607e-07
3.6665e-07
4.48874e-07
3.43545e-07
1.5775e-07
5.08556e-08
4.22222e-08
9.9846e-08
2.38306e-07
5.49167e-07
9.4091e-07
1.27631e-06
1.42314e-06
1.32098e-06
9.61795e-07
5.14668e-07
2.53639e-07
1.32606e-07
7.24554e-08
3.64385e-08
1.90157e-08
1.85483e-08
2.69067e-08
2.7092e-08
0
0
0
0
0
0
0
0
0
0
0
0
0
0
0
0
0
0
0
0
0
0
0
0
0
0
0
0
0
0
0
0
0
2.02868e-07
3.75884e-07
4.45107e-07
3.94085e-07
2.27669e-07
0
0
0
0
0
0
1.7409e-08
1.6769e-08
7.16078e-09
0
0
0
0
0
0
0
0
1.95652e-09
6.26499e-10
0
0
0
0
1.4128e-08
4.11683e-08
5.45141e-08
4.97732e-08
2.51195e-08
2.90592e-09
1.17311e-09
2.02234e-08
4.56058e-08
5.60108e-08
4.38351e-08
1.75243e-08
0
0
0
3.84404e-08
1.02504e-07
1.24427e-07
9.55047e-08
4.63952e-08
1.42539e-08
1.16204e-08
3.12487e-08
7.15097e-08
1.59493e-07
2.79794e-07
3.85964e-07
4.37839e-07
4.10846e-07
3.18524e-07
1.97566e-07
1.12493e-07
7.39971e-08
5.28307e-08
3.5762e-08
2.45807e-08
2.3825e-08
3.19782e-08
3.99075e-08
3.64061e-08
6.87752e-09
0
0
0
0
0
0
0
0
1.39429e-07
2.61326e-07
3.40698e-07
3.8405e-07
4.07868e-07
4.28121e-07
4.57846e-07
5.06515e-07
5.83082e-07
6.97675e-07
8.62214e-07
1.09086e-06
1.39924e-06
1.80412e-06
2.32097e-06
2.96318e-06
3.73942e-06
4.65053e-06
5.68712e-06
6.82452e-06
8.03277e-06
9.27565e-06
1.05115e-05
1.17041e-05
1.28299e-05
1.38519e-05
1.46978e-05
1.5272e-05
1.53613e-05
1.47217e-05
1.27337e-05
9.41763e-06
2.97873e-06
0
2.03355e-08
1.85188e-08
9.71637e-09
0
0
0
0
0
0
0
0
4.19483e-09
2.79275e-09
0
0
0
0
1.53734e-08
3.01931e-08
3.32785e-08
2.36979e-08
9.26362e-09
0
0
6.65667e-09
1.89337e-08
2.86843e-08
2.78437e-08
1.62293e-08
2.3411e-09
0
2.50253e-09
2.01753e-08
4.05607e-08
4.83599e-08
3.91405e-08
2.16836e-08
7.64356e-09
3.39577e-09
8.91725e-09
2.21251e-08
4.56384e-08
7.42238e-08
9.89932e-08
1.09683e-07
1.02346e-07
8.65229e-08
7.5102e-08
7.66886e-08
8.68658e-08
9.14288e-08
8.43196e-08
7.233e-08
6.92518e-08
8.51552e-08
1.18853e-07
1.61742e-07
2.13284e-07
2.59964e-07
1.69641e-07
0
0
0
0
6.28233e-08
5.04087e-07
1.01425e-06
1.48243e-06
1.86378e-06
2.169e-06
2.43513e-06
2.69837e-06
2.98363e-06
3.3076e-06
3.67848e-06
4.10453e-06
4.59342e-06
5.148e-06
5.77971e-06
6.48344e-06
7.26974e-06
8.13023e-06
9.05958e-06
1.00655e-05
1.1121e-05
1.22734e-05
1.34835e-05
1.47232e-05
1.5973e-05
1.71481e-05
1.82142e-05
1.90171e-05
1.92767e-05
1.87624e-05
1.70482e-05
1.38499e-05
9.31835e-06
4.64306e-06
0
0
0
0
0
8.36246e-06
6.61035e-06
4.83875e-06
5.36278e-06
5.39307e-06
2.46879e-06
2.7956e-07
0
0
6.87551e-07
4.02956e-06
5.31553e-06
5.65516e-06
5.08225e-06
2.98071e-06
5.81121e-07
0
0
2.95659e-07
7.78188e-07
1.23677e-06
1.432e-06
1.33442e-06
1.06765e-06
7.2713e-07
6.13844e-07
1.20306e-06
2.16861e-06
2.68305e-06
2.73443e-06
2.59389e-06
2.24265e-06
1.91599e-06
1.91793e-06
2.18005e-06
2.64069e-06
3.25185e-06
3.93188e-06
4.55921e-06
4.87451e-06
4.64855e-06
4.05996e-06
3.65337e-06
3.88734e-06
4.90787e-06
6.357e-06
7.82047e-06
8.88627e-06
9.19316e-06
9.00854e-06
9.03451e-06
9.49723e-06
1.0179e-05
1.08702e-05
1.14734e-05
1.08251e-05
8.77938e-06
6.75237e-06
5.83933e-06
6.28659e-06
8.35907e-06
1.20825e-05
1.55029e-05
1.80596e-05
1.96306e-05
2.04003e-05
2.06975e-05
2.07787e-05
2.08152e-05
2.08484e-05
2.09283e-05
2.10395e-05
2.11857e-05
2.13793e-05
2.15811e-05
2.18315e-05
2.2073e-05
2.23156e-05
2.25436e-05
2.26973e-05
2.27845e-05
2.27532e-05
2.25307e-05
2.21196e-05
2.14622e-05
2.04012e-05
1.89645e-05
1.71943e-05
1.50541e-05
1.25406e-05
9.8462e-06
7.1973e-06
4.79497e-06
2.80685e-06
9.24047e-08
0
0
0
0
0
5.41104e-06
2.45638e-05
2.68405e-05
1.58231e-05
9.05798e-06
3.18152e-06
0
0
0
0
4.15307e-06
2.144e-06
1.07406e-06
1.02819e-06
0
0
0
0
0
0
0
1.01643e-06
2.08193e-06
7.90224e-07
0
0
2.11186e-08
1.80152e-07
3.2424e-07
3.704e-07
4.70819e-07
8.54242e-07
1.24853e-06
1.23948e-06
9.71196e-07
6.80089e-07
4.99171e-07
6.5524e-07
1.28315e-06
2.0414e-06
2.21674e-06
1.569e-06
8.54521e-07
6.76279e-07
9.06557e-07
1.27019e-06
1.50892e-06
1.50766e-06
1.39207e-06
1.39225e-06
1.57724e-06
1.74962e-06
1.70374e-06
1.49927e-06
1.27272e-06
1.09879e-06
9.95725e-07
9.58204e-07
9.82519e-07
1.09687e-06
1.39477e-06
1.75647e-06
2.03704e-06
2.21556e-06
2.30208e-06
2.32886e-06
2.32023e-06
2.29954e-06
2.3028e-06
2.32823e-06
2.37314e-06
2.4299e-06
2.49595e-06
2.57447e-06
2.65677e-06
2.75073e-06
2.84655e-06
2.94312e-06
3.04163e-06
3.12621e-06
3.20042e-06
3.25372e-06
3.27107e-06
3.25349e-06
3.18622e-06
3.05929e-06
2.86018e-06
2.59289e-06
2.27569e-06
1.90905e-06
1.50046e-06
1.09441e-06
7.235e-07
3.97334e-07
0
0
0
0
0
1.298e-06
4.58906e-06
6.57054e-06
0
0
2.26269e-06
0
0
0
0
3.55541e-06
7.05998e-06
4.504e-06
2.63151e-06
2.49856e-06
1.39703e-06
5.33062e-07
1.51799e-06
3.50809e-07
0
0
0
0
4.3098e-07
0
0
0
0
0
0
0
1.58852e-08
2.33045e-07
4.81783e-07
4.268e-07
1.22465e-07
0
0
0
5.89924e-07
1.30494e-06
1.16158e-06
4.77563e-07
0
0
6.95343e-08
2.05754e-07
2.59086e-07
2.57195e-07
2.5372e-07
3.12908e-07
4.31384e-07
5.13093e-07
5.12535e-07
4.81527e-07
4.66529e-07
4.51206e-07
3.95519e-07
3.05229e-07
2.33121e-07
2.19904e-07
2.62053e-07
3.20365e-07
3.76956e-07
4.22103e-07
4.52546e-07
4.64275e-07
4.64509e-07
4.6982e-07
4.74558e-07
4.81821e-07
4.98391e-07
5.18837e-07
5.37357e-07
5.55904e-07
5.71286e-07
5.86103e-07
5.97203e-07
6.04238e-07
6.08049e-07
6.04949e-07
5.96966e-07
5.82583e-07
5.60988e-07
5.33375e-07
4.99642e-07
4.60251e-07
4.15781e-07
3.67996e-07
3.19804e-07
2.73728e-07
2.26263e-07
1.76627e-07
1.28343e-07
5.81478e-08
0
0
0
2.81665e-06
9.29724e-07
0
1.13334e-06
0
0
0
0
7.13749e-08
0
0
2.11281e-06
8.14595e-06
1.31343e-05
1.25033e-05
8.43121e-06
5.14685e-06
3.94027e-06
5.03786e-06
6.55418e-06
5.63848e-06
1.64236e-06
0
0
1.25085e-06
8.53838e-07
0
0
4.64492e-08
0
0
2.90552e-08
7.53977e-08
6.87023e-08
2.2145e-07
4.48528e-07
4.77215e-07
2.20898e-07
0
0
0
7.50628e-07
1.53317e-06
1.30313e-06
6.29383e-07
2.0765e-07
1.43477e-07
2.15481e-07
2.47967e-07
2.38686e-07
2.41328e-07
2.52209e-07
2.34298e-07
1.98091e-07
1.90283e-07
2.05961e-07
2.33284e-07
2.85295e-07
3.49685e-07
3.73623e-07
3.24595e-07
2.40751e-07
1.78656e-07
1.39393e-07
1.14661e-07
1.01286e-07
9.65186e-08
9.35713e-08
8.60554e-08
8.14051e-08
8.0732e-08
8.37177e-08
8.83252e-08
9.43614e-08
1.03904e-07
1.15437e-07
1.27949e-07
1.40618e-07
1.5456e-07
1.68655e-07
1.8271e-07
1.9676e-07
2.09185e-07
2.19961e-07
2.27799e-07
2.31498e-07
2.30257e-07
2.23236e-07
2.0968e-07
1.89264e-07
1.62507e-07
1.31423e-07
9.99047e-08
7.09195e-08
4.58057e-08
2.49046e-08
0
0
0
0
5.57151e-06
6.14594e-06
3.84502e-06
0
0
0
0
6.22133e-06
3.76183e-06
0
0
2.99795e-06
8.58343e-06
1.23442e-05
1.29258e-05
1.25619e-05
1.11383e-05
1.06674e-05
1.12211e-05
1.03272e-05
7.40347e-06
3.86803e-06
1.12965e-06
5.00182e-07
1.48168e-06
1.32877e-06
2.5471e-07
1.38008e-07
2.6584e-07
1.24325e-07
2.94188e-08
1.01706e-07
1.26078e-07
4.93478e-08
6.83928e-08
1.91967e-07
3.39063e-07
4.18429e-07
2.955e-07
9.70321e-08
2.22838e-07
9.01737e-07
1.62782e-06
1.59891e-06
9.85957e-07
4.91553e-07
3.11459e-07
3.03317e-07
3.53493e-07
4.17304e-07
4.89738e-07
5.23818e-07
4.36795e-07
2.62891e-07
1.41158e-07
1.12739e-07
1.36421e-07
2.05559e-07
3.10313e-07
3.85833e-07
3.69823e-07
2.87017e-07
1.95817e-07
1.2096e-07
7.08597e-08
4.27375e-08
2.91134e-08
2.19616e-08
1.70865e-08
1.41449e-08
1.2481e-08
1.20263e-08
1.25994e-08
1.3739e-08
1.53587e-08
1.79012e-08
2.11893e-08
2.47531e-08
2.9012e-08
3.37775e-08
3.90989e-08
4.50741e-08
5.14539e-08
5.81573e-08
6.48701e-08
7.10887e-08
7.62402e-08
7.9614e-08
8.03076e-08
7.7296e-08
6.96071e-08
5.68253e-08
4.02178e-08
2.25262e-08
6.43303e-09
0
0
0
0
0
0
0
0
0
0
0
5.50705e-07
9.20051e-06
6.24999e-06
1.11557e-06
0
7.09944e-07
3.97486e-06
6.00881e-06
7.6641e-06
8.07353e-06
7.79365e-06
7.70492e-06
7.6077e-06
6.57224e-06
4.63771e-06
2.34516e-06
4.62221e-07
4.2682e-08
7.91736e-07
1.08977e-06
7.10258e-07
3.99455e-07
2.6634e-07
1.7631e-07
1.94458e-07
3.44351e-07
5.00808e-07
4.77381e-07
2.41808e-07
1.21721e-08
3.3442e-08
2.86804e-07
4.49022e-07
3.14031e-07
1.80756e-07
3.7606e-07
6.17096e-07
5.80721e-07
4.04137e-07
2.61894e-07
1.92252e-07
2.01619e-07
2.95148e-07
4.29722e-07
5.36935e-07
5.52508e-07
4.29497e-07
2.26712e-07
7.45984e-08
2.50624e-08
3.79066e-08
8.51446e-08
1.50081e-07
1.80798e-07
1.53483e-07
1.10374e-07
7.78298e-08
5.12961e-08
2.91909e-08
1.48726e-08
8.21091e-09
5.60364e-09
4.18297e-09
3.1778e-09
2.44451e-09
2.03512e-09
1.91267e-09
2.01251e-09
2.26722e-09
2.66224e-09
3.28652e-09
4.05752e-09
5.02795e-09
6.18182e-09
7.54607e-09
9.18146e-09
1.11031e-08
1.3295e-08
1.57424e-08
1.83496e-08
2.09567e-08
2.33149e-08
2.5067e-08
2.57202e-08
2.46714e-08
2.13583e-08
1.56657e-08
8.23521e-09
4.13614e-10
0
0
0
0
0
0
0
2.95714e-05
1.28934e-05
0
0
8.73514e-06
1.60107e-05
1.45525e-05
7.37755e-06
1.53007e-06
0
0
1.34414e-06
4.76143e-06
6.59011e-06
4.79551e-06
2.1242e-06
1.66356e-06
2.28493e-06
2.05145e-06
8.2318e-07
0
0
7.33913e-07
1.51266e-06
1.495e-06
9.41155e-07
4.70456e-07
2.98079e-07
3.83722e-07
6.65783e-07
1.04044e-06
1.20963e-06
8.64652e-07
3.28189e-07
1.58285e-07
4.30901e-07
7.74124e-07
7.81186e-07
4.80583e-07
2.43219e-07
1.73107e-07
1.65303e-07
1.84408e-07
1.90587e-07
1.44654e-07
1.28705e-07
2.40508e-07
3.52909e-07
3.48737e-07
2.84416e-07
1.88815e-07
6.65704e-08
0
0
5.47351e-08
1.30508e-07
1.75506e-07
1.57938e-07
1.04163e-07
6.74016e-08
5.38749e-08
4.25287e-08
2.65022e-08
1.26686e-08
5.31715e-09
2.7125e-09
1.82661e-09
1.2923e-09
8.7594e-10
6.13255e-10
4.71956e-10
4.148e-10
4.30738e-10
4.94297e-10
5.92371e-10
7.50534e-10
9.68594e-10
1.23746e-09
1.56398e-09
1.97514e-09
2.49459e-09
3.11691e-09
3.85784e-09
4.71403e-09
5.65339e-09
6.60678e-09
7.47435e-09
8.09733e-09
8.28035e-09
7.80847e-09
6.49715e-09
4.23732e-09
1.39727e-09
0
0
0
0
0
0
0
0
0
0
6.19598e-06
1.28074e-05
1.41699e-05
1.2228e-05
8.79558e-06
5.16969e-06
9.90634e-07
7.70711e-07
3.79122e-06
7.49317e-06
7.89034e-06
3.95215e-06
0
0
5.90845e-07
3.38222e-06
2.51059e-06
6.86982e-07
5.91766e-07
1.9196e-06
3.15978e-06
3.15221e-06
2.26257e-06
1.51323e-06
1.29995e-06
1.52976e-06
1.94946e-06
2.35891e-06
2.59475e-06
2.36365e-06
1.59671e-06
8.80302e-07
6.7017e-07
7.08656e-07
6.29727e-07
4.2674e-07
2.46752e-07
1.70285e-07
2.28804e-07
3.70458e-07
4.54237e-07
3.89379e-07
2.87288e-07
2.88449e-07
2.93369e-07
2.09436e-07
1.21542e-07
6.62991e-08
1.41184e-08
0
4.94809e-08
1.36689e-07
1.93008e-07
1.79552e-07
1.04344e-07
2.76069e-08
0
6.16629e-10
5.20684e-09
0
0
0
0
0
0
0
1.75758e-11
8.68602e-11
8.7576e-11
8.49986e-11
9.40485e-11
1.06253e-10
1.23651e-10
1.58126e-10
2.04158e-10
2.62324e-10
3.42552e-10
4.55099e-10
5.99422e-10
7.87215e-10
1.0282e-09
1.32235e-09
1.65693e-09
2.01465e-09
2.34792e-09
2.60194e-09
2.69334e-09
2.53739e-09
2.02141e-09
1.24072e-09
1.03611e-10
0
0
0
0
0
0
5.41167e-06
5.91634e-06
1.10503e-05
7.54068e-06
4.88979e-06
3.02354e-06
1.10114e-06
1.79403e-06
2.05023e-06
0
0
5.25915e-06
8.58736e-06
5.14967e-06
5.49204e-07
0
0
0
1.68793e-06
2.47301e-06
6.6953e-07
1.0583e-06
3.63541e-06
4.88519e-06
4.02034e-06
2.74598e-06
2.036e-06
2.09014e-06
2.70344e-06
3.24424e-06
3.4084e-06
3.23323e-06
2.7698e-06
2.09304e-06
1.44651e-06
1.03782e-06
7.83716e-07
5.45901e-07
3.32625e-07
1.65061e-07
5.4054e-08
8.23899e-08
2.35949e-07
3.38204e-07
2.92419e-07
2.18853e-07
2.31161e-07
2.43599e-07
1.67543e-07
8.18318e-08
5.34333e-08
5.2013e-08
6.78983e-08
9.85476e-08
1.16752e-07
1.1237e-07
8.92319e-08
4.31461e-08
4.78459e-10
0
4.17993e-09
9.7742e-09
2.89396e-09
0
0
0
0
0
0
0
0
6.36811e-12
1.0982e-11
1.16589e-11
9.01926e-12
2.36783e-12
0
0
0
0
0
0
0
2.56431e-11
8.75844e-11
1.79624e-10
3.07311e-10
4.5779e-10
6.1753e-10
7.46571e-10
8.04906e-10
7.34936e-10
5.64082e-10
1.78744e-10
0
0
0
0
1.11114e-06
4.14077e-07
0
7.15825e-06
1.8046e-05
1.10206e-05
4.95478e-06
0
0
0
0
0
0
0
3.44695e-06
1.46482e-07
0
0
0
0
6.20745e-07
3.62446e-07
0
2.82731e-07
2.75832e-06
3.88535e-06
2.86268e-06
1.75783e-06
1.30984e-06
1.4774e-06
2.21212e-06
3.00295e-06
3.16841e-06
2.6941e-06
2.01965e-06
1.43541e-06
1.01421e-06
6.9753e-07
4.13607e-07
2.05182e-07
1.3913e-07
1.131e-07
6.4492e-08
9.71744e-08
2.4824e-07
3.99477e-07
4.28095e-07
3.57953e-07
2.81009e-07
1.97198e-07
9.73207e-08
3.24464e-08
2.66252e-08
4.12707e-08
5.31526e-08
5.20562e-08
3.12709e-08
1.17552e-08
3.45141e-09
0
0
0
0
0
0
0
0
0
0
2.3554e-10
2.62115e-10
1.6129e-10
8.55883e-11
3.95753e-11
1.58538e-11
4.67676e-12
0
0
0
0
0
0
0
0
0
0
0
0
0
0
0
8.64956e-11
1.70423e-10
2.03371e-10
1.90564e-10
4.45987e-11
0
0
0
0
2.4265e-06
4.2155e-06
7.62055e-06
1.7796e-05
2.44848e-05
1.58355e-05
6.95463e-06
0
0
0
0
0
0
1.97929e-06
3.47249e-06
0
0
0
0
9.83384e-07
1.44382e-06
5.50402e-07
7.25268e-08
1.07869e-06
2.26604e-06
1.88012e-06
7.419e-07
1.1983e-07
0
0
4.782e-07
1.11299e-06
1.32661e-06
1.15107e-06
8.97894e-07
7.08977e-07
5.84695e-07
4.72124e-07
3.46676e-07
2.80013e-07
3.31199e-07
3.71578e-07
2.58645e-07
1.18955e-07
1.12399e-07
2.16004e-07
3.3229e-07
3.94156e-07
3.80657e-07
2.92305e-07
1.69642e-07
7.6609e-08
2.94545e-08
2.01276e-09
0
0
0
0
0
0
0
0
0
0
0
0
0
0
0
0
1.58871e-10
1.56871e-10
9.87367e-11
5.07495e-11
2.14863e-11
6.19006e-12
0
0
0
0
0
0
0
0
0
0
0
0
0
0
0
0
0
3.09089e-11
5.69111e-11
5.45406e-12
0
0
0
0
0
0
0
5.70255e-06
1.38425e-05
1.13176e-05
7.59085e-06
5.48773e-06
3.37182e-06
1.36061e-06
0
0
5.11123e-06
8.98905e-06
7.69238e-06
4.35828e-06
1.69561e-06
3.52618e-07
4.55877e-07
1.66119e-06
2.53966e-06
2.34736e-06
2.16759e-06
2.40858e-06
2.12147e-06
1.40941e-06
9.0536e-07
7.90982e-07
6.94765e-07
3.54112e-07
2.46087e-07
4.37593e-07
5.64218e-07
5.83224e-07
5.00627e-07
3.60996e-07
2.63464e-07
2.49147e-07
3.02303e-07
4.35823e-07
6.47077e-07
7.68305e-07
6.13354e-07
3.06189e-07
9.90389e-08
7.48886e-08
1.86229e-07
3.31859e-07
4.12968e-07
3.68893e-07
2.31653e-07
1.12044e-07
4.71158e-08
1.79211e-10
0
0
0
0
0
0
0
0
0
0
0
0
0
0
0
3.38612e-10
4.04779e-10
2.50607e-10
1.32297e-10
6.32093e-11
2.66163e-11
8.11307e-12
0
0
0
0
0
0
0
0
0
0
0
0
0
0
0
0
0
0
0
0
0
0
0
0
8.54347e-07
3.93827e-07
1.89644e-06
3.01406e-05
1.67914e-05
1.2303e-05
8.05896e-06
5.9517e-06
4.25249e-06
4.51721e-06
6.94099e-06
8.47819e-06
8.8895e-06
8.57336e-06
6.95099e-06
4.66831e-06
2.85577e-06
1.66876e-06
1.10648e-06
2.34485e-06
4.80098e-06
4.90079e-06
3.18039e-06
1.67111e-06
1.10359e-06
1.15984e-06
1.52265e-06
1.835e-06
1.66373e-06
1.05472e-06
4.56336e-07
1.99497e-07
3.13922e-07
6.18538e-07
8.15377e-07
7.46938e-07
5.63276e-07
4.48254e-07
4.29013e-07
4.79172e-07
5.72781e-07
6.1408e-07
5.1151e-07
3.14354e-07
1.39503e-07
9.14948e-08
2.13855e-07
4.11437e-07
5.2977e-07
4.92151e-07
3.27805e-07
1.5877e-07
5.6636e-08
0
0
0
0
0
0
0
0
0
0
0
0
0
0
0
0
0
8.12976e-11
1.35271e-10
9.11573e-11
4.92622e-11
2.14009e-11
6.03649e-12
0
0
0
0
0
0
0
0
0
0
0
0
0
0
0
0
0
0
0
0
0
0
0
0
0
0
0
2.10779e-06
5.57804e-06
0
0
0
6.58139e-06
1.11414e-05
1.49492e-05
1.53751e-05
1.18126e-05
7.7255e-06
4.72768e-06
3.04286e-06
2.50717e-06
2.60244e-06
3.01638e-06
3.42347e-06
3.57791e-06
3.22866e-06
1.91197e-06
3.90026e-07
5.07887e-08
1.0289e-06
1.84494e-06
1.73619e-06
1.15272e-06
5.75975e-07
2.01629e-07
1.0663e-07
3.02023e-07
7.40272e-07
1.22677e-06
1.41966e-06
1.19645e-06
8.35576e-07
5.90279e-07
4.64112e-07
3.73018e-07
2.73834e-07
1.66953e-07
5.75531e-08
0
0
3.9611e-08
2.31517e-07
3.35961e-07
3.14923e-07
2.03688e-07
8.60145e-08
2.3568e-08
0
0
0
0
0
0
0
0
0
0
0
0
0
0
0
0
0
0
0
2.15746e-11
2.47652e-11
1.30405e-11
3.34142e-12
0
0
0
0
0
0
0
0
0
0
0
0
0
0
0
0
0
0
0
0
0
0
0
0
0
0
2.86106e-06
6.01518e-06
7.04008e-06
4.74272e-06
4.60915e-07
0
2.36044e-06
6.18309e-06
1.16678e-05
1.60657e-05
1.45999e-05
9.60793e-06
6.38975e-06
5.36133e-06
5.22606e-06
5.32263e-06
5.71087e-06
5.16523e-06
3.18324e-06
1.30545e-06
0
0
0
2.73281e-07
6.57922e-07
2.31011e-07
1.82136e-08
0
0
5.84401e-08
2.72007e-07
6.44548e-07
1.0499e-06
1.20307e-06
1.04534e-06
8.4116e-07
7.50588e-07
6.75171e-07
5.10823e-07
2.85058e-07
8.25667e-08
0
0
0
4.1328e-08
2.27459e-07
3.00886e-07
2.49544e-07
1.2861e-07
2.35652e-08
0
0
0
0
0
0
0
1.64795e-09
0
0
0
0
0
0
0
0
0
0
0
0
0
0
4.37056e-12
1.56904e-12
0
0
0
0
0
0
0
0
0
0
0
0
0
0
0
0
0
0
0
0
0
0
0
0
0
0
8.71319e-06
1.57621e-05
1.28429e-05
7.97671e-06
5.50186e-06
5.15835e-06
3.66962e-06
3.20982e-06
6.02034e-06
6.52446e-06
4.40266e-06
3.6288e-06
5.31708e-06
8.09033e-06
9.50169e-06
9.8417e-06
9.09308e-06
6.39142e-06
3.70935e-06
1.91507e-06
5.56999e-07
0
2.40893e-07
9.64485e-07
4.10602e-07
0
7.74015e-08
2.92085e-07
3.37197e-07
3.58951e-07
4.18491e-07
5.11709e-07
6.36191e-07
7.74888e-07
8.9083e-07
9.61972e-07
1.01681e-06
1.01208e-06
8.34162e-07
4.94576e-07
1.73978e-07
1.64865e-08
0
4.99881e-08
1.51567e-07
2.44414e-07
2.60743e-07
1.94288e-07
7.71526e-08
0
0
0
0
0
0
0
0
0
0
0
0
0
0
0
0
0
0
0
0
0
0
1.08136e-11
1.01302e-11
5.58426e-12
1.64931e-12
0
0
0
0
0
0
0
0
0
0
0
0
0
0
0
0
0
0
0
0
0
0
0
0
0
1.60709e-05
2.02503e-05
1.06683e-05
6.63596e-06
7.58973e-06
9.04173e-06
4.28284e-06
9.05112e-07
1.25374e-06
1.20646e-06
4.95483e-07
5.58553e-07
2.09786e-06
4.75694e-06
6.62176e-06
6.40367e-06
5.06535e-06
3.66065e-06
2.99894e-06
2.58951e-06
1.70051e-06
8.26477e-07
6.92514e-07
5.19579e-07
9.51768e-08
5.66198e-08
4.69052e-07
8.65758e-07
9.70808e-07
9.05769e-07
7.88649e-07
6.36608e-07
4.79296e-07
4.15593e-07
4.83599e-07
6.09838e-07
7.64759e-07
9.12642e-07
9.09586e-07
6.24139e-07
2.31709e-07
4.60799e-08
3.44384e-08
6.79444e-08
1.08189e-07
1.27402e-07
1.1013e-07
5.86703e-08
0
0
2.90608e-08
9.90247e-08
1.05677e-07
8.22827e-08
3.02409e-08
0
0
0
0
0
0
0
0
0
0
0
0
0
0
0
7.49023e-11
5.67844e-11
3.29674e-11
1.72352e-11
7.71929e-12
2.54141e-12
1.82971e-13
0
0
0
0
0
0
0
0
0
0
0
0
0
0
0
0
0
0
0
0
0
2.25258e-06
0
0
3.44161e-06
6.43232e-06
4.55007e-06
6.82824e-06
6.77434e-06
4.67399e-06
5.74595e-06
5.72799e-06
2.89483e-06
6.25219e-07
0
3.21018e-07
9.61947e-07
4.13757e-07
0
0
2.10706e-07
1.3199e-06
1.83025e-06
1.93188e-06
2.02356e-06
1.76012e-06
1.04731e-06
4.33663e-07
3.28202e-07
7.59309e-07
1.32302e-06
1.56747e-06
1.48388e-06
1.25898e-06
9.21912e-07
5.24885e-07
2.06999e-07
6.48543e-08
6.44579e-08
1.3427e-07
2.39177e-07
2.9223e-07
2.04807e-07
6.3625e-08
2.63576e-08
3.44041e-08
2.39249e-08
2.14235e-08
2.05019e-08
1.72911e-08
7.7297e-09
0
6.72593e-09
1.15661e-07
1.87761e-07
1.6431e-07
1.06135e-07
3.42871e-08
0
0
9.20575e-09
0
0
0
0
0
0
0
0
0
0
0
0
1.29624e-10
1.02489e-10
6.18716e-11
3.38977e-11
1.68626e-11
7.43564e-12
2.7343e-12
6.24883e-13
0
0
0
0
0
0
0
0
0
0
0
0
0
0
0
0
0
0
0
0
6.73249e-06
6.35702e-06
2.57747e-06
0
2.5133e-06
8.2275e-07
2.38842e-06
7.21597e-06
1.18256e-05
1.51987e-05
1.54409e-05
1.08159e-05
5.61704e-06
1.70963e-06
3.06284e-07
3.76693e-07
0
0
0
5.98851e-07
1.28783e-06
1.37082e-06
1.60914e-06
1.84098e-06
1.57955e-06
9.02894e-07
1.83034e-07
0
5.65753e-07
1.80953e-06
2.74116e-06
2.75439e-06
2.18393e-06
1.45881e-06
8.23522e-07
3.85443e-07
1.47574e-07
4.88176e-08
1.38849e-08
3.90585e-09
1.30901e-08
1.34758e-08
0
0
0
0
0
9.71745e-09
2.08848e-08
1.90778e-08
4.80061e-09
3.85815e-08
1.47174e-07
2.02488e-07
1.57998e-07
8.23177e-08
0
0
0
0
0
0
0
0
0
0
0
0
0
0
0
1.40703e-10
2.53738e-10
1.77725e-10
1.04783e-10
5.76462e-11
2.96431e-11
1.41515e-11
6.19101e-12
2.35329e-12
6.71727e-13
0
0
0
0
0
0
0
0
0
0
0
0
0
0
0
0
0
0
0
1.94846e-06
0
0
1.9426e-06
3.22023e-07
0
4.52487e-07
2.96931e-06
7.48545e-06
1.2652e-05
1.62852e-05
1.4261e-05
1.25417e-05
8.40791e-06
2.98248e-06
7.18351e-07
0
0
0
6.81262e-07
9.17643e-07
8.20806e-07
9.25726e-07
1.10608e-06
1.11055e-06
7.73994e-07
1.19151e-07
0
1.05652e-06
2.19171e-06
2.46448e-06
2.18853e-06
1.74573e-06
1.24997e-06
7.95335e-07
5.04581e-07
3.78493e-07
3.31782e-07
2.82435e-07
1.83234e-07
9.17919e-08
6.93888e-08
5.04382e-08
4.94226e-09
0
2.31419e-08
1.17093e-07
1.50116e-07
1.0804e-07
5.29616e-08
1.70572e-08
6.58349e-08
2.0052e-07
2.48182e-07
1.65365e-07
6.14623e-08
0
0
0
0
0
0
0
0
0
0
0
0
0
0
0
2.95028e-10
3.82289e-10
2.61953e-10
1.54403e-10
8.58733e-11
4.53324e-11
2.24583e-11
1.04365e-11
4.49055e-12
1.70203e-12
5.08814e-13
4.15982e-14
0
0
0
0
0
0
0
0
0
0
0
0
0
0
0
0
0
0
0
0
0
7.23132e-07
3.7435e-06
4.48142e-06
1.78466e-06
7.08508e-07
3.44293e-06
7.64695e-06
1.15141e-05
1.27261e-05
1.0561e-05
6.82929e-06
3.16849e-06
6.05472e-07
2.58737e-07
1.72944e-06
2.941e-06
2.50189e-06
1.45075e-06
7.68186e-07
4.74151e-07
3.47522e-07
2.13174e-07
6.32032e-08
3.38572e-07
1.1447e-06
1.77197e-06
1.97117e-06
1.84484e-06
1.54418e-06
1.1826e-06
9.00374e-07
8.03239e-07
8.24117e-07
8.28777e-07
7.45824e-07
5.66622e-07
3.46133e-07
1.87449e-07
8.24399e-08
0
0
2.13918e-08
1.61459e-07
2.20966e-07
1.49991e-07
3.61016e-08
0
0
6.91005e-08
8.85752e-08
1.69459e-08
0
0
0
0
0
0
0
0
0
0
0
0
0
0
0
0
4.08111e-10
4.88663e-10
3.38227e-10
2.02959e-10
1.15363e-10
6.26334e-11
3.20076e-11
1.54792e-11
7.11076e-12
2.9972e-12
1.11496e-12
3.54483e-13
3.87424e-14
0
0
0
0
0
0
0
0
0
0
0
0
0
0
0
0
0
0
0
0
4.68601e-07
7.68093e-06
8.36447e-06
3.02038e-06
0
0
2.03389e-06
4.19135e-06
6.17635e-06
8.57277e-06
1.015e-05
8.51629e-06
4.34114e-06
2.89584e-06
4.54408e-06
5.64001e-06
5.25019e-06
3.82013e-06
2.34842e-06
1.39594e-06
8.82035e-07
6.23148e-07
5.15433e-07
7.76869e-07
1.27335e-06
1.48341e-06
1.37651e-06
1.07777e-06
6.93645e-07
3.21442e-07
9.88127e-08
1.53717e-07
4.26735e-07
7.00433e-07
8.36245e-07
8.07273e-07
6.38226e-07
4.17276e-07
2.29778e-07
9.64799e-08
3.87438e-08
7.78733e-08
1.95343e-07
2.82885e-07
2.36747e-07
8.74404e-08
0
0
0
0
0
0
0
0
0
0
0
0
0
0
0
0
0
0
0
0
0
4.39292e-10
5.57457e-10
3.99439e-10
2.47312e-10
1.44181e-10
8.02351e-11
4.22969e-11
2.12677e-11
1.02366e-11
4.59267e-12
1.86515e-12
7.08804e-13
2.543e-13
0
0
0
0
0
0
0
0
0
0
0
0
0
0
0
0
0
1.89419e-05
3.82716e-05
2.08064e-05
9.845e-06
7.73143e-06
7.91259e-07
0
0
0
0
6.35311e-07
1.92469e-06
4.36057e-06
7.0778e-06
7.53748e-06
5.32521e-06
2.55089e-06
2.57743e-06
3.67068e-06
4.01863e-06
3.21423e-06
2.10992e-06
1.37322e-06
9.41044e-07
6.38401e-07
1.68606e-07
0
2.08219e-07
4.25998e-07
3.51828e-07
1.79195e-07
2.8552e-08
0
0
0
3.10486e-08
2.52768e-07
3.80905e-07
3.77568e-07
2.83403e-07
1.73097e-07
9.80105e-08
6.04679e-08
6.59097e-08
1.24884e-07
2.31748e-07
3.17108e-07
2.95496e-07
1.71169e-07
1.40735e-08
0
0
0
0
0
0
0
0
0
0
0
0
0
0
0
0
0
0
0
0
2.91681e-10
5.52241e-10
4.31859e-10
2.81871e-10
1.70316e-10
9.76792e-11
5.32693e-11
2.77764e-11
1.38524e-11
6.49774e-12
2.83273e-12
1.16265e-12
4.78675e-13
1.74472e-13
0
0
0
0
0
0
0
0
0
0
0
0
0
0
0
0
0
1.91336e-05
1.75417e-05
1.70891e-07
0
0
0
0
0
0
2.71721e-07
1.17539e-06
2.13793e-06
2.42809e-06
1.28672e-06
0
0
0
7.27537e-07
6.26611e-07
9.47056e-08
0
0
0
0
0
0
0
0
0
0
0
9.11917e-08
2.01669e-07
1.44191e-07
1.12611e-07
1.38766e-07
1.536e-07
1.32506e-07
1.18453e-07
1.5135e-07
1.98326e-07
2.07673e-07
1.80187e-07
1.44539e-07
1.32426e-07
1.33524e-07
1.17376e-07
7.53713e-08
1.24936e-08
0
0
0
0
0
0
0
0
0
0
0
0
0
0
0
0
0
0
0
0
3.37305e-11
5.07214e-10
4.49264e-10
3.11448e-10
1.95878e-10
1.16131e-10
6.53884e-11
3.51266e-11
1.80211e-11
8.75851e-12
4.01549e-12
1.76042e-12
7.81659e-13
3.55662e-13
9.97937e-14
0
0
0
0
0
0
0
0
0
0
0
0
0
0
2.57722e-05
3.46958e-05
3.95987e-05
1.79596e-05
0
0
0
0
0
6.22465e-08
7.45901e-07
8.1083e-07
1.09429e-06
5.98172e-07
0
0
0
0
0
0
0
0
0
0
0
0
0
0
0
0
0
0
7.17461e-08
5.74185e-07
5.20012e-07
2.93821e-07
1.72127e-07
1.50233e-07
1.47916e-07
1.46069e-07
1.7795e-07
2.66474e-07
3.72398e-07
4.24398e-07
3.87637e-07
2.69397e-07
1.23634e-07
3.27468e-08
2.0682e-08
2.36392e-08
0
0
0
0
0
0
0
0
0
0
0
0
0
0
0
0
0
0
0
0
0
0
4.48324e-10
4.68568e-10
3.47186e-10
2.28209e-10
1.40184e-10
8.14946e-11
4.50493e-11
2.37789e-11
1.19683e-11
5.72914e-12
2.6165e-12
1.20877e-12
6.10464e-13
2.8441e-13
1.40776e-14
0
0
0
0
0
0
0
0
0
0
0
0
0
1.19885e-05
7.05132e-06
0
0
0
0
0
0
5.34048e-07
1.9648e-06
1.98433e-06
4.71235e-07
0
0
0
0
0
0
0
0
0
0
0
0
0
0
0
0
0
0
4.08507e-08
3.35326e-07
7.69925e-07
9.32869e-07
6.21567e-07
2.40256e-07
8.28293e-08
7.91599e-08
1.03613e-07
1.18679e-07
1.35689e-07
1.67103e-07
2.04489e-07
2.32731e-07
2.40155e-07
2.19386e-07
1.68846e-07
1.08138e-07
7.95149e-08
5.79213e-08
8.68382e-09
0
0
0
0
0
0
0
0
0
0
0
0
0
0
0
0
0
0
0
0
0
4.34285e-10
5.14179e-10
3.97228e-10
2.69014e-10
1.69578e-10
1.01111e-10
5.73024e-11
3.10353e-11
1.61044e-11
8.03763e-12
3.90151e-12
1.86522e-12
9.83861e-13
5.42801e-13
2.0937e-13
0
0
0
0
0
0
0
0
0
0
0
0
0
0
0
4.23584e-06
0
0
0
0
0
0
0
0
0
0
0
0
0
0
0
0
1.44254e-07
0
0
0
0
0
0
2.43885e-07
8.23634e-08
0
0
5.3033e-10
1.37166e-07
2.73546e-07
2.4053e-07
7.5602e-08
0
3.81971e-08
1.23547e-07
1.56717e-07
1.5366e-07
1.48705e-07
1.39759e-07
1.0664e-07
8.56838e-08
1.2451e-07
1.90683e-07
2.02499e-07
1.16648e-07
1.88294e-08
0
0
0
0
0
0
0
0
0
0
0
0
0
0
0
0
0
0
0
0
0
0
0
4.89794e-10
6.01037e-10
4.68415e-10
3.21085e-10
2.05499e-10
1.24837e-10
7.22552e-11
4.00177e-11
2.13366e-11
1.09763e-11
5.52675e-12
2.89058e-12
1.5829e-12
9.38019e-13
4.86659e-13
1.13045e-13
0
0
0
0
0
0
0
0
0
0
0
0
0
3.90509e-06
1.77544e-06
0
0
1.07324e-07
1.32825e-06
0
0
0
0
0
0
0
0
0
0
0
2.31769e-07
1.21136e-06
1.49295e-06
1.09067e-06
6.09101e-08
0
0
4.92857e-07
7.45689e-07
4.81805e-07
1.91999e-07
4.1767e-08
0
0
0
0
0
0
1.35298e-08
6.10351e-08
1.19635e-07
1.98077e-07
2.98427e-07
3.84748e-07
3.74337e-07
2.71112e-07
2.00598e-07
2.07333e-07
2.33582e-07
1.79228e-07
6.22944e-08
0
0
0
0
0
0
0
0
0
0
0
0
0
0
0
0
0
0
0
0
0
0
0
5.91428e-10
7.27611e-10
5.65086e-10
3.88768e-10
2.50931e-10
1.5447e-10
9.11123e-11
5.16039e-11
2.81967e-11
1.50346e-11
7.92545e-12
4.27888e-12
2.58639e-12
1.63658e-12
9.40205e-13
4.08686e-13
0
0
0
0
0
0
0
0
0
0
0
0
0
0
3.34373e-06
0
0
0
9.10607e-07
1.52108e-07
0
0
0
0
1.42552e-06
1.33403e-06
0
0
0
0
1.55322e-06
3.39356e-06
4.40154e-06
4.39939e-06
3.50476e-06
2.47527e-06
1.79523e-06
1.1622e-06
5.9704e-07
1.83709e-07
5.51651e-08
8.87348e-08
1.57029e-07
2.07227e-07
1.85573e-07
1.0001e-07
4.00105e-08
2.66589e-08
2.55427e-08
3.0239e-08
8.58224e-08
2.30525e-07
4.30695e-07
6.02966e-07
6.34741e-07
4.97731e-07
3.26748e-07
2.3342e-07
2.20689e-07
1.83425e-07
7.38871e-08
0
0
0
0
0
0
0
0
0
0
0
0
0
0
0
0
0
0
0
0
0
0
0
6.31782e-10
8.50212e-10
6.72072e-10
4.67564e-10
3.05157e-10
1.90272e-10
1.14107e-10
6.59049e-11
3.68037e-11
2.00841e-11
1.10303e-11
6.45675e-12
4.01001e-12
2.72823e-12
1.74344e-12
9.11945e-13
2.76985e-13
0
0
0
0
0
0
0
0
0
0
0
0
5.78172e-06
4.89765e-06
2.8524e-06
1.51748e-06
6.20061e-07
0
0
0
0
4.43909e-07
4.6112e-06
9.46064e-06
8.8632e-06
3.93346e-06
3.22124e-07
0
0
8.64644e-07
2.70777e-06
3.98768e-06
4.23586e-06
3.30616e-06
1.56983e-06
0
0
2.04399e-07
7.2809e-07
8.19792e-07
7.85663e-07
7.30131e-07
6.20191e-07
3.3396e-07
0
0
0
0
2.60045e-08
1.51657e-07
3.3316e-07
5.1969e-07
6.30636e-07
6.07567e-07
4.76923e-07
3.45884e-07
2.83775e-07
2.86888e-07
2.55642e-07
1.1433e-07
0
0
0
0
0
0
0
0
0
0
0
0
0
0
0
0
0
0
0
0
0
0
0
5.90106e-10
9.44594e-10
7.7439e-10
5.50365e-10
3.66254e-10
2.32923e-10
1.4258e-10
8.41762e-11
4.81185e-11
2.69024e-11
1.51464e-11
9.07755e-12
6.4253e-12
4.7793e-12
3.19969e-12
1.86988e-12
8.04861e-13
8.6248e-14
0
0
0
0
0
0
0
0
0
0
7.72146e-07
3.97125e-06
3.37259e-06
2.59064e-06
2.90309e-06
3.94174e-06
2.35712e-06
0
0
0
0
2.44104e-06
7.9156e-06
8.02e-06
5.5488e-06
3.17334e-06
1.28942e-06
0
0
9.10255e-07
1.93002e-06
1.81654e-06
6.9424e-07
0
0
0
2.26302e-07
1.01399e-06
1.33775e-06
1.33796e-06
1.17008e-06
8.78159e-07
4.74653e-07
7.65023e-08
0
0
0
0
0
0
1.35892e-07
2.61874e-07
2.82427e-07
2.22396e-07
1.6293e-07
1.45551e-07
1.66264e-07
1.57021e-07
5.35684e-08
0
0
0
0
0
0
0
0
0
0
0
0
0
0
0
0
0
0
0
0
0
0
0
5.19893e-10
1.02157e-09
8.68283e-10
6.30363e-10
4.28168e-10
2.78354e-10
1.74408e-10
1.05632e-10
6.21614e-11
3.60205e-11
2.09871e-11
1.32615e-11
9.40056e-12
7.59054e-12
5.91372e-12
3.75052e-12
1.90655e-12
6.03312e-13
0
0
0
0
0
0
0
0
0
0
0
0
1.94051e-06
2.66346e-06
6.82447e-06
1.0109e-05
8.11248e-06
4.46892e-06
9.8553e-07
0
0
0
4.70435e-06
5.77614e-06
4.66282e-06
3.14581e-06
2.02826e-06
1.31286e-06
1.3766e-06
3.14157e-06
3.68276e-06
2.30283e-06
4.92585e-07
0
0
4.95264e-08
6.20277e-07
7.52128e-07
5.67944e-07
3.30591e-07
2.25376e-07
1.7211e-07
1.1102e-07
7.94241e-08
8.79692e-08
1.03359e-07
3.39836e-08
0
0
0
0
1.44551e-07
1.70353e-07
1.04622e-07
5.66758e-08
5.58269e-08
8.01408e-08
6.77961e-08
0
0
0
0
0
0
0
0
0
0
0
0
0
0
0
0
0
0
0
0
0
0
0
0
3.61898e-10
1.07843e-09
9.59252e-10
7.10916e-10
4.90844e-10
3.24483e-10
2.07107e-10
1.28131e-10
7.73568e-11
4.61839e-11
2.82227e-11
1.84223e-11
1.42239e-11
1.18512e-11
1.00015e-11
7.17209e-12
4.19143e-12
1.77895e-12
2.97767e-13
0
0
0
0
0
0
0
0
0
6.95083e-07
0
0
3.06744e-06
6.64924e-06
7.40399e-06
4.37949e-06
7.16936e-07
0
0
0
0
1.17422e-06
2.60222e-06
1.77207e-06
1.62327e-06
2.91967e-06
4.00871e-06
3.75612e-06
4.5693e-06
5.18092e-06
2.54482e-06
0
0
0
5.42722e-07
8.02456e-07
6.34841e-07
3.48325e-07
1.49759e-07
8.38605e-08
3.49561e-08
0
0
0
4.82667e-08
3.51062e-08
0
0
0
7.59715e-08
1.73169e-07
1.73852e-07
8.78247e-08
2.8738e-08
3.8566e-08
8.83465e-08
9.43067e-08
1.53756e-08
0
0
0
0
0
0
0
0
0
0
0
0
0
0
0
0
0
0
0
0
0
0
0
0
1.07584e-09
1.04309e-09
7.98222e-10
5.62314e-10
3.78032e-10
2.45376e-10
1.54628e-10
9.52168e-11
5.80918e-11
3.6339e-11
2.50064e-11
1.96983e-11
1.80627e-11
1.62188e-11
1.32578e-11
8.68204e-12
4.49602e-12
1.44429e-12
0
0
0
0
0
0
0
0
0
2.704e-07
0
0
0
2.63705e-06
1.96608e-06
0
0
0
0
0
0
0
1.03521e-06
3.48635e-07
4.65275e-07
1.57225e-06
2.67961e-06
3.41001e-06
4.21747e-06
3.57167e-06
7.38897e-07
0
0
0
2.92997e-07
4.50093e-07
3.09871e-07
1.41185e-07
1.11768e-07
1.6024e-07
1.7554e-07
1.39037e-07