/*--------------------------------*- C++ -*----------------------------------*\
| =========                 |                                                 |
| \\      /  F ield         | OpenFOAM: The Open Source CFD Toolbox           |
|  \\    /   O peration     | Version:  4.1                                   |
|   \\  /    A nd           | Web:      www.OpenFOAM.org                      |
|    \\/     M anipulation  |                                                 |
\*---------------------------------------------------------------------------*/
FoamFile
{
    version     2.0;
    format      ascii;
    class       volScalarField;
    location    "0.151";
    object      p;
}
// * * * * * * * * * * * * * * * * * * * * * * * * * * * * * * * * * * * * * //

dimensions      [0 2 -2 0 0 0 0];

internalField   nonuniform List<scalar> 
43750
(
-1799.7
-1886.68
-1921.73
-1923.31
-1906.37
-1877.36
-1840.67
-1798.89
-1753.79
-1706.5
-1657.86
-1608.5
-1558.92
-1509.49
-1460.53
-1412.26
-1364.85
-1318.43
-1273.09
-1228.91
-1185.94
-1144.22
-1103.77
-1064.59
-1026.67
-989.982
-954.514
-920.237
-887.132
-855.175
-824.341
-794.6
-765.912
-738.236
-711.538
-685.788
-660.962
-637.026
-613.947
-591.692
-570.23
-549.532
-529.569
-510.31
-491.729
-473.806
-456.521
-439.85
-423.763
-408.235
-393.25
-378.797
-364.863
-351.423
-338.444
-325.901
-313.785
-302.105
-290.867
-280.067
-269.682
-259.676
-250.017
-240.684
-231.668
-222.968
-214.586
-206.52
-198.765
-191.317
-184.167
-177.309
-170.736
-164.443
-158.424
-152.672
-147.185
-141.956
-136.981
-132.257
-127.778
-123.541
-119.542
-115.777
-112.242
-108.933
-105.848
-102.982
-100.334
-97.9016
-95.6837
-93.6798
-91.8904
-90.3168
-88.9606
-87.8245
-86.911
-86.223
-85.7626
-85.5321
-1948.87
-1953.57
-1956.37
-1943.46
-1918.45
-1885.05
-1845.72
-1802.22
-1756.01
-1707.86
-1658.57
-1608.72
-1558.77
-1509.06
-1459.87
-1411.41
-1363.85
-1317.33
-1271.93
-1227.72
-1184.74
-1143.01
-1102.55
-1063.35
-1025.42
-988.735
-953.286
-919.049
-885.993
-854.086
-823.292
-793.578
-764.912
-737.264
-710.602
-684.894
-660.104
-636.201
-613.153
-590.927
-569.492
-548.819
-528.879
-509.646
-491.093
-473.197
-455.936
-439.285
-423.224
-407.729
-392.778
-378.352
-364.433
-351.004
-338.043
-325.53
-313.454
-301.811
-290.597
-279.805
-269.416
-259.401
-249.732
-240.394
-231.38
-222.688
-214.317
-206.263
-198.519
-191.08
-183.939
-177.088
-170.522
-164.235
-158.22
-152.473
-146.988
-141.761
-136.788
-132.064
-127.585
-123.347
-119.345
-115.577
-112.039
-108.726
-105.637
-102.766
-100.114
-97.6765
-95.4546
-93.4473
-91.6549
-90.0787
-88.7205
-87.5826
-86.6678
-85.9788
-85.5177
-85.2868
-2014.13
-2027.83
-2003.61
-1974.14
-1939.06
-1898.95
-1855.16
-1808.7
-1760.14
-1710.35
-1659.83
-1609.04
-1558.34
-1508.06
-1458.43
-1409.64
-1361.84
-1315.12
-1269.58
-1225.27
-1182.22
-1140.46
-1100
-1060.83
-1022.94
-986.301
-950.902
-916.711
-883.705
-851.85
-821.119
-791.476
-762.883
-735.305
-708.709
-683.064
-658.339
-634.501
-611.517
-589.354
-567.981
-547.368
-527.488
-508.311
-489.812
-471.966
-454.752
-438.146
-422.128
-406.676
-391.77
-377.39
-363.516
-350.127
-337.205
-324.735
-312.705
-301.107
-289.928
-279.155
-268.77
-258.756
-249.098
-239.782
-230.798
-222.137
-213.796
-205.768
-198.048
-190.63
-183.508
-176.675
-170.125
-163.852
-157.85
-152.114
-146.639
-141.42
-136.453
-131.733
-127.256
-123.018
-119.016
-115.245
-111.703
-108.385
-105.291
-102.415
-99.7579
-97.3166
-95.0901
-93.0784
-91.2821
-89.7026
-88.3416
-87.2014
-86.2847
-85.5942
-85.1321
-84.9008
-2198.42
-2123.69
-2066.55
-2014.05
-1964.47
-1916.1
-1867.04
-1816.8
-1765.51
-1713.58
-1661.39
-1609.28
-1557.55
-1506.45
-1456.19
-1406.9
-1358.73
-1311.74
-1266.01
-1221.57
-1178.46
-1136.67
-1096.2
-1057.04
-1019.19
-982.612
-947.286
-913.183
-880.271
-848.518
-817.887
-788.343
-759.852
-732.378
-705.887
-680.345
-655.718
-631.973
-609.077
-587.002
-565.716
-545.189
-525.394
-506.3
-487.882
-470.114
-452.973
-436.439
-420.489
-405.104
-390.261
-375.941
-362.124
-348.791
-335.926
-323.511
-311.534
-299.983
-288.847
-278.112
-267.763
-257.783
-248.157
-238.872
-229.919
-221.291
-212.981
-204.983
-197.293
-189.903
-182.808
-176
-169.473
-163.222
-157.241
-151.523
-146.065
-140.862
-135.908
-131.2
-126.733
-122.504
-118.509
-114.744
-111.206
-107.893
-104.801
-101.927
-99.2713
-96.8308
-94.605
-92.5937
-90.7976
-89.2179
-87.8564
-86.7155
-85.7979
-85.1065
-84.6438
-84.4121
-2335.53
-2197.84
-2111.01
-2046.02
-1989.05
-1934.36
-1880.21
-1825.96
-1771.52
-1717.05
-1662.83
-1609.09
-1556.08
-1503.98
-1452.93
-1403.05
-1354.42
-1307.11
-1261.14
-1216.55
-1173.35
-1131.52
-1091.06
-1051.95
-1014.17
-977.683
-942.463
-908.475
-875.686
-844.059
-813.56
-784.152
-755.799
-728.463
-702.108
-676.7
-652.203
-628.586
-605.818
-583.865
-562.699
-542.29
-522.608
-503.624
-485.312
-467.647
-450.604
-434.163
-418.302
-403.001
-388.24
-373.999
-360.258
-347
-334.207
-321.861
-309.952
-298.464
-287.386
-276.703
-266.401
-256.464
-246.88
-237.638
-228.729
-220.144
-211.878
-203.923
-196.273
-188.921
-181.861
-175.087
-168.592
-162.37
-156.416
-150.724
-145.289
-140.107
-135.173
-130.483
-126.032
-121.818
-117.836
-114.084
-110.557
-107.253
-104.171
-101.307
-98.659
-96.227
-94.0095
-92.0063
-90.2179
-88.6452
-87.29
-86.1545
-85.2412
-84.5531
-84.0926
-83.862
-2310.5
-2211.07
-2138.7
-2071.55
-2010.49
-1951.63
-1893.34
-1835.29
-1777.55
-1720.33
-1663.82
-1608.25
-1553.76
-1500.48
-1448.52
-1397.95
-1348.81
-1301.12
-1254.91
-1210.16
-1166.87
-1125.02
-1084.59
-1045.54
-1007.85
-971.483
-936.4
-902.565
-869.938
-838.481
-808.155
-778.92
-750.739
-723.577
-697.395
-672.158
-647.83
-624.376
-601.764
-579.964
-558.946
-538.678
-519.132
-500.281
-482.099
-464.561
-447.643
-431.322
-415.575
-400.383
-385.725
-371.582
-357.936
-344.768
-332.06
-319.799
-307.97
-296.558
-285.552
-274.935
-264.695
-254.818
-245.291
-236.105
-227.249
-218.717
-210.502
-202.596
-194.993
-187.687
-180.67
-173.936
-167.478
-161.292
-155.371
-149.71
-144.305
-139.149
-134.24
-129.573
-125.144
-120.95
-116.987
-113.251
-109.741
-106.452
-103.384
-100.534
-97.9009
-95.4825
-93.2785
-91.2886
-89.5131
-87.9526
-86.6085
-85.4829
-84.578
-83.8964
-83.4403
-83.212
-2258.34
-2204.56
-2145.62
-2090.3
-2030.46
-1968.65
-1906.35
-1844.33
-1783.05
-1722.81
-1663.82
-1606.24
-1550.16
-1495.64
-1442.72
-1391.42
-1341.74
-1293.67
-1247.2
-1202.3
-1158.95
-1117.1
-1076.72
-1037.77
-1000.22
-964.007
-929.099
-895.453
-863.026
-831.774
-801.657
-772.634
-744.666
-717.713
-691.738
-666.704
-642.576
-619.318
-596.898
-575.284
-554.445
-534.352
-514.975
-496.287
-478.26
-460.872
-444.098
-427.917
-412.304
-397.241
-382.707
-368.682
-355.15
-342.09
-329.486
-317.324
-305.59
-294.27
-283.35
-272.816
-262.654
-252.85
-243.393
-234.272
-225.481
-217.011
-208.856
-201.008
-193.461
-186.207
-179.24
-172.554
-166.141
-159.997
-154.116
-148.492
-143.121
-137.998
-133.12
-128.481
-124.078
-119.908
-115.967
-112.253
-108.763
-105.495
-102.445
-99.6136
-96.998
-94.5974
-92.411
-90.4384
-88.6799
-87.1358
-85.8073
-84.6957
-83.8029
-83.1309
-82.6815
-82.4566
-2168.68
-2195.29
-2166.68
-2113.81
-2051.74
-1985.86
-1918.99
-1852.63
-1787.55
-1724.12
-1662.51
-1602.81
-1545.05
-1489.22
-1435.3
-1383.26
-1333.05
-1284.62
-1237.92
-1192.91
-1149.52
-1107.71
-1067.43
-1028.62
-991.239
-955.227
-920.538
-887.125
-854.939
-823.936
-794.072
-765.304
-737.588
-710.885
-685.156
-660.362
-636.468
-613.438
-591.238
-569.838
-549.208
-529.316
-510.135
-491.635
-473.791
-456.579
-439.975
-423.957
-408.502
-393.589
-379.198
-365.309
-351.906
-338.971
-326.488
-314.442
-302.819
-291.606
-280.788
-270.35
-260.278
-250.558
-241.182
-232.14
-223.424
-215.027
-206.942
-199.162
-191.679
-184.487
-177.579
-170.947
-164.587
-158.492
-152.657
-147.076
-141.746
-136.661
-131.818
-127.212
-122.84
-118.699
-114.786
-111.098
-107.632
-104.386
-101.359
-98.5487
-95.954
-93.5738
-91.4075
-89.4547
-87.7154
-86.1899
-84.8788
-83.7832
-82.9041
-82.2431
-81.8014
-81.5804
-2361.79
-2275.35
-2214.35
-2149.78
-2078.05
-2004.32
-1931.16
-1859.62
-1790.32
-1723.49
-1659.18
-1597.36
-1537.96
-1480.88
-1426.02
-1373.28
-1322.59
-1273.84
-1226.97
-1181.88
-1138.52
-1096.8
-1056.67
-1018.05
-980.89
-945.128
-910.707
-877.573
-845.675
-814.965
-785.395
-756.921
-729.498
-703.083
-677.636
-653.118
-629.494
-606.728
-584.786
-563.635
-543.245
-523.585
-504.626
-486.34
-468.704
-451.692
-435.28
-419.447
-404.169
-389.426
-375.198
-361.465
-348.21
-335.418
-323.073
-311.161
-299.667
-288.576
-277.873
-267.543
-257.573
-247.951
-238.667
-229.715
-221.085
-212.772
-204.767
-197.063
-189.654
-182.531
-175.689
-169.12
-162.819
-156.78
-150.998
-145.467
-140.183
-135.142
-130.34
-125.772
-121.437
-117.329
-113.448
-109.789
-106.351
-103.132
-100.13
-97.344
-94.7726
-92.4149
-90.2704
-88.3388
-86.6199
-85.1139
-83.821
-82.7417
-81.8768
-81.2271
-80.7933
-80.5764
-2248.83
-2305.89
-2260.96
-2185.43
-2104.3
-2022.08
-1941.7
-1864.49
-1790.75
-1720.46
-1653.47
-1589.58
-1528.59
-1470.32
-1414.6
-1361.26
-1310.17
-1261.19
-1214.22
-1169.14
-1125.87
-1084.31
-1044.39
-1006.02
-969.146
-933.689
-899.589
-866.788
-835.23
-804.861
-775.633
-747.497
-720.409
-694.322
-669.197
-644.994
-621.675
-599.205
-577.551
-556.679
-536.558
-517.157
-498.449
-480.405
-463.002
-446.216
-430.022
-414.397
-399.318
-384.765
-370.719
-357.16
-344.074
-331.445
-319.256
-307.492
-296.139
-285.183
-274.607
-264.398
-254.543
-245.031
-235.854
-227.003
-218.471
-210.251
-202.336
-194.718
-187.39
-180.345
-173.576
-167.078
-160.843
-154.867
-149.144
-143.669
-138.437
-133.446
-128.69
-124.166
-119.871
-115.802
-111.956
-108.332
-104.925
-101.736
-98.7628
-96.0036
-93.4577
-91.1243
-89.0031
-87.0936
-85.3957
-83.9094
-82.6346
-81.5716
-80.7206
-80.082
-79.656
-79.443
-2578.89
-2460.64
-2352.19
-2239.88
-2134.52
-2038.09
-1948.94
-1865.68
-1787.55
-1713.99
-1644.55
-1578.82
-1516.48
-1457.22
-1400.8
-1347
-1295.63
-1246.54
-1199.57
-1154.6
-1111.51
-1070.19
-1030.56
-992.513
-955.984
-920.894
-887.175
-854.762
-823.595
-793.618
-764.779
-737.027
-710.316
-684.6
-659.837
-635.987
-613.011
-590.874
-569.541
-548.98
-529.159
-510.049
-491.619
-473.844
-456.7
-440.16
-424.204
-408.808
-393.949
-379.608
-365.764
-352.401
-339.502
-327.052
-315.035
-303.435
-292.239
-281.43
-270.996
-260.922
-251.196
-241.808
-232.748
-224.011
-215.587
-207.47
-199.653
-192.129
-184.891
-177.932
-171.245
-164.824
-158.662
-152.755
-147.098
-141.685
-136.512
-131.576
-126.872
-122.397
-118.148
-114.122
-110.316
-106.729
-103.359
-100.203
-97.2609
-94.5311
-92.013
-89.7057
-87.609
-85.7225
-84.046
-82.5794
-81.3225
-80.2752
-79.4375
-78.8093
-78.3905
-78.1812
-2806.3
-2580.46
-2404.6
-2269.21
-2152.15
-2046.73
-1950.48
-1861.97
-1779.97
-1703.55
-1632
-1564.74
-1501.29
-1441.27
-1384.37
-1330.29
-1278.83
-1229.76
-1182.93
-1138.18
-1095.38
-1054.4
-1015.13
-977.494
-941.388
-906.734
-873.459
-841.494
-810.776
-781.245
-752.846
-725.527
-699.239
-673.935
-649.574
-626.114
-603.516
-581.746
-560.767
-540.548
-521.056
-502.263
-484.14
-466.662
-449.802
-433.536
-417.842
-402.696
-388.079
-373.969
-360.347
-347.197
-334.502
-322.246
-310.414
-298.993
-287.967
-277.323
-267.045
-257.121
-247.538
-238.285
-229.355
-220.74
-212.434
-204.431
-196.722
-189.302
-182.162
-175.296
-168.698
-162.362
-156.281
-150.45
-144.865
-139.52
-134.412
-129.537
-124.89
-120.469
-116.27
-112.292
-108.531
-104.986
-101.655
-98.5356
-95.6277
-92.93
-90.4418
-88.1624
-86.0915
-84.2289
-82.5742
-81.1274
-79.888
-78.856
-78.0309
-77.4125
-77.0005
-76.7946
-2920.04
-2646.28
-2453.13
-2294.23
-2160.88
-2046.18
-1944.05
-1851.47
-1766.59
-1688.11
-1615.09
-1546.8
-1482.66
-1422.23
-1365.11
-1311
-1259.62
-1210.76
-1164.21
-1119.81
-1077.41
-1036.87
-998.085
-960.939
-925.338
-891.197
-858.436
-826.984
-796.773
-767.742
-739.835
-712.997
-687.178
-662.331
-638.413
-615.382
-593.201
-571.832
-551.242
-531.398
-512.267
-493.821
-476.031
-458.873
-442.321
-426.351
-410.94
-396.067
-381.711
-367.851
-354.471
-341.553
-329.08
-317.035
-305.404
-294.175
-283.333
-272.865
-262.758
-252.998
-243.572
-234.469
-225.681
-217.2
-209.022
-201.14
-193.548
-186.239
-179.206
-172.443
-165.941
-159.697
-153.703
-147.956
-142.449
-137.179
-132.141
-127.332
-122.747
-118.385
-114.242
-110.316
-106.604
-103.104
-99.816
-96.737
-93.8664
-91.2034
-88.7473
-86.4976
-84.454
-82.6162
-80.984
-79.5571
-78.3353
-77.3182
-76.5053
-75.8963
-75.4905
-75.2878
-2793.44
-2605.98
-2427.1
-2279.15
-2149.82
-2033.14
-1928.36
-1833.56
-1747.01
-1667.34
-1593.51
-1524.73
-1460.34
-1399.85
-1342.84
-1288.95
-1237.9
-1189.44
-1143.35
-1099.45
-1057.59
-1017.61
-979.402
-942.841
-907.83
-874.279
-842.105
-811.233
-781.593
-753.121
-725.759
-699.452
-674.149
-649.803
-626.369
-603.807
-582.078
-561.145
-540.975
-521.536
-502.797
-484.727
-467.3
-450.489
-434.27
-418.619
-403.515
-388.936
-374.861
-361.271
-348.15
-335.48
-323.245
-311.429
-300.016
-288.994
-278.349
-268.071
-258.146
-248.562
-239.305
-230.364
-221.73
-213.395
-205.355
-197.605
-190.138
-182.949
-176.031
-169.376
-162.98
-156.834
-150.935
-145.277
-139.855
-134.665
-129.703
-124.965
-120.449
-116.151
-112.068
-108.198
-104.539
-101.089
-97.8467
-94.8109
-91.9806
-89.3548
-86.933
-84.7149
-82.7
-80.8882
-79.2792
-77.8728
-76.6686
-75.6663
-74.8654
-74.2654
-73.8657
-73.6661
-2841.25
-2609.03
-2422.51
-2264.66
-2127.11
-2008.11
-1902.44
-1807.18
-1720.37
-1640.61
-1566.84
-1498.23
-1434.13
-1374.02
-1317.45
-1264.08
-1213.6
-1165.74
-1120.3
-1077.07
-1035.88
-996.592
-959.068
-923.194
-888.865
-855.987
-824.475
-794.252
-765.246
-737.392
-710.63
-684.905
-660.166
-636.366
-613.46
-591.406
-570.167
-549.706
-529.991
-510.989
-492.669
-475.002
-457.963
-441.523
-425.661
-410.352
-395.576
-381.312
-367.539
-354.24
-341.395
-328.99
-317.009
-305.436
-294.256
-283.455
-273.023
-262.947
-253.217
-243.819
-234.742
-225.973
-217.504
-209.327
-201.437
-193.829
-186.497
-179.437
-172.641
-166.104
-159.818
-153.779
-147.981
-142.418
-137.087
-131.983
-127.103
-122.443
-117.999
-113.769
-109.751
-105.942
-102.34
-98.9431
-95.7507
-92.7613
-89.974
-87.3879
-85.0028
-82.818
-80.8334
-79.0488
-77.4639
-76.0786
-74.8925
-73.9052
-73.1163
-72.5253
-72.1316
-71.9349
-2752.78
-2541.8
-2361.95
-2212.84
-2084.78
-1969.78
-1866.31
-1772.52
-1686.82
-1607.99
-1535.05
-1467.24
-1403.94
-1344.62
-1288.86
-1236.31
-1186.66
-1139.64
-1095.03
-1052.63
-1012.28
-973.807
-937.091
-902.01
-868.457
-836.337
-805.564
-776.06
-747.752
-720.574
-694.468
-669.377
-645.251
-622.041
-599.704
-578.198
-557.484
-537.529
-518.3
-499.764
-481.893
-464.657
-448.03
-431.988
-416.506
-401.562
-387.136
-373.206
-359.754
-346.761
-334.211
-322.089
-310.379
-299.065
-288.133
-277.57
-267.364
-257.504
-247.98
-238.78
-229.892
-221.306
-213.013
-205.005
-197.275
-189.818
-182.631
-175.708
-169.043
-162.63
-156.463
-150.537
-144.846
-139.386
-134.152
-129.14
-124.346
-119.768
-115.402
-111.246
-107.297
-103.552
-100.011
-96.6717
-93.5324
-90.5925
-87.8509
-85.3072
-82.9607
-80.8113
-78.8587
-77.1026
-75.5429
-74.1795
-73.012
-72.0402
-71.2635
-70.6816
-70.2939
-70.1003
-2652.12
-2467.15
-2297.74
-2154.78
-2030.03
-1919.87
-1820.39
-1729.65
-1646.32
-1569.4
-1498.1
-1431.73
-1369.75
-1311.66
-1257.08
-1205.65
-1157.09
-1111.13
-1067.56
-1026.16
-986.785
-949.268
-913.478
-879.297
-846.617
-815.342
-785.387
-756.672
-729.127
-702.686
-677.289
-652.882
-629.416
-606.842
-585.117
-564.199
-544.05
-524.637
-505.926
-487.888
-470.493
-453.715
-437.527
-421.906
-406.829
-392.272
-378.216
-364.639
-351.525
-338.856
-326.617
-314.792
-303.368
-292.327
-281.658
-271.346
-261.38
-251.75
-242.445
-233.452
-224.764
-216.37
-208.261
-200.431
-192.872
-185.578
-178.544
-171.767
-165.241
-158.96
-152.92
-147.113
-141.536
-136.184
-131.053
-126.139
-121.438
-116.948
-112.664
-108.586
-104.71
-101.035
-97.5584
-94.2794
-91.1966
-88.3091
-85.6161
-83.1171
-80.8117
-78.6996
-76.7805
-75.0545
-73.5213
-72.1807
-71.0327
-70.0768
-69.3128
-68.7403
-68.3588
-68.1683
-2430.56
-2294.71
-2182.8
-2069.12
-1960.46
-1859.27
-1765.78
-1679.4
-1599.45
-1525.26
-1456.25
-1391.87
-1331.66
-1275.2
-1222.13
-1172.13
-1124.92
-1080.24
-1037.89
-997.678
-959.43
-923.001
-888.258
-855.085
-823.376
-793.036
-763.978
-736.126
-709.409
-683.764
-659.132
-635.461
-612.699
-590.802
-569.727
-549.432
-529.882
-511.043
-492.882
-475.371
-458.481
-442.186
-426.463
-411.287
-396.637
-382.49
-368.825
-355.624
-342.868
-330.542
-318.63
-307.119
-295.993
-285.24
-274.845
-264.796
-255.083
-245.695
-236.62
-227.848
-219.369
-211.176
-203.26
-195.616
-188.235
-181.113
-174.243
-167.621
-161.242
-155.101
-149.194
-143.514
-138.058
-132.82
-127.798
-122.987
-118.384
-113.986
-109.79
-105.795
-101.997
-98.3943
-94.9864
-91.7715
-88.7485
-85.9165
-83.2748
-80.8231
-78.5609
-76.4881
-74.6044
-72.9099
-71.4044
-70.0879
-68.9601
-68.021
-67.2702
-66.7075
-66.3326
-66.1453
-2331.96
-2197.4
-2084.78
-1980.68
-1883.27
-1790.96
-1704.07
-1622.73
-1546.78
-1475.9
-1409.71
-1347.81
-1289.81
-1235.35
-1184.12
-1135.83
-1090.21
-1047.03
-1006.1
-967.233
-930.264
-895.053
-861.474
-829.412
-798.766
-769.443
-741.36
-714.442
-688.619
-663.83
-640.018
-617.131
-595.122
-573.946
-553.561
-533.929
-515.013
-496.781
-479.202
-462.248
-445.89
-430.105
-414.868
-400.158
-385.954
-372.234
-358.979
-346.17
-333.791
-321.825
-310.259
-299.077
-288.266
-277.814
-267.706
-257.933
-248.484
-239.349
-230.517
-221.977
-213.72
-205.738
-198.024
-190.573
-183.378
-176.433
-169.734
-163.275
-157.052
-151.059
-145.291
-139.745
-134.416
-129.299
-124.392
-119.689
-115.19
-110.889
-106.786
-102.878
-99.1615
-95.6364
-92.3009
-89.1536
-86.1936
-83.4201
-80.8327
-78.4307
-76.2141
-74.1826
-72.3362
-70.6748
-69.1984
-67.9071
-66.8007
-65.8792
-65.1423
-64.5899
-64.2218
-64.0379
-2056.5
-2038.63
-1971.33
-1888.29
-1801.53
-1717.23
-1636.75
-1560.65
-1489.06
-1421.89
-1358.93
-1299.87
-1244.42
-1192.29
-1143.18
-1096.85
-1053.05
-1011.58
-972.247
-934.883
-899.337
-865.474
-833.174
-802.327
-772.837
-744.615
-717.582
-691.666
-666.801
-642.927
-619.988
-597.935
-576.723
-556.307
-536.65
-517.713
-499.463
-481.869
-464.9
-448.53
-432.732
-417.483
-402.758
-388.537
-374.798
-361.524
-348.696
-336.296
-324.309
-312.72
-301.514
-290.678
-280.199
-270.061
-260.254
-250.767
-241.593
-232.723
-224.145
-215.849
-207.825
-200.064
-192.561
-185.311
-178.308
-171.549
-165.027
-158.738
-152.677
-146.839
-141.219
-135.813
-130.617
-125.627
-120.84
-116.253
-111.861
-107.664
-103.658
-99.8408
-96.2112
-92.7673
-89.5078
-86.4317
-83.5381
-80.8262
-78.2957
-75.9461
-73.7774
-71.7894
-69.9821
-68.3556
-66.9098
-65.645
-64.5611
-63.658
-62.9358
-62.3943
-62.0334
-61.8531
-1991.7
-1935.67
-1869.08
-1794.26
-1716.9
-1639.76
-1565.13
-1494.06
-1426.9
-1363.66
-1304.21
-1248.31
-1195.72
-1146.19
-1099.47
-1055.33
-1013.57
-973.993
-936.429
-900.722
-866.733
-834.337
-803.422
-773.887
-745.641
-718.599
-692.688
-667.84
-643.991
-621.086
-599.071
-577.899
-557.526
-537.912
-519.02
-500.814
-483.264
-466.338
-450.008
-434.248
-419.034
-404.342
-390.151
-376.44
-363.19
-350.382
-337.999
-326.025
-314.444
-303.245
-292.414
-281.937
-271.801
-261.993
-252.501
-243.315
-234.428
-225.832
-217.517
-209.474
-201.692
-194.161
-186.877
-179.836
-173.033
-166.466
-160.129
-154.018
-148.126
-142.45
-136.984
-131.725
-126.668
-121.812
-117.151
-112.683
-108.406
-104.316
-100.412
-96.6908
-93.1518
-89.7932
-86.6136
-83.6123
-80.7883
-78.1412
-75.6704
-73.3759
-71.2575
-69.3152
-67.549
-65.9591
-64.5456
-63.3087
-62.2485
-61.3649
-60.6581
-60.1281
-59.7748
-59.5983
-1846.35
-1837.54
-1778.44
-1706.26
-1632.17
-1559.59
-1489.88
-1423.56
-1360.83
-1301.68
-1245.95
-1193.46
-1143.97
-1097.28
-1053.17
-1011.44
-971.9
-934.387
-898.745
-864.836
-832.533
-801.72
-772.295
-744.165
-717.246
-691.462
-666.742
-643.023
-620.249
-598.364
-577.32
-557.073
-537.581
-518.806
-500.713
-483.271
-466.45
-450.221
-434.556
-419.431
-404.823
-390.711
-377.074
-363.893
-351.149
-338.826
-326.906
-315.374
-304.216
-293.421
-282.977
-272.871
-263.091
-253.624
-244.459
-235.586
-226.997
-218.686
-210.645
-202.864
-195.331
-188.039
-180.981
-174.156
-167.562
-161.194
-155.049
-149.122
-143.406
-137.898
-132.593
-127.487
-122.577
-117.859
-113.33
-108.988
-104.829
-100.852
-97.0545
-93.4344
-89.9903
-86.7208
-83.6251
-80.702
-77.9511
-75.3718
-72.9639
-70.7271
-68.6615
-66.7672
-65.0443
-63.4929
-62.1133
-60.9058
-59.8705
-59.0076
-58.3172
-57.7993
-57.4541
-57.2816
-1958.02
-1797.89
-1698.75
-1619.32
-1546.07
-1476.83
-1411.31
-1349.48
-1291.18
-1236.24
-1184.44
-1135.57
-1089.42
-1045.79
-1004.5
-965.36
-928.217
-892.922
-859.342
-827.353
-796.844
-767.713
-739.869
-713.228
-687.713
-663.255
-639.791
-617.262
-595.615
-574.8
-554.773
-535.493
-516.922
-499.023
-481.765
-465.118
-449.054
-433.547
-418.573
-404.106
-390.126
-376.613
-363.549
-350.915
-338.695
-326.873
-315.432
-304.359
-293.64
-283.263
-273.219
-263.495
-254.081
-244.966
-236.137
-227.587
-219.309
-211.295
-203.537
-196.026
-188.752
-181.707
-174.885
-168.285
-161.906
-155.744
-149.797
-144.06
-138.527
-133.194
-128.056
-123.109
-118.351
-113.777
-109.386
-105.174
-101.14
-97.28
-93.5934
-90.0784
-86.7334
-83.5573
-80.5492
-77.7081
-75.0337
-72.5256
-70.1834
-68.0073
-65.9972
-64.1532
-62.4757
-60.9649
-59.6211
-58.4445
-57.4356
-56.5944
-55.9213
-55.4163
-55.0796
-54.9114
-1711.27
-1667.97
-1599.93
-1526.17
-1455.7
-1390.11
-1329.01
-1271.86
-1218.19
-1167.67
-1120.01
-1074.98
-1032.36
-991.982
-953.673
-917.283
-882.679
-849.736
-818.34
-788.384
-759.774
-732.42
-706.242
-681.167
-657.126
-634.059
-611.909
-590.622
-570.151
-550.451
-531.482
-513.207
-495.59
-478.6
-462.207
-446.384
-431.104
-416.345
-402.083
-388.297
-374.967
-362.074
-349.601
-337.533
-325.853
-314.548
-303.602
-293.002
-282.736
-272.792
-263.16
-253.831
-244.794
-236.038
-227.555
-219.336
-211.377
-203.67
-196.206
-188.974
-181.966
-175.175
-168.597
-162.231
-156.074
-150.126
-144.384
-138.843
-133.499
-128.346
-123.38
-118.599
-113.998
-109.574
-105.326
-101.249
-97.3437
-93.6064
-90.0357
-86.6303
-83.3887
-80.3101
-77.3934
-74.6381
-72.0438
-69.6101
-67.3369
-65.2244
-63.2725
-61.4815
-59.8518
-58.3837
-57.0775
-55.9337
-54.9525
-54.1344
-53.4796
-52.9883
-52.6607
-52.497
-1717.13
-1613.49
-1513.19
-1430.89
-1360.98
-1299.08
-1242.8
-1190.72
-1142.03
-1096.22
-1052.94
-1011.95
-973.053
-936.09
-900.923
-867.427
-835.492
-805.018
-775.91
-748.083
-721.457
-695.959
-671.519
-648.076
-625.57
-603.949
-583.163
-563.165
-543.913
-525.368
-507.495
-490.26
-473.632
-457.583
-442.084
-427.112
-412.643
-398.654
-385.127
-372.042
-359.38
-347.125
-335.26
-323.771
-312.646
-301.871
-291.433
-281.32
-271.52
-262.023
-252.818
-243.895
-235.247
-226.862
-218.732
-210.854
-203.221
-195.827
-188.664
-181.72
-174.986
-168.457
-162.13
-156.003
-150.077
-144.35
-138.819
-133.48
-128.33
-123.363
-118.575
-113.964
-109.526
-105.257
-101.157
-97.2214
-93.4494
-89.8392
-86.389
-83.0976
-79.9638
-76.9867
-74.1655
-71.4998
-68.9892
-66.6335
-64.4327
-62.3868
-60.4961
-58.7608
-57.1815
-55.7584
-54.492
-53.3827
-52.4311
-51.6374
-51.002
-50.5253
-50.2073
-50.0484
-1708.83
-1502.32
-1395.44
-1319.63
-1257.14
-1202.26
-1152.38
-1106.24
-1063.03
-1022.26
-983.606
-946.847
-911.823
-878.408
-846.497
-816
-786.834
-758.92
-732.189
-706.573
-682.009
-658.437
-635.801
-614.048
-593.132
-573.007
-553.632
-534.967
-516.975
-499.622
-482.877
-466.713
-451.101
-436.018
-421.438
-407.341
-393.704
-380.509
-367.737
-355.372
-343.396
-331.795
-320.554
-309.66
-299.103
-288.869
-278.95
-269.333
-260.009
-250.967
-242.199
-233.696
-225.448
-217.446
-209.683
-202.153
-194.854
-187.78
-180.924
-174.274
-167.823
-161.564
-155.495
-149.615
-143.925
-138.425
-133.111
-127.98
-123.03
-118.254
-113.65
-109.214
-104.944
-100.836
-96.8876
-93.0979
-89.4646
-85.9861
-82.661
-79.4881
-76.4664
-73.5951
-70.8736
-68.3015
-65.8785
-63.6044
-61.4794
-59.5036
-57.6772
-56.0006
-54.4744
-53.0988
-51.8745
-50.8019
-49.8816
-49.1139
-48.4992
-48.0379
-47.7303
-47.5765
-1465.06
-1349.4
-1265.04
-1200.17
-1147.02
-1100.53
-1058.2
-1018.77
-981.548
-946.154
-912.35
-879.991
-848.972
-819.217
-790.665
-763.256
-736.938
-711.658
-687.368
-664.022
-641.573
-619.979
-599.195
-579.183
-559.902
-541.317
-523.393
-506.097
-489.4
-473.273
-457.689
-442.623
-428.054
-413.959
-400.318
-387.114
-374.328
-361.943
-349.943
-338.313
-327.039
-316.108
-305.506
-295.223
-285.248
-275.57
-266.181
-257.071
-248.23
-239.651
-231.328
-223.252
-215.414
-207.804
-200.416
-193.245
-186.287
-179.541
-172.998
-166.65
-160.488
-154.506
-148.702
-143.077
-137.63
-132.361
-127.27
-122.353
-117.607
-113.028
-108.613
-104.358
-100.26
-96.3167
-92.5265
-88.8872
-85.3973
-82.0552
-78.8598
-75.8099
-72.9048
-70.1437
-67.5261
-65.0516
-62.7202
-60.5317
-58.4863
-56.5841
-54.8255
-53.2109
-51.7407
-50.4156
-49.2359
-48.2023
-47.3153
-46.5753
-45.9828
-45.5381
-45.2414
-45.0932
-1040.17
-1105.7
-1096.29
-1064.75
-1029.35
-994.553
-961.171
-929.141
-898.291
-868.496
-839.684
-811.817
-784.871
-758.832
-733.682
-709.407
-685.984
-663.388
-641.593
-620.568
-600.285
-580.715
-561.826
-543.591
-525.982
-508.97
-492.527
-476.629
-461.254
-446.377
-431.979
-418.038
-404.534
-391.45
-378.769
-366.477
-354.557
-342.998
-331.784
-320.904
-310.346
-300.098
-290.148
-280.487
-271.106
-261.996
-253.149
-244.556
-236.208
-228.101
-220.23
-212.587
-205.166
-197.956
-190.95
-184.144
-177.536
-171.123
-164.9
-158.859
-152.992
-147.294
-141.763
-136.397
-131.199
-126.168
-121.305
-116.607
-112.071
-107.694
-103.472
-99.4024
-95.4821
-91.709
-88.0813
-84.5972
-81.2554
-78.0545
-74.9934
-72.0712
-69.2872
-66.6408
-64.1315
-61.7591
-59.5235
-57.4248
-55.4629
-53.6383
-51.9513
-50.4022
-48.9916
-47.72
-46.5879
-45.5959
-44.7445
-44.0343
-43.4655
-43.0386
-42.7538
-42.6116
-1045.09
-994.104
-961.158
-935.81
-911.512
-887.193
-862.74
-838.271
-813.92
-789.807
-766.036
-742.696
-719.852
-697.555
-675.839
-654.724
-634.22
-614.332
-595.055
-576.378
-558.289
-540.771
-523.807
-507.379
-491.468
-476.055
-461.121
-446.647
-432.615
-419.009
-405.814
-393.014
-380.594
-368.538
-356.835
-345.471
-334.434
-323.714
-313.299
-303.181
-293.349
-283.794
-274.506
-265.477
-256.699
-248.166
-239.871
-231.804
-223.961
-216.336
-208.924
-201.721
-194.722
-187.917
-181.3
-174.867
-168.615
-162.542
-156.644
-150.915
-145.349
-139.94
-134.685
-129.584
-124.64
-119.853
-115.223
-110.75
-106.43
-102.26
-98.2363
-94.3568
-90.6189
-87.0206
-83.5602
-80.2361
-77.0471
-73.9921
-71.0701
-68.2803
-65.6221
-63.0951
-60.6988
-58.4331
-56.2979
-54.2934
-52.4196
-50.6768
-49.0654
-47.5859
-46.2386
-45.0242
-43.943
-42.9957
-42.1827
-41.5044
-40.9613
-40.5537
-40.2818
-40.146
-889.357
-831.763
-815.096
-804.803
-793.497
-779.931
-764.365
-747.346
-729.369
-710.822
-691.994
-673.099
-654.296
-635.697
-617.385
-599.416
-581.833
-564.66
-547.913
-531.599
-515.72
-500.273
-485.253
-470.65
-456.456
-442.66
-429.251
-416.218
-403.55
-391.233
-379.259
-367.615
-356.291
-345.277
-334.562
-324.139
-313.997
-304.129
-294.526
-285.181
-276.086
-267.234
-258.617
-250.23
-242.064
-234.115
-226.376
-218.844
-211.512
-204.376
-197.432
-190.676
-184.103
-177.708
-171.483
-165.426
-159.536
-153.809
-148.244
-142.833
-137.572
-132.455
-127.48
-122.648
-117.962
-113.424
-109.034
-104.79
-100.691
-96.7328
-92.913
-89.2289
-85.6783
-82.2596
-78.9713
-75.812
-72.7807
-69.8763
-67.0982
-64.4457
-61.9183
-59.5155
-57.2371
-55.083
-53.0531
-51.1477
-49.3667
-47.7106
-46.1796
-44.7741
-43.4945
-42.3413
-41.315
-40.4158
-39.6444
-39.0009
-38.4857
-38.0992
-37.8413
-37.7126
-577.105
-636.01
-662.607
-674.697
-677.729
-674.656
-667.414
-657.333
-645.338
-632.072
-617.984
-603.394
-588.529
-573.555
-558.594
-543.736
-529.046
-514.571
-500.344
-486.389
-472.721
-459.35
-446.282
-433.516
-421.053
-408.888
-397.016
-385.434
-374.137
-363.12
-352.376
-341.9
-331.684
-321.722
-312.006
-302.533
-293.295
-284.287
-275.503
-266.939
-258.587
-250.445
-242.506
-234.765
-227.219
-219.86
-212.687
-205.694
-198.878
-192.236
-185.766
-179.462
-173.323
-167.342
-161.514
-155.838
-150.313
-144.938
-139.71
-134.624
-129.674
-124.854
-120.163
-115.603
-111.179
-106.893
-102.746
-98.7368
-94.8632
-91.1221
-87.5108
-84.0268
-80.6684
-77.4341
-74.3226
-71.3329
-68.464
-65.7153
-63.0861
-60.5759
-58.1842
-55.9109
-53.7556
-51.7184
-49.7992
-47.9982
-46.3154
-44.7512
-43.3058
-41.9796
-40.7727
-39.6856
-38.7186
-37.8719
-37.1458
-36.5404
-36.056
-35.6925
-35.4502
-35.3292
-363.679
-470.541
-524.96
-553.887
-568.158
-573.568
-573.305
-569.253
-562.616
-554.188
-544.516
-533.989
-522.885
-511.405
-499.701
-487.884
-476.039
-464.229
-452.502
-440.893
-429.429
-418.13
-407.01
-396.081
-385.349
-374.819
-364.491
-354.369
-344.452
-334.742
-325.236
-315.933
-306.83
-297.924
-289.212
-280.693
-272.363
-264.22
-256.262
-248.484
-240.884
-233.456
-226.2
-219.111
-212.188
-205.426
-198.823
-192.376
-186.082
-179.939
-173.946
-168.1
-162.398
-156.836
-151.411
-146.12
-140.965
-135.945
-131.059
-126.301
-121.666
-117.147
-112.744
-108.461
-104.302
-100.272
-96.3717
-92.6008
-88.9568
-85.4369
-82.0384
-78.7592
-75.5975
-72.5522
-69.6222
-66.8069
-64.1054
-61.5173
-59.0421
-56.6794
-54.4289
-52.2904
-50.2638
-48.3492
-46.5464
-44.8557
-43.2771
-41.8109
-40.4571
-39.216
-38.0877
-37.0724
-36.1701
-35.3808
-34.7046
-34.1414
-33.691
-33.3535
-33.1284
-33.0163
-298.37
-356.716
-412.956
-447.188
-467.222
-478.114
-482.978
-483.749
-481.649
-477.497
-471.857
-465.128
-457.595
-449.471
-440.92
-432.066
-423.005
-413.812
-404.546
-395.255
-385.974
-376.732
-367.552
-358.451
-349.445
-340.545
-331.76
-323.097
-314.563
-306.16
-297.894
-289.768
-281.781
-273.936
-266.233
-258.672
-251.254
-243.979
-236.846
-229.856
-223.008
-216.299
-209.728
-203.294
-196.997
-190.835
-184.806
-178.91
-173.142
-167.503
-161.991
-156.606
-151.346
-146.208
-141.188
-136.287
-131.506
-126.845
-122.304
-117.878
-113.56
-109.347
-105.237
-101.234
-97.3446
-93.573
-89.9222
-86.3924
-82.9814
-79.6864
-76.5047
-73.4343
-70.4737
-67.6219
-64.8782
-62.242
-59.7129
-57.2905
-54.9744