/*--------------------------------*- C++ -*----------------------------------*\
| =========                 |                                                 |
| \\      /  F ield         | OpenFOAM: The Open Source CFD Toolbox           |
|  \\    /   O peration     | Version:  4.1                                   |
|   \\  /    A nd           | Web:      www.OpenFOAM.org                      |
|    \\/     M anipulation  |                                                 |
\*---------------------------------------------------------------------------*/
FoamFile
{
    version     2.0;
    format      ascii;
    class       surfaceScalarField;
    location    "0.151";
    object      phi;
}
// * * * * * * * * * * * * * * * * * * * * * * * * * * * * * * * * * * * * * //

dimensions      [0 3 -1 0 0 0 0];

internalField   nonuniform List<scalar> 
87025
(
0.0200015
4.18911e-05
0.0199549
4.65902e-05
0.0198972
5.76828e-05
0.0198465
5.07602e-05
0.0198143
3.21758e-05
0.0198069
7.39647e-06
0.0198162
-9.3275e-06
0.0198116
4.6129e-06
0.0197767
3.49458e-05
0.0197254
5.12984e-05
0.0196814
4.40109e-05
0.0196537
2.76226e-05
0.0196324
2.13873e-05
0.0195983
3.40391e-05
0.0195392
5.91273e-05
0.0194596
7.95998e-05
0.0193792
8.04225e-05
0.0193174
6.18148e-05
0.0192777
3.96285e-05
0.0192432
3.45059e-05
0.0191873
5.58975e-05
0.0190927
9.46681e-05
0.0189623
0.000130311
0.0188169
0.000145476
0.0186804
0.00013647
0.0185703
0.00011011
0.0184913
7.90194e-05
0.0184333
5.79919e-05
0.0183746
5.86837e-05
0.0182936
8.10158e-05
0.0181817
0.000111893
0.0180491
0.000132622
0.0179148
0.000134266
0.01779
0.000124779
0.0176696
0.000120449
0.0175393
0.000130218
0.0173904
0.000148991
0.0172247
0.000165627
0.0170498
0.000174916
0.0168701
0.000179694
0.0166869
0.00018324
0.016503
0.000183854
0.0163241
0.000178958
0.0161518
0.000172235
0.0159796
0.000172228
0.0157967
0.000182872
0.0155991
0.000197632
0.0153928
0.000206305
0.0151851
0.000207659
0.0149727
0.000212444
0.014741
0.000231732
0.0144783
0.00026263
0.0141899
0.000288407
0.0138949
0.00029499
0.0136075
0.000287417
0.0133191
0.000288448
0.0129998
0.000319242
0.0126208
0.000379061
0.0121773
0.000443422
0.0116941
0.000483236
0.0112086
0.000485489
0.010751
0.000457602
0.0103338
0.000417233
0.00995374
0.000380044
0.00959972
0.00035402
0.00925873
0.000340987
0.00892076
0.000337968
0.00857966
0.000341099
0.00823247
0.000347187
0.00787827
0.000354207
0.00751714
0.000361126
0.00714962
0.000367525
0.00677637
0.000373252
0.00639815
0.00037821
0.00601587
0.000382287
0.00563054
0.000385324
0.00524342
0.000387124
0.00485595
0.000387475
0.00446979
0.000386153
0.00408687
0.000382926
0.00370929
0.000377573
0.0033394
0.000369893
0.00297967
0.000359728
0.0026327
0.000346976
0.00230109
0.000331609
0.0019874
0.00031369
0.00169402
0.000293377
0.00142309
0.000270933
0.00117636
0.000246725
0.000955151
0.000221212
0.000760197
0.000194954
0.000591642
0.000168556
0.000448994
0.000142648
0.000331115
0.000117879
0.000236197
9.49187e-05
0.000161808
7.43888e-05
0.000104842
5.69657e-05
6.17404e-05
4.31016e-05
2.8407e-05
3.33334e-05
2.8407e-05
0.0199648
8.63097e-06
0.0199514
6.00614e-05
0.019962
4.70349e-05
0.0199724
4.03414e-05
0.019958
4.65742e-05
0.0199275
3.79386e-05
0.0199051
1.30606e-05
0.0199056
4.15608e-06
0.0199133
2.72234e-05
0.0199019
6.26681e-05
0.019865
8.08967e-05
0.0198191
7.35599e-05
0.0197832
5.72351e-05
0.0197631
5.41387e-05
0.0197494
7.28981e-05
0.0197254
0.000103622
0.0196784
0.000127417
0.0196081
0.000132043
0.0195267
0.000121057
0.0194522
0.00010896
0.0194003
0.000107802
0.0193745
0.00012053
0.0193619
0.000142923
0.0193377
0.000169624
0.0192801
0.000194112
0.0191806
0.000209567
0.0190507
0.000208913
0.0189187
0.000189996
0.0188155
0.000161898
0.0187545
0.000142035
0.0187213
0.000145077
0.0186801
0.00017382
0.0185987
0.000215647
0.0184738
0.000249674
0.0183335
0.000260755
0.0182146
0.000249163
0.0181347
0.000228926
0.018083
0.000217229
0.0180346
0.000223334
0.0179695
0.000244846
0.0178798
0.00027287
0.0177638
0.000299949
0.0176192
0.00032353
0.0174475
0.00034395
0.0172604
0.000359312
0.0170781
0.000365151
0.0169163
0.000359408
0.016775
0.000347594
0.0166411
0.000341601
0.0165018
0.000351768
0.0163547
0.000378761
0.0162048
0.000412618
0.016053
0.000440159
0.0158935
0.000454453
0.0157197
0.000461291
0.0155329
0.000475243
0.0153431
0.000508976
0.0151597
0.000562525
0.0149822
0.000620867
0.0148016
0.000663816
0.0146074
0.000679718
0.014394
0.000671052
0.0141608
0.000650444
0.0139091
0.000631701
0.0136409
0.000622262
0.0133581
0.000623793
0.013062
0.000634056
0.0127537
0.000649323
0.0124345
0.00066645
0.0121052
0.000683522
0.0117666
0.000699705
0.0114193
0.00071481
0.0110637
0.000728882
0.0106999
0.00074196
0.0103282
0.000753996
0.00994869
0.00076485
0.00956151
0.000774305
0.00916688
0.000782099
0.0087651
0.000787938
0.00835651
0.000791508
0.0079416
0.000792486
0.00752093
0.000790561
0.0070952
0.000785457
0.00666522
0.000776959
0.0062319
0.000764934
0.00579624
0.000749351
0.00535932
0.000730296
0.00492227
0.00070798
0.00448627
0.000682728
0.00405254
0.000654939
0.0036222
0.000625295
0.00319619
0.00059456
0.00277543
0.000563409
0.00236069
0.000532619
0.00195253
0.000503079
0.00155118
0.000475739
0.00115641
0.000451738
0.000767395
0.000432115
0.00038223
0.000418499
0.000410637
0.0199605
0.00011632
0.019999
2.14929e-05
0.0199982
4.79112e-05
0.0199322
0.000106324
0.0198726
0.00010614
0.0198233
8.7226e-05
0.0197776
5.87735e-05
0.0197433
3.84841e-05
0.0197345
3.59836e-05
0.0197509
4.62772e-05
0.0197719
5.98854e-05
0.0197706
7.48543e-05
0.0197323
9.55273e-05
0.0196632
0.000123232
0.0195855
0.000150587
0.0195229
0.000166316
0.0194835
0.000166749
0.0194569
0.000158678
0.0194254
0.000152528
0.0193808
0.000153626
0.019327
0.000161577
0.0192728
0.000174684
0.0192229
0.00019282
0.0191769
0.000215666
0.0191292
0.000241829
0.0190711
0.000267602
0.0189921
0.000287986
0.0188843
0.000297714
0.0187538
0.000292454
0.0186201
0.000275685
0.0185036
0.000261588
0.0184094
0.000268021
0.0183232
0.000301841
0.0182233
0.000349625
0.0180984
0.000385587
0.0179559
0.000391663
0.0178137
0.000371198
0.0176865
0.000344413
0.0175782
0.000331619
0.0174831
0.000339915
0.0173925
0.000363529
0.0172993
0.000393114
0.0171993
0.000423552
0.0170897
0.000453575
0.0169676
0.00048138
0.0168287
0.000504097
0.016667
0.000521083
0.0164794
0.000535121
0.0162718
0.000549215
0.0160606
0.000562979
0.015866
0.000573411
0.0156988
0.000579754
0.0155519
0.00058707
0.0154029
0.000603468
0.0152304
0.000633844
0.0150297
0.000675937
0.0148169
0.000721757
0.0146172
0.000762244
0.0144476
0.000790442
0.0143079
0.000803538
0.0141837
0.000803933
0.0140558
0.000798938
0.013908
0.000798217
0.0137318
0.000807922
0.0135256
0.000828479
0.0132929
0.000856471
0.0130395
0.000887412
0.0127714
0.000917466
0.012493
0.000944862
0.0122071
0.000969406
0.0119151
0.000991658
0.0116177
0.00101228
0.0113148
0.00103176
0.0110064
0.00105031
0.0106924
0.00106797
0.0103726
0.00108467
0.0100467
0.00110026
0.00971425
0.00111452
0.00937496
0.00112723
0.00902833
0.00113814
0.00867385
0.00114697
0.00831094
0.00115346
0.00793903
0.00115737
0.00755749
0.00115849
0.00716574
0.00115669
0.00676319
0.0011519
0.00634935
0.00114414
0.0059238
0.00113353
0.00548625
0.00112028
0.00503649
0.0011047
0.00457457
0.00108722
0.00410082
0.00106831
0.0036158
0.00104843
0.00312032
0.0010281
0.00261545
0.00100796
0.00210242
0.000988763
0.00158268
0.000971477
0.00105784
0.00095696
0.000529307
0.000947029
0.000939944
0.0197484
6.38864e-05
0.0198198
-4.99246e-05
0.0198549
1.28836e-05
0.0198614
9.98118e-05
0.0198298
0.00013768
0.0198002
0.000116814
0.0197721
8.69018e-05
0.0197448
6.57571e-05
0.0197288
5.20446e-05
0.0197273
4.7762e-05
0.0197271
6.00415e-05
0.0197116
9.03594e-05
0.0196792
0.000127988
0.0196452
0.000157229
0.0196248
0.000170944
0.0196149
0.000176219
0.0195949
0.000186727
0.0195444
0.000209213
0.019461
0.000235967
0.0193628
0.000251783
0.0192743
0.000250043
0.0192079
0.000241131
0.0191573
0.000243391
0.0191069
0.000266104
0.0190465
0.000302195
0.0189768
0.000337307
0.018903
0.000361846
0.0188271
0.000373607
0.0187451
0.000374407
0.018653
0.000367751
0.0185539
0.000360737
0.0184572
0.000364703
0.0183708
0.000388255
0.0182922
0.000428178
0.0182089
0.000468885
0.0181072
0.000493444
0.0179816
0.000496806
0.0178368
0.000489162
0.0176818
0.000486589
0.0175239
0.000497875
0.0173677
0.000519686
0.0172175
0.000543333
0.0170759
0.000565186
0.0169399
0.000589515
0.0167993
0.000621996
0.0166411
0.000662344
0.0164586
0.00070357
0.0162566
0.000737113
0.016048
0.00075781
0.0158458
0.000765218
0.0156564
0.000762757
0.0154787
0.000757476
0.0153063
0.000759477
0.0151317
0.000778067
0.0149499
0.000815646
0.0147612
0.000864642
0.0145714
0.000911556
0.0143885
0.000945159
0.0142169
0.000962041
0.0140536
0.000966816
0.0138889
0.000968594
0.0137115
0.00097637
0.0135141
0.000995639
0.0132952
0.00102681
0.0130575
0.00106618
0.0128054
0.00110855
0.0125432
0.00114962
0.0122737
0.00118697
0.0119985
0.00122005
0.0117185
0.00124942
0.0114341
0.00127602
0.0111457
0.00130071
0.0108534
0.00132406
0.0105574
0.00134636
0.0102576
0.00136773
0.00995408
0.00138818
0.00964669
0.00140765
0.00933518
0.00142603
0.00901921
0.0014432
0.00869834
0.00145901
0.00837199
0.00147332
0.00803947
0.00148599
0.00769994
0.0014969
0.00735247
0.00150597
0.006996
0.00151315
0.00662942
0.00151848
0.00625153
0.00152203
0.0058611
0.00152396
0.00545692
0.00152446
0.00503786
0.00152376
0.00460294
0.00152214
0.00415142
0.00151983
0.00368288
0.00151697
0.00319728
0.0015137
0.00269512
0.00151011
0.00217751
0.00150637
0.00164623
0.00150276
0.00110381
0.00149938
0.000553422
0.00149742
0.00149337
0.0198745
-8.50597e-05
0.0199568
-0.000132235
0.0199951
-2.5493e-05
0.0200012
9.37247e-05
0.0199899
0.000148978
0.0199579
0.000148854
0.0199272
0.000117638
0.0198967
9.61824e-05
0.0198565
9.23061e-05
0.0198114
9.28665e-05
0.0197754
9.59933e-05
0.0197537
0.00011204
0.0197374
0.000144348
0.0197116
0.000183017
0.0196655
0.000217
0.0195982
0.000243501
0.0195204
0.000264611
0.0194478
0.000281797
0.0193894
0.000294385
0.0193392
0.000301907
0.0192824
0.00030687
0.0192091
0.000314473
0.0191237
0.000328728
0.019041
0.000348824
0.0189728
0.000370391
0.0189202
0.000389903
0.0188736
0.000408472
0.0188184
0.000428821
0.0187435
0.000449299
0.0186471
0.000464166
0.0185369
0.00047093
0.0184255
0.000476128
0.0183223
0.000491377
0.0182288
0.000521733
0.0181385
0.000559201
0.0180421
0.000589828
0.0179314
0.000607525
0.0178007
0.000619808
0.0176482
0.000639086
0.0174775
0.00066857
0.0172991
0.000698102
0.0171274
0.000715032
0.0169742
0.00071835
0.0168423
0.000721433
0.0167238
0.000740542
0.0166053
0.00078083
0.0164754
0.000833476
0.0163277
0.000884776
0.0161601
0.000925469
0.0159728
0.000952476
0.0157696
0.000965951
0.0155585
0.000968621
0.0153498
0.000968165
0.0151513
0.000976542
0.0149638
0.00100316
0.0147812
0.00104725
0.0145954
0.00109729
0.0144019
0.00113867
0.0142008
0.00116322
0.0139939
0.00117363
0.0137818
0.00118069
0.013562
0.00119619
0.013331
0.00122668
0.0130865
0.00127125
0.0128289
0.0013238
0.0125602
0.00137721
0.0122833
0.00142654
0.0120005
0.0014698
0.0117132
0.00150734
0.0114221
0.00154048
0.0111276
0.00157062
0.0108295
0.00159876
0.0105281
0.0016255
0.0102233
0.00165112
0.00991531
0.00167572
0.00960414
0.00169935
0.00928981
0.00172198
0.00897228
0.00174356
0.00865143
0.00176404
0.00832707
0.00178336
0.00799891
0.00180148
0.00766653
0.00181837
0.00732939
0.00183404
0.00698682
0.00184853
0.00663802
0.00186195
0.00628205
0.00187445
0.00591783
0.00188625
0.00554419
0.0018976
0.00515985
0.00190879
0.00476349
0.00192012
0.00435378
0.00193186
0.00392947
0.00194413
0.00348956
0.00195689
0.00303333
0.00196992
0.0025606
0.00198285
0.00207186
0.00199511
0.00156847
0.00200615
0.00105285
0.002015
0.000528249
0.00202202
0.00202161
0.0199264
-0.000227823
0.0198671
-7.2949e-05
0.0198233
1.83231e-05
0.0198073
0.000109755
0.019814
0.000142304
0.0198576
0.000105252
0.0198931
8.21339e-05
0.019888
0.000101236
0.0198508
0.00012954
0.0198088
0.000134798
0.0197787
0.000126107
0.0197566
0.000134152
0.0197282
0.000172735
0.0196816
0.00022961
0.0196162
0.000282456
0.019543
0.000316694
0.0194768
0.000330801
0.0194268
0.000331824
0.0193909
0.000330267
0.0193578
0.000334997
0.0193154
0.000349314
0.019259
0.000370779
0.0191928
0.000395001
0.0191224
0.00041924
0.01905
0.000442778
0.0189747
0.000465206
0.0188977
0.000485468
0.0188235
0.000503046
0.0187534
0.00051934
0.0186801
0.000537465
0.0185904
0.000560664
0.0184763
0.000590223
0.0183434
0.000624221
0.0182072
0.000657975
0.01808
0.000686387
0.0179626
0.000707271
0.0178468
0.000723253
0.0177265
0.000740152
0.017603
0.00076263
0.0174812
0.000790354
0.0173613
0.000818018
0.0172363
0.000840033
0.017099
0.000855613
0.0169501
0.000870354
0.0167976
0.000892997
0.0166485
0.000929932
0.0165009
0.000981057
0.0163463
0.00103938
0.016178
0.00109384
0.015997
0.00113345
0.0158109
0.00115209
0.0156267
0.00115281
0.0154463
0.00114855
0.0152664
0.00115638
0.0150821
0.00118745
0.0148896
0.00123979
0.0146873
0.00129964
0.0144755
0.00135039
0.014256
0.00138278
0.0140298
0.00139977
0.013797
0.0014135
0.0135562
0.00143704
0.0133057
0.0014772
0.0130446
0.00153228
0.0127734
0.00159499
0.0124934
0.00165724
0.0122063
0.00171361
0.0119138
0.00176234
0.0116169
0.00180427
0.0113161
0.00184127
0.0110116
0.00187509
0.0107035
0.00190691
0.0103916
0.00193733
0.0100761
0.00196663
0.00975697
0.00199489
0.00943421
0.00202211
0.00910791
0.00204828
0.00877812
0.00207335
0.00844485
0.00209731
0.00810808
0.00212013
0.00776774
0.00214182
0.0074237
0.00216242
0.00707574
0.002182
0.00672356
0.00220071
0.00636678
0.00221873
0.00600489
0.00223634
0.00563729
0.00225385
0.00526324
0.00227165
0.00488189
0.00229014
0.0044923
0.00230972
0.00409345
0.00233071
0.00368424
0.00235333
0.00326364
0.00237749
0.00283084
0.00240272
0.00238536
0.00242833
0.00192728
0.00245319
0.00145743
0.002476
0.000977584
0.00249485
0.000490244
0.00250936
0.00251186
0.0200691
-3.2901e-05
0.0200136
-1.73964e-05
0.0199685
6.34e-05
0.0199318
0.000146506
0.0199146
0.000159427
0.0199041
0.000115817
0.019899
8.71757e-05
0.0198943
0.000106009
0.0198783
0.000145491
0.0198372
0.000175916
0.0197674
0.000195849
0.0196851
0.000216513
0.019617
0.000240781
0.0195815
0.00026514
0.0195731
0.000290882
0.0195685
0.00032127
0.019545
0.000354274
0.0194955
0.000381336
0.0194299
0.000395868
0.0193649
0.000399981
0.0193118
0.00040246
0.0192709
0.000411654
0.019234
0.000431883
0.0191889
0.000464368
0.0191245
0.00050718
0.0190368
0.00055287
0.018933
0.000589354
0.0188284
0.000607614
0.0187368
0.000610895
0.0186589
0.000615395
0.0185807
0.000638907
0.0184848
0.000686085
0.0183651
0.000743903
0.0182311
0.000792016
0.0180988
0.000818691
0.0179777
0.000828354
0.0178655
0.00083544
0.0177542
0.000851464
0.0176396
0.000877219
0.0175242
0.000905728
0.0174109
0.000931312
0.0172953
0.000955652
0.017166
0.000984892
0.0170141
0.00102234
0.0168415
0.00106559
0.0166603
0.00111111
0.0164821
0.00115922
0.0163094
0.00121206
0.016137
0.00126623
0.0159606
0.00130988
0.0157822
0.00133046
0.0156072
0.00132788
0.015436
0.00131972
0.0152611
0.00133124
0.0150715
0.00137709
0.014861
0.00145025
0.0146334
0.00152726
0.0143991
0.00158472
0.014168
0.00161387
0.0139438
0.00162401
0.0137229
0.00163437
0.0134982
0.0016617
0.0132634
0.00171205
0.0130151
0.00178057
0.0127532
0.00185684
0.0124795
0.001931
0.0121959
0.00199717
0.0119044
0.00205385
0.0116063
0.00210236
0.0113026
0.00214501
0.0109938
0.0021839
0.0106802
0.00222044
0.0103622
0.00225539
0.0100397
0.0022891
0.00971289
0.0023217
0.00938179
0.00235321
0.00904645
0.00238362
0.00870691
0.00241289
0.00836321
0.00244101
0.00801539
0.00246796
0.00766346
0.00249375
0.00730745
0.00251844
0.00694732
0.00254213
0.00658305
0.00256498
0.00621456
0.00258722
0.00584173
0.00260917
0.00546439
0.00263119
0.00508231
0.00265374
0.00469517
0.00267728
0.00430258
0.00270231
0.00390406
0.00272922
0.0034991
0.00275829
0.00308711
0.00278948
0.00266751
0.00282232
0.00223992
0.00285591
0.00180429
0.00288882
0.00136103
0.00291926
0.000911231
0.00294465
0.000456425
0.00296417
0.00296828
0.0201462
0.000257164
0.020091
3.78759e-05
0.0200898
6.45953e-05
0.0200612
0.000175064
0.0200233
0.000197334
0.0199953
0.000143775
0.0199819
0.000100583
0.0199715
0.00011644
0.0199437
0.000173273
0.0198928
0.000226855
0.019834
0.000254591
0.0197868
0.000263788
0.0197551
0.00027247
0.01973
0.000290232
0.0197061
0.000314739
0.0196864
0.000341046
0.0196732
0.000367457
0.0196581
0.000396398
0.0196242
0.000429734
0.0195587
0.000465546
0.0194623
0.000498807
0.0193489
0.000525123
0.0192365
0.000544261
0.01914
0.000560847
0.0190656
0.000581627
0.0190078
0.000610641
0.0189516
0.000645514
0.0188805
0.000678739
0.0187868
0.000704598
0.0186761
0.000726076
0.0185614
0.000753627
0.0184526
0.000794846
0.0183516
0.000844901
0.0182548
0.000888868
0.0181583
0.00091518
0.0180594
0.000927226
0.0179536
0.000941286
0.017833
0.000971998
0.0176914
0.00101887
0.0175304
0.00106677
0.0173617
0.00109998
0.0172005
0.00111686
0.0170544
0.00113098
0.0169186
0.00115808
0.0167814
0.00120282
0.0166343
0.00125826
0.0164775
0.00131596
0.0163165
0.00137303
0.0161546
0.00142821
0.0159901
0.00147439
0.01582
0.00150052
0.0156437
0.00150422
0.015462
0.00150135
0.0152741
0.00151915
0.0150755
0.00157572
0.0148619
0.00166382
0.0146347
0.00175447
0.0144018
0.00181764
0.0141728
0.0018428
0.0139529
0.00184399
0.0137391
0.00184818
0.0135232
0.00187757
0.0132965
0.00193875
0.0130536
0.00202341
0.0127938
0.00211667
0.0125192
0.00220556
0.0122332
0.00228318
0.0119386
0.00234846
0.0116373
0.00240365
0.0113304
0.00245191
0.0110185
0.00249588
0.0107016
0.00253727
0.01038
0.00257698
0.0100537
0.00261544
0.00972259
0.00265281
0.00938671
0.0026891
0.00904602
0.0027243
0.00870054
0.00275838
0.00835025
0.0027913
0.00799517
0.00282304
0.00763533
0.00285359
0.00727076
0.002883
0.00690154
0.00291135
0.00652772
0.00293879
0.00614941
0.00296553
0.00576672
0.00299186
0.00537978
0.00301814
0.0049887
0.00304481
0.00459362
0.00307237
0.00419463
0.0031013
0.00379179
0.00313206
0.00338515
0.00316493
0.00297469
0.00319994
0.00256031
0.00323669
0.00214193
0.00327429
0.00171958
0.00331118
0.00129346
0.00334538
0.000864113
0.00337399
0.000432228
0.00339605
0.00340051
0.019861
4.34539e-06
0.0199342
-3.52942e-05
0.0199511
4.76593e-05
0.0200018
0.000124421
0.0200449
0.00015422
0.0200537
0.000134949
0.0200308
0.000123487
0.0199806
0.000166643
0.019911
0.000242841
0.0198367
0.000301218
0.0197758
0.000315426
0.0197389
0.000300733
0.0197203
0.000291009
0.0197039
0.000306705
0.0196775
0.000341107
0.0196427
0.000375813
0.0196056
0.000404616
0.0195644
0.000437573
0.0195101
0.000483981
0.0194391
0.000536619
0.01936
0.000577886
0.0192864
0.000598754
0.0192235
0.000607119
0.0191663
0.000618043
0.0191074
0.000640575
0.0190429
0.000675103
0.0189702
0.000718214
0.0188837
0.000765257
0.0187784
0.000809915
0.0186576
0.000846799
0.0185346
0.000876687
0.0184228
0.000906617
0.0183256
0.000942124
0.0182341
0.00098035
0.0181359
0.00101334
0.0180247
0.00103847
0.0179025
0.00106346
0.0177757
0.00109883
0.0176492
0.00114533
0.0175248
0.00119119
0.0174013
0.00122345
0.0172762
0.00124196
0.0171464
0.00126079
0.0170094
0.00129517
0.0168642
0.001348
0.016713
0.0014094
0.0165608
0.00146817
0.0164126
0.00152125
0.0162695
0.00157129
0.0161261
0.00161783
0.0159716
0.00165501
0.0157959
0.0016799
0.0155957
0.00170163
0.0153761
0.00173871
0.0151477
0.00180411
0.0149203
0.00189122
0.0146994
0.0019754
0.0144858
0.00203123
0.0142772
0.00205143
0.0140691
0.00205201
0.0138564
0.00206096
0.0136333
0.00210059
0.0133956
0.00217644
0.0131411
0.00227792
0.0128704
0.00238739
0.0125863
0.00248972
0.0122921
0.0025773
0.011991
0.00264958
0.0116847
0.00270992
0.0113741
0.00276252
0.0110593
0.00281068
0.0107402
0.0028564
0.0104165
0.00290068
0.010088
0.0029439
0.00975467
0.00298618
0.00941625
0.00302751
0.00907271
0.00306784
0.00872397
0.00310711
0.00837
0.00314528
0.00801075
0.00318228
0.00764624
0.00321811
0.00727648
0.00325276
0.00690154
0.00328629
0.00652153
0.0033188
0.00613659
0.00335047
0.00574694
0.00338151
0.00535284
0.00341224
0.00495463
0.00344302
0.00455269
0.0034743
0.00414747
0.00350653
0.00373941
0.00354011
0.003329
0.00357534
0.00291666
0.00361229
0.00250274
0.00365061
0.00208753
0.0036895
0.00167127
0.00372744
0.00125412
0.00376253
0.00083628
0.00379183
0.00041782
0.00381451
0.00381833
0.0200704
0.000182954
0.0199967
3.84072e-05
0.019958
8.64094e-05
0.0199129
0.000169556
0.0198922
0.000174888
0.0198768
0.000150314
0.0198438
0.000156524
0.0198094
0.000201017
0.0197957
0.000256601
0.0198003
0.000296581
0.0197988
0.000316945
0.0197712
0.000328295
0.0197215
0.00034068
0.019671
0.000357245
0.0196336
0.000378497
0.0196052
0.00040427
0.0195729
0.000436841
0.0195306
0.000479935
0.0194821
0.000532484
0.0194334
0.000585284
0.0193841
0.000627162
0.0193276
0.000655244
0.0192582
0.000676518
0.0191769
0.000699383
0.0190905
0.000726952
0.0190062
0.000759466
0.0189255
0.000798914
0.0188439
0.000846783
0.0187556
0.000898276
0.0186589
0.000943437
0.018559
0.000976576
0.0184627
0.00100294
0.0183712
0.00103362
0.0182775
0.00107409
0.0181712
0.00111959
0.0180477
0.00116205
0.017912
0.00119913
0.0177763
0.00123453
0.0176514
0.0012702
0.0175402
0.0013024
0.0174358
0.00132788
0.0173256
0.00135219
0.017199
0.00138731
0.0170548
0.00143942
0.0169017
0.00150108
0.0167528
0.00155833
0.0166155
0.00160548
0.0164861
0.00165065
0.0163521
0.00170522
0.0162007
0.00176926
0.0160257
0.00183004
0.0158298
0.0018758
0.0156213
0.00191013
0.0154092
0.00195078
0.0152002
0.00201313
0.0149971
0.00209431
0.0147989
0.00217357
0.0146015
0.0022287
0.0143991
0.0022538
0.0141871
0.00226406
0.0139625
0.00228547
0.0137245
0.00233865
0.0134727
0.00242828
0.0132073
0.00254327
0.0129295
0.00266522
0.012641
0.00277819
0.0123442
0.00287408
0.0120413
0.00295256
0.0117335
0.00301768
0.0114216
0.00307442
0.0111056
0.00312664
0.0107854
0.00317663
0.0104606
0.00322545
0.0101311
0.00327349
0.00979644
0.00332079
0.00945664
0.00336731
0.00911152
0.00341296
0.00876099
0.00345765
0.00840496
0.00350131
0.00804337
0.00354386
0.00767621
0.00358527
0.00730348
0.00362549
0.00692521
0.00366455
0.00654152
0.0037025
0.00615255
0.00373944
0.00575854
0.00377552
0.00535981
0.00381097
0.00495676
0.00384607
0.00454991
0.00388115
0.00413986
0.00391657
0.0037273
0.00395267
0.00331296
0.00398968
0.00289756
0.00402768
0.0024818
0.00406637
0.00206624
0.00410506
0.0016513
0.00414237
0.0012372
0.00417663
0.000823997
0.00420504
0.000411374
0.00422713
0.00422971
0.0197486
-0.000121354
0.0198462
-5.92296e-05
0.0198712
6.14839e-05
0.0199252
0.000115492
0.0199625
0.000137577
0.0199611
0.000151739
0.0199359
0.000181699
0.0199083
0.000228685
0.0198893
0.000275546
0.0198701
0.000315805
0.019834
0.000353014
0.0197754
0.000386903
0.0197046
0.000411474
0.0196377
0.000424196
0.0195851
0.000431115
0.0195453
0.000443993
0.0195113
0.000470858
0.01948
0.000511273
0.0194529
0.000559553
0.0194273
0.000610886
0.0193907
0.000663771
0.019329
0.000716935
0.0192401
0.00076546
0.0191368
0.000802661
0.0190365
0.000827217
0.0189486
0.000847417
0.0188714
0.000876097
0.0187981
0.000920032
0.0187221
0.000974297
0.0186384
0.00102721
0.0185442
0.00107074
0.018441
0.0011061
0.0183347
0.00113991
0.0182326
0.00117625
0.0181385
0.00121367
0.0180509
0.00124968
0.0179638
0.00128616
0.0178708
0.00132754
0.0177676
0.00137341
0.0176539
0.0014161
0.0175328
0.00144896
0.0174079
0.00147714
0.0172793
0.00151589
0.0171435
0.0015752
0.0169972
0.0016474
0.0168418
0.00171369
0.0166833
0.00176405
0.0165257
0.00180824
0.0163663
0.00186456
0.0161971
0.00193848
0.016012
0.00201519
0.0158129
0.00207485
0.0156091
0.00211398
0.01541
0.00214982
0.0152199
0.00220321
0.0150361
0.00227815
0.0148517
0.00235797
0.0146597
0.00242074
0.0144552
0.00245824
0.0142365
0.00248275
0.014004
0.00251798
0.0137591
0.00258351
0.0135034
0.00268405
0.0132375
0.00280908
0.0129622
0.00294057
0.0126779
0.0030625
0.0123855
0.00316646
0.0120861
0.0032519
0.0117809
0.00332298
0.0114703
0.00338497
0.0111549
0.00344208
0.0108346
0.00349689
0.0105095
0.0035506
0.0101793
0.00360366
0.00984393
0.00365614
0.00950326
0.00370798
0.00915713
0.00375909
0.00880545
0.00380934
0.00844812
0.00385864
0.00808508
0.0039069
0.00771629
0.00395406
0.00734174
0.00400004
0.00696147
0.00404482
0.00657557
0.00408841
0.00618417
0.00413083
0.0057875
0.00417219
0.00538589
0.00421259
0.00497975
0.00425221
0.00456962
0.00429128
0.00415615
0.00433004
0.00374011
0.00436871
0.00332234
0.00440745
0.00290373
0.0044463
0.00248513
0.00448497
0.0020673
0.00452289
0.0016508
0.00455888
0.00123591
0.00459152
0.000822646
0.0046183
0.000410549
0.00463923
0.00464025
0.0198756
-0.00028621
0.0199258
-0.000109447
0.0199399
4.74179e-05
0.0199319
0.000123457
0.0199286
0.000140852
0.0199226
0.000157784
0.0199019
0.000202357
0.019871
0.000259612
0.0198347
0.000311835
0.0198007
0.00034982
0.0197784
0.000375345
0.0197699
0.000395324
0.0197672
0.000414196
0.0197564
0.000434969
0.0197241
0.00046341
0.0196634
0.000504724
0.0195772
0.000557073
0.0194784
0.000610118
0.0193847
0.00065316
0.0193106
0.000685069
0.0192601
0.000714279
0.0192278
0.000749177
0.019203
0.000790247
0.0191734
0.000832301
0.0191282
0.000872446
0.0190621
0.000913427
0.0189791
0.000959137
0.01889
0.00100915
0.0188051
0.00105914
0.0187269
0.00110543
0.0186496
0.00114809
0.0185658
0.00118982
0.0184731
0.0012327
0.0183731
0.00127619
0.0182688
0.00131796
0.0181615
0.00135703
0.0180515
0.00139615
0.0179389
0.00144012
0.0178222
0.00149012
0.0176978
0.00154045
0.0175633
0.00158353
0.0174203
0.00162006
0.0172745
0.00166176
0.017129
0.00172067
0.0169813
0.00179511
0.0168254
0.00186961
0.0166587
0.00193069
0.0164857
0.00198128
0.0163136
0.00203667
0.0161457
0.00210636
0.0159782
0.00218273
0.0158033
0.00224974
0.015616
0.00230126
0.0154178
0.00234807
0.0152151
0.00240591
0.0150149
0.00247836
0.0148204
0.00255243
0.0146301
0.00261107
0.0144384
0.00264987
0.0142385
0.00268266
0.0140244
0.00273217
0.0137929
0.00281495
0.0135447
0.00293229
0.0132822
0.00307155
0.0130084
0.00321441
0.0127253
0.00334552
0.0124345
0.00345727
0.0121368
0.0035496
0.0118329
0.00362688
0.0115233
0.00369458
0.0112084
0.00375706
0.0108882
0.00381707
0.0105628
0.00387594
0.0102323
0.00393423
0.00989638
0.00399203
0.00955504
0.00404932
0.00920813
0.00410599
0.00885556
0.00416191
0.00849723
0.00421696
0.00813309
0.00427104
0.00776309
0.00432405
0.00738723
0.0043759
0.00700553
0.00442652
0.00661809
0.00447585
0.00622504
0.00452389
0.00582659
0.00457064
0.00542304
0.00461613
0.0050148
0.00466045
0.00460238
0.00470371
0.00418641
0.00474601
0.00376765
0.00478747
0.00334695
0.00482815
0.00292524
0.00486801
0.00250342
0.00490679
0.00208232
0.00494399
0.00166258
0.00497861
0.00124456
0.00500954
0.000828308
0.00503455
0.000413348
0.00505419
0.0050536
0.0200799
3.05955e-05
0.0199708
-3.46531e-07
0.019989
2.92396e-05
0.0200106
0.000101811
0.0199744
0.000177059
0.0199199
0.000212322
0.0198951
0.000227116
0.0198955
0.000259167
0.0198892
0.000318136
0.0198562
0.000382872
0.0198022
0.000429358
0.0197457
0.000451792
0.0197003
0.000459567
0.0196692
0.000466087
0.0196466
0.000486
0.0196202
0.000531185
0.0195778
0.000599447
0.0195159
0.000671988
0.0194407
0.000728335
0.0193616
0.000764192
0.0192837
0.00079218
0.0192077
0.000825156
0.0191349
0.000863048
0.0190693
0.000897961
0.0190131
0.00092865
0.0189615
0.000964993
0.0189036
0.00101709
0.01883
0.00108268
0.0187412
0.00114795
0.0186465
0.00120015
0.0185564
0.00123818
0.0184747
0.00127149
0.0183971
0.00131034
0.0183156
0.00135768
0.0182246
0.00140899
0.0181232
0.00145838
0.018015
0.00150439
0.0179048
0.00155033
0.0177952
0.00159965
0.0176838
0.00165192
0.0175629
0.00170444
0.0174252
0.00175776
0.0172698
0.00181712
0.0171044
0.00188608
0.0169401
0.00195935
0.0167842
0.00202556
0.0166353
0.00207955
0.0164867
0.00212991
0.0163322
0.0021912
0.0161707
0.00226787
0.0160049
0.00234852
0.0158366
0.00241795
0.0156638
0.0024741
0.0154813
0.00253054
0.0152858
0.00260143
0.0150792
0.00268498
0.0148685
0.00276317
0.0146613
0.00281818
0.0144612
0.00285001
0.0142644
0.00287949
0.014062
0.00293458
0.0138447
0.00303218
0.0136075
0.00316948
0.0133506
0.00332853
0.0130774
0.00348755
0.0127925
0.00363049
0.012499
0.00375072
0.0121991
0.00384953
0.0118936
0.00393232
0.0115831
0.00400512
0.0112676
0.00407261
0.010947
0.00413764
0.0106213
0.00420165
0.0102903
0.00426519
0.00995394
0.0043284
0.00961203
0.00439124
0.00926444
0.00445357
0.00891108
0.00451527
0.00855186
0.00457619
0.00818672
0.00463619
0.00781563
0.00469514
0.00743859
0.00475294
0.00705565
0.00480946
0.00666688
0.00486462
0.00627242
0.00491835
0.00587248
0.00497057
0.00546734
0.00502127
0.00505738
0.00507042
0.00464306
0.00511802
0.00422499
0.00516408
0.00380386
0.0052086
0.00338047
0.00525154
0.00295571
0.00529278
0.00253045
0.00533205
0.00210553
0.00536891
0.00168162
0.00540253
0.00125911
0.00543205
0.000838148
0.00545552
0.000418314
0.00547403
0.00547192
0.0202363
0.00028229
0.020044
0.000191925
0.0199379
0.000135362
0.0198949
0.000144801
0.0198908
0.000181127
0.019872
0.000231118
0.0198377
0.000261475
0.01982
0.00027686
0.0198267
0.000311464
0.0198357
0.000373851
0.0198246
0.000440431
0.0197899
0.00048651
0.0197419
0.000507538
0.0196907
0.000517324
0.0196425
0.000534204
0.0196028
0.000570833
0.0195732
0.000629083
0.0195458
0.000699344
0.0195063
0.000767911
0.0194437
0.000826742
0.0193599
0.000875986
0.019267
0.000918006
0.0191781
0.000951996
0.0190994
0.00097668
0.0190308
0.000997231
0.0189695
0.0010263
0.0189114
0.00107522
0.0188509
0.00114318
0.018783
0.0012158
0.0187072
0.00127592
0.0186281
0.00131737
0.0185505
0.00134904
0.0184748
0.00138608
0.0183956
0.0014369
0.0183063
0.00149825
0.0182032
0.00156149
0.0180857
0.00162187
0.0179554
0.00168063
0.0178158
0.00173929
0.0176726
0.0017951
0.0175322
0.00184485
0.0173976
0.00189241
0.0172663
0.00194839
0.0171332
0.00201916
0.0169953
0.00209729
0.0168534
0.0021674
0.0167096
0.00222341
0.016562
0.00227743
0.0164055
0.00234772
0.0162359
0.00243746
0.0160555
0.00252898
0.0158718
0.00260167
0.015691
0.00265481
0.0155118
0.00270975
0.0153255
0.00278773
0.0151241
0.00288641
0.0149079