/*--------------------------------*- C++ -*----------------------------------*\
| =========                 |                                                 |
| \\      /  F ield         | OpenFOAM: The Open Source CFD Toolbox           |
|  \\    /   O peration     | Version:  4.1                                   |
|   \\  /    A nd           | Web:      www.OpenFOAM.org                      |
|    \\/     M anipulation  |                                                 |
\*---------------------------------------------------------------------------*/
FoamFile
{
    version     2.0;
    format      ascii;
    class       surfaceScalarField;
    location    "0.151";
    object      phi_0;
}
// * * * * * * * * * * * * * * * * * * * * * * * * * * * * * * * * * * * * * //

dimensions      [0 3 -1 0 0 0 0];

internalField   nonuniform List<scalar> 
87025
(
0.0198997
-8.10998e-05
0.0199051
-5.38259e-06
0.0198774
2.76656e-05
0.0198438
3.36822e-05
0.0198219
2.18982e-05
0.0198207
1.14672e-06
0.019834
-1.32338e-05
0.0198317
2.21389e-06
0.0197983
3.34052e-05
0.0197481
5.02766e-05
0.0197047
4.33542e-05
0.0196774
2.72997e-05
0.019656
2.13854e-05
0.0196217
3.43047e-05
0.0195622
5.95591e-05
0.0194821
8.00836e-05
0.0194012
8.08962e-05
0.0193389
6.22903e-05
0.0192987
4.01756e-05
0.0192635
3.51798e-05
0.0192068
5.66913e-05
0.0191113
9.5503e-05
0.0189802
0.000131092
0.0188341
0.000146148
0.0186971
0.000137042
0.0185864
0.000110621
0.0185069
7.95282e-05
0.0184483
5.85539e-05
0.018389
5.93227e-05
0.0183073
8.17034e-05
0.0181948
0.000112557
0.0180616
0.0001332
0.0179268
0.000134755
0.0178016
0.000125235
0.0176806
0.000120928
0.0175499
0.000130728
0.0174004
0.000149497
0.0172343
0.000166091
0.017059
0.000175335
0.0168789
0.000180083
0.0166953
0.000183606
0.0165111
0.000184189
0.0163319
0.000179262
0.0161593
0.000172534
0.0159868
0.000172548
0.0158036
0.000183208
0.0156056
0.000197949
0.015399
0.000206579
0.0151911
0.000207909
0.0149784
0.000212713
0.0147464
0.000232038
0.0144834
0.000262936
0.0141948
0.000288657
0.0138996
0.000295164
0.0136121
0.000287564
0.0133234
0.000288647
0.0130039
0.000319526
0.0126245
0.000379388
0.0121808
0.000443706
0.0116974
0.000483413
0.0112118
0.000485561
0.0107542
0.000457613
0.010337
0.000417234
0.0099569
0.000380068
0.00960283
0.000354077
0.00926175
0.000341073
0.00892368
0.000338072
0.00858247
0.00034121
0.00823517
0.000347298
0.00788086
0.000354315
0.00751963
0.000361228
0.00715201
0.000367622
0.00677866
0.000373344
0.00640037
0.000378298
0.006018
0.000382371
0.00563259
0.000385404
0.00524539
0.000387202
0.00485784
0.00038755
0.00447162
0.000386225
0.00408862
0.000382996
0.00371098
0.000377642
0.00334101
0.000369962
0.00298122
0.000359797
0.00263417
0.000347046
0.00230249
0.000331681
0.00198873
0.000313763
0.00169527
0.000293453
0.00142426
0.000271012
0.00117746
0.000246806
0.00095616
0.000221297
0.000761118
0.000195042
0.00059247
0.000168648
0.000449727
0.000142743
0.000331751
0.000117977
0.000236731
9.50196e-05
0.000162239
7.44923e-05
0.000105167
5.70714e-05
6.19583e-05
4.3209e-05
2.85162e-05
3.3442e-05
2.85162e-05
0.0199268
-4.08213e-05
0.0199308
-9.38864e-06
0.0199578
6.68501e-07
0.0199781
1.34399e-05
0.0199696
3.03576e-05
0.0199433
2.74082e-05
0.0199241
6.01414e-06
0.0199266
-3.00732e-07
0.0199357
2.42897e-05
0.0199251
6.08852e-05
0.0198886
7.98449e-05
0.0198429
7.30489e-05
0.019807
5.72152e-05
0.0197868
5.45777e-05
0.0197726
7.37056e-05
0.019748
0.000104657
0.0197004
0.000128541
0.0196295
0.000133193
0.0195474
0.000122241
0.0194724
0.000110221
0.0194199
0.000109154
0.0193935
0.000121953
0.0193802
0.000144377
0.0193553
0.000171074
0.0192968
0.000195515
0.0191965
0.000210887
0.0190659
0.000210121
0.0189334
0.0001911
0.0188298
0.000162963
0.0187683
0.000143133
0.0187346
0.000146251
0.0186928
0.000175047
0.0186107
0.000216849
0.0184852
0.000250764
0.0183444
0.000261697
0.0182251
0.000249991
0.0181449
0.000229714
0.018093
0.00021804
0.0180441
0.000224185
0.0179785
0.000245712
0.0178884
0.000273714
0.0177718
0.000300749
0.0176268
0.000324283
0.0174547
0.000344654
0.0172673
0.000359956
0.0170848
0.00036572
0.0169228
0.000359912
0.0167813
0.000348072
0.0166471
0.0003421
0.0165075
0.000352311
0.0163602
0.000379325
0.01621
0.000413156
0.016058
0.00044063
0.0158983
0.00045486
0.0157242
0.000461673
0.0155372
0.000475651
0.0153473
0.000509433
0.0151637
0.000563001
0.0149861
0.000621302
0.0148054
0.000664161
0.0146109
0.000679965
0.0143973
0.000671237
0.0141639
0.000650613
0.0139121
0.000631887
0.0136437
0.000622475
0.0133608
0.000624028
0.0130645
0.000634302
0.0127562
0.000649567
0.0124368
0.000666685
0.0121074
0.000683745
0.0117687
0.000699915
0.0114213
0.000715008
0.0110656
0.00072907
0.0107017
0.000742138
0.0103299
0.000754166
0.00995033
0.000765012
0.00956307
0.00077446
0.00916837
0.000782248
0.00876651
0.000788082
0.00835786
0.000791647
0.00794288
0.000792621
0.00752215
0.000790693
0.00709636
0.000785588
0.00666632
0.000777089
0.00623293
0.000765065
0.00579721
0.000749483
0.00536024
0.000730431
0.00492313
0.000708118
0.00448706
0.00068287
0.00405328
0.000655086
0.00362287
0.000625447
0.0031968
0.000594717
0.00277597
0.000563572
0.00236116
0.000532787
0.00195293
0.000503252
0.0015515
0.000475918
0.00115665
0.000451922
0.000767559
0.000432302
0.000382312
0.000418689
0.000410828
0.0199734
-2.39691e-05
0.0200166
-5.26528e-05
0.0200114
5.88238e-06
0.0199462
7.86861e-05
0.0198896
8.68971e-05
0.0198427
7.43373e-05
0.0197987
4.99674e-05
0.0197659
3.25322e-05
0.0197582
3.20433e-05
0.0197752
4.38571e-05
0.0197964
5.86067e-05
0.019795
7.44638e-05
0.0197564
9.58436e-05
0.0196869
0.000124086
0.0196088
0.000151809
0.0195457
0.000167767
0.0195058
0.000168359
0.0194786
0.00016043
0.0194464
0.000154415
0.019401
0.000155621
0.0193465
0.000163642
0.0192917
0.000176788
0.0192411
0.000194941
0.0191944
0.000217784
0.019146
0.000243923
0.0190873
0.000269641
0.0190075
0.000289939
0.018899
0.000299554
0.0187678
0.000294174
0.0186336
0.000277324
0.0185166
0.000263222
0.018422
0.000269708
0.0183353
0.000303566
0.0182347
0.000351295
0.0181093
0.0003871
0.0179663
0.000392985
0.0178237
0.000372386
0.0176961
0.000345565
0.0175875
0.0003328
0.0174921
0.000341128
0.0174011
0.000364739
0.0173075
0.000394286
0.0172071
0.000424673
0.0170972
0.000454642
0.0169747
0.000482387
0.0168354
0.000505037
0.0166734
0.000521967
0.0164855
0.000535962
0.0162775
0.000550021
0.0160661
0.000563741
0.0158713
0.00057412
0.0157041
0.000580417
0.015557
0.000587716
0.0154077
0.000604127
0.0152349
0.000634522
0.0150339
0.000676615
0.0148209
0.000722401
0.0146211
0.000762824
0.0144515
0.000790941
0.0143117
0.000803964
0.0141873
0.00080431
0.0140592
0.000799303
0.0139113
0.0007986
0.0137348
0.000808333
0.0135284
0.000828908
0.0132955
0.000856902
0.013042
0.000887829
0.0127737
0.000917859
0.0124951
0.000945229
0.0122091
0.00096975
0.0119171
0.000991981
0.0116195
0.00101259
0.0113165
0.00103205
0.0110081
0.00105059
0.010694
0.00106824
0.0103741
0.00108493
0.010048
0.0011005
0.00971553
0.00111475
0.00937616
0.00112745
0.00902945
0.00113835
0.00867489
0.00114718
0.00831192
0.00115367
0.00793994
0.00115757
0.00755834
0.00115869
0.00716652
0.00115688
0.00676391
0.00115209
0.00635001
0.00114433
0.00592441
0.00113372
0.0054868
0.00112048
0.00503699
0.0011049
0.00457501
0.00108742
0.00410121
0.00106852
0.00361615
0.00104864
0.00312062
0.00102831
0.00261569
0.00100818
0.00210262
0.00098899
0.00158283
0.00097171
0.00105794
0.000957197
0.000529358
0.00094727
0.000940186
0.0198264
2.48669e-05
0.0198641
-9.03244e-05
0.0198879
-1.79376e-05
0.019888
7.85568e-05
0.0198536
0.000121363
0.0198236
0.000104245
0.019796
7.75823e-05
0.0197694
5.91603e-05
0.0197538
4.76164e-05
0.0197526
4.50833e-05
0.0197524
5.8784e-05
0.0197367
9.02197e-05
0.0197038
0.00012867
0.0196694
0.000158486
0.0196486
0.000172627
0.0196381
0.00017826
0.0196174
0.000189081
0.019566
0.000211805
0.0194818
0.000238675
0.0193829
0.0002545
0.0192938
0.000252737
0.0192268
0.000243843
0.0191755
0.000246169
0.0191244
0.000268936
0.0190633
0.000305011
0.0189929
0.000340035
0.0189184
0.000364449
0.0188419
0.000376079
0.0187593
0.000376759
0.0186666
0.000370005
0.0185669
0.000362935
0.0184697
0.000366892
0.0183828
0.000390448
0.0183038
0.00043033
0.01822
0.000470921
0.0181176
0.000495314
0.0179915
0.000498524
0.0178463
0.000490793
0.0176909
0.000488195
0.0175325
0.00049947
0.017376
0.000521243
0.0172255
0.000544822
0.0170836
0.000566608
0.0169473
0.000590894
0.0168063
0.000623349
0.0166477
0.000663659
0.0164649
0.000704817
0.0162626
0.000738266
0.0160537
0.00075886
0.0158513
0.000766174
0.0156618
0.000763643
0.0154839
0.000758326
0.0153112
0.000760329
0.0151364
0.000778947
0.0149544
0.000816544
0.0147655
0.000865519
0.0145755
0.000912365
0.0143925
0.000945876
0.0142207
0.000962674
0.0140573
0.000967394
0.0138925
0.000969155
0.0137148
0.000976943
0.0135172
0.000996235
0.0132981
0.00102742
0.0130602
0.00106679
0.012808
0.00110914
0.0125456
0.00115018
0.012276
0.0011875
0.0120007
0.00122055
0.0117205
0.00124989
0.0114361
0.00127646
0.0111475
0.00130113
0.0108551
0.00132445
0.010559
0.00134674
0.0102591
0.0013681
0.00995552
0.00138853
0.00964803
0.00140798
0.00933643
0.00142635
0.00902038
0.00144351
0.00869942
0.00145931
0.00837299
0.00147361
0.00804039
0.00148627
0.00770078
0.00149718
0.00735324
0.00150623
0.00699671
0.00151341
0.00663006
0.00151874
0.0062521
0.00152229
0.00586161
0.00152421
0.00545738
0.00152471
0.00503826
0.00152402
0.00460328
0.0015224
0.00415172
0.00152008
0.00368313
0.00151723
0.00319749
0.00151395
0.00269529
0.00151038
0.00217764
0.00150664
0.00164633
0.00150303
0.00110388
0.00149965
0.000553453
0.00149769
0.00149364
0.0199766
-4.25643e-05
0.0200162
-0.000129877
0.0200334
-3.51319e-05
0.0200317
8.02794e-05
0.0200177
0.000135327
0.0199847
0.0001372
0.0199538
0.000108517
0.0199234
8.95986e-05
0.0198831
8.79373e-05
0.0198378
9.03195e-05
0.0198016
9.49523e-05
0.0197796
0.00011225
0.0197627
0.000145543
0.0197363
0.000184934
0.0196895
0.000219433
0.0196214
0.000246313
0.0195428
0.0002677
0.0194695
0.000285075
0.0194104
0.000297777
0.0193596
0.000305361
0.019302
0.000310362
0.0192278
0.00031799
0.0191417
0.000332251
0.0190583
0.000352316
0.0189895
0.000373814
0.0189363
0.000393238
0.0188891
0.000411721
0.0188332
0.000431981
0.0187576
0.000452348
0.0186605
0.000467082
0.0185497
0.000473718
0.0184378
0.000478833
0.0183342
0.000494039
0.0182402
0.000524348
0.0181494
0.000561715
0.0180525
0.000592195
0.0179413
0.00060975
0.0178101
0.000621942
0.0176571
0.000641172
0.017486
0.000670595
0.0173072
0.000700016
0.0171353
0.000716803
0.0169819
0.000720009
0.0168497
0.000723047
0.0167309
0.000742163
0.0166121
0.000782453
0.0164819
0.000835053
0.0163339
0.000886263
0.0161659
0.000926844
0.0159783
0.000953739
0.0157748
0.000967109
0.0155635
0.000969696
0.0153546
0.000969197
0.015156
0.000977574
0.0149683
0.00100421
0.0147855
0.0010483
0.0145996
0.0010983
0.0144059
0.00113959
0.0142045
0.00116404
0.0139975
0.00117438
0.0137853
0.00118143
0.0135653
0.00119694
0.013334
0.00122745
0.0130894
0.00127204
0.0128316
0.00132458
0.0125628
0.00137795
0.0122858
0.00142724
0.0120028
0.00147046
0.0117154
0.00150795
0.0114242
0.00154106
0.0111295
0.00157117
0.0108314
0.00159929
0.0105298
0.001626
0.010225
0.0016516
0.00991687
0.00167619
0.0096056
0.0016998
0.00929118
0.00172241
0.00897355
0.00174397
0.00865262
0.00176444
0.00832818
0.00178375
0.00799993
0.00180186
0.00766747
0.00181874
0.00733025
0.00183439
0.00698761
0.00184888
0.00663874
0.00186229
0.00628269
0.00187478
0.00591841
0.00188657
0.0055447
0.00189792
0.0051603
0.00190911
0.00476388
0.00192044
0.00435411
0.00193217
0.00392975
0.00194444
0.00348979
0.00195719
0.00303352
0.00197022
0.00256075
0.00198315
0.00207197
0.00199541
0.00156855
0.00200645
0.0010529
0.0020153
0.000528274
0.00202232
0.00202191
0.0199803
-0.000148151
0.0199027
-5.2212e-05
0.0198585
9.05831e-06
0.0198387
0.000100055
0.019844
0.000130038
0.0198872
9.40058e-05
0.0199224
7.3364e-05
0.0199169
9.51027e-05
0.0198792
0.000125628
0.0198368
0.000132697
0.0198062
0.000125578
0.0197834
0.000135002
0.0197542
0.0001747
0.0197068
0.000232379
0.0196405
0.000285743
0.0195665
0.00032031
0.0194996
0.00033464
0.0194488
0.000335834
0.0194122
0.000334419
0.0193783
0.00033926
0.019335
0.00035364
0.0192779
0.000375113
0.0192108
0.000399294
0.0191397
0.000423461
0.0190666
0.000446907
0.0189906
0.000469228
0.0189129
0.000489367
0.0188381
0.000506816
0.0187675
0.000522987
0.0186935
0.000541001
0.0186032
0.000564101
0.0184884
0.000593561
0.018355
0.000627447
0.0182183
0.000661066
0.0180907
0.000689325
0.0179728
0.000710058
0.0178567
0.000725912
0.0177359
0.000742712
0.017612
0.000765107
0.0174898
0.000792737
0.0173696
0.000820286
0.0172442
0.000842175
0.0171066
0.000857645
0.0169573
0.000872313
0.0168045
0.000894919
0.0166551
0.000931831
0.0165073
0.000982918
0.0163524
0.00104117
0.0161837
0.00109551
0.0160025
0.00113498
0.0158161
0.00115347
0.0156317
0.00115408
0.0154512
0.00114977
0.0152711
0.00115761
0.0150866
0.00118871
0.0148939
0.00124106
0.0146913
0.00130086
0.0144794
0.00135151
0.0142596
0.00138379
0.0140333
0.0014007
0.0138003
0.00141439
0.0135593
0.00143795
0.0133087
0.00147813
0.0130475
0.00153322
0.0127761
0.00159591
0.012496
0.00165812
0.0122088
0.00171444
0.0119161
0.00176312
0.0116191
0.001805
0.0113182
0.00184196
0.0110136
0.00187575
0.0107053
0.00190753
0.0103934
0.00193793
0.0100778
0.00196721
0.00975854
0.00199544
0.00943569
0.00202265
0.0091093
0.00204879
0.00877943
0.00207385
0.00844607
0.00209779
0.00810922
0.0021206
0.0077688
0.00214228
0.00742467
0.00216286
0.00707663
0.00218243
0.00672438
0.00220113
0.00636753
0.00221914
0.00600557
0.00223674
0.0056379
0.00225425
0.00526378
0.00227204
0.00488237
0.00229052
0.00449271
0.00231009
0.00409381
0.00233107
0.00368455
0.00235369
0.0032639
0.00237784
0.00283105
0.00240307
0.00238552
0.00242867
0.00192741
0.00245353
0.00145752
0.00247633
0.00097764
0.00249518
0.000490271
0.00250969
0.00251218
0.0200708
8.58468e-06
0.0200336
-1.50558e-05
0.0199909
5.18327e-05
0.0199603
0.000130618
0.0199458
0.00014456
0.0199359
0.000103853
0.0199307
7.85346e-05
0.0199254
0.000100408
0.0199087
0.000142378
0.0198666
0.000174776
0.0197959
0.000196316
0.0197126
0.000218284
0.0196437
0.000243564
0.0196074
0.000268689
0.0195981
0.000295017
0.0195926
0.000325841
0.0195681
0.00035913
0.0195176
0.000386339
0.0194511
0.000400924
0.0193853
0.000405054
0.0193314
0.000407544
0.0192898
0.000416739
0.0192521
0.000436951
0.0192062
0.000469392
0.019141
0.000512121
0.0190525
0.000557669
0.018948
0.000593948
0.0188428
0.000611984
0.0187507
0.000615081
0.0186722
0.000619477
0.0185934
0.000642941
0.0184969
0.000690053
0.0183766
0.000747726
0.0182421
0.000795619
0.0181093
0.000822058
0.0179879
0.000831533
0.0178753
0.000838498
0.0177635
0.000854436
0.0176486
0.000880096
0.0175328
0.000908483
0.0174192
0.000933937
0.0173032
0.000958167
0.0171735
0.000987325
0.0170211
0.00102469
0.0168482
0.00106787
0.0166667
0.0011133
0.0164883
0.00116133
0.0163154
0.00121409
0.0161427
0.00126816
0.015966
0.00131165
0.0157875
0.00133206
0.0156122
0.00132935
0.0154408
0.00132113
0.0152657
0.00133269
0.0150759
0.00137861
0.0148651
0.00145177
0.0146373
0.0015287
0.0144028
0.00158601
0.0141716
0.00161501
0.0139472
0.00162506
0.0137262
0.0016354
0.0135014
0.00166276
0.0132664
0.00171314
0.013018
0.00178166
0.0127559
0.00185792
0.012482
0.00193202
0.0121983
0.00199813
0.0119067
0.00205475
0.0116085
0.00210321
0.0113046
0.00214582
0.0109957
0.00218467
0.0106821
0.00222117
0.0103639
0.00225609
0.0100414
0.00228977
0.00971446
0.00232235
0.00938328
0.00235384
0.00904785
0.00238422
0.00870822
0.00241348
0.00836444
0.00244158
0.00801654
0.00246851
0.00766454
0.00249428
0.00730844
0.00251895
0.00694824
0.00254263
0.0065839
0.00256547
0.00621534
0.0025877
0.00584244
0.00260964
0.00546504
0.00263165
0.00508289
0.00265419
0.00469568
0.00267773
0.00430303
0.00270275
0.00390445
0.00272965
0.00349944
0.00275871
0.00308739
0.00278989
0.00266775
0.00282272
0.00224011
0.00285631
0.00180444
0.0028892
0.00136114
0.00291963
0.000911298
0.00294502
0.000456458
0.00296453
0.00296864
0.0200865
9.56888e-05
0.020089
-1.76221e-05
0.0201109
2.99848e-05
0.0200914
0.000150048
0.0200571
0.000178939
0.0200301
0.0001308
0.0200164
9.22104e-05
0.0200051
0.000111762
0.0199761
0.000171391
0.0199238
0.000227008
0.0198639
0.000256272
0.0198155
0.00026669
0.0197827
0.000276367
0.0197565
0.000294897
0.0197315
0.000319957
0.0197107
0.000346642
0.0196966
0.000373307
0.0196805
0.000402415
0.0196456
0.000435842
0.0195789
0.000471667
0.0194816
0.000504867
0.0193673
0.00053107
0.0192542
0.000550074
0.019157
0.000566532
0.019082
0.000587193
0.0190235
0.000616082
0.0189667
0.000650798
0.0188948
0.000683831
0.0188004
0.000709487
0.0186891
0.000730792
0.0185739
0.000758213
0.0184646
0.00079931
0.0183631
0.000849198
0.0182658
0.000892939
0.0181689
0.000919008
0.0180695
0.000930865
0.0179632
0.000944813
0.0178422
0.000975453
0.0177001
0.00102222
0.0175386
0.00106995
0.0173696
0.00110296
0.0172081
0.00111966
0.0170617
0.00113367
0.0169257
0.00116072
0.0167882
0.0012054
0.0166407
0.00126076
0.0164837
0.00131835
0.0163225
0.00137532
0.0161602
0.00143037
0.0159955
0.0014764
0.0158252
0.00150236
0.0156486
0.00150592
0.0154668
0.00150299
0.0152786
0.00152084
0.0150797
0.00157748
0.0148659
0.00166557
0.0146385
0.0017561
0.0144055
0.00181908
0.0141764
0.00184405
0.0139563
0.00184515
0.0137424
0.00184933
0.0135264
0.00187877
0.0132995
0.00194
0.0130565
0.00202468
0.0127965
0.00211792
0.0125218
0.00220673
0.0122356
0.00228428
0.0119409
0.00234948
0.0116395
0.00240461
0.0113325
0.00245283
0.0110204
0.00249675
0.0107035
0.0025381
0.0103818
0.00257778
0.0100553
0.00261621
0.00972415
0.00265354
0.00938818
0.00268981
0.00904742
0.00272499
0.00870185
0.00275904
0.00835148
0.00279194
0.00799632
0.00282366
0.00763641
0.0028542
0.00727177
0.00288359
0.00690247
0.00291193
0.00652859
0.00293935
0.00615021
0.00296608
0.00576745
0.0029924
0.00538044
0.00301866
0.0049893
0.00304533
0.00459416
0.00307287
0.00419511
0.0031018
0.00379222
0.00313254
0.00338552
0.0031654
0.002975
0.00320041
0.00256058
0.00323715
0.00214215
0.00327474
0.00171974
0.00331161
0.00129358
0.0033458
0.000864193
0.0033744
0.000432268
0.00339645
0.00340091
0.0198968
6.0227e-05
0.0199629
-8.36828e-05
0.0199854
7.4743e-06
0.0200414
9.40447e-05
0.0200852
0.000135125
0.020093
0.00012297
0.0200686
0.000116631
0.0200167
0.000163732
0.0199453
0.000242742
0.0198693
0.000303035
0.0198069
0.000318615
0.0197686
0.000305035
0.0197487
0.000296264
0.0197309
0.000312717
0.0197032
0.000347618
0.0196672
0.000382609
0.019629
0.000411587
0.0195867
0.000444679
0.0195314
0.000491157
0.0194593
0.000543745
0.0193793
0.000584843
0.0193049
0.000605505
0.0192413
0.000613695
0.0191833
0.000624486
0.0191236
0.000646894
0.0190584
0.000681279
0.018985
0.00072422
0.0188978
0.000771063
0.0187918
0.000815493
0.0186704
0.000852136
0.0185468
0.000881803
0.0184346
0.000911543
0.0183369
0.000946872
0.018245
0.0009849
0.0181463
0.00101767
0.0180346
0.0010426
0.0179119
0.00106745
0.0177847
0.00110269
0.0176579
0.00114905
0.0175331
0.00119472
0.0174093
0.00122676
0.0172839
0.00124509
0.0171537
0.00126381
0.0170163
0.00129814
0.0168708
0.0013509
0.0167194
0.00141218
0.0165669
0.00147082
0.0164185
0.00152375
0.0162752
0.00157367
0.0161315
0.00162008
0.0159767
0.00165712
0.0158008
0.00168189
0.0156002
0.00170355
0.0153804
0.00174064
0.0151518
0.00180605
0.0149243
0.00189312
0.0147032
0.00197716
0.0144895
0.00203279
0.0142808
0.00205281
0.0140726
0.00205331
0.0138597
0.00206227
0.0136365
0.00210197
0.0133986
0.00217787
0.0131439
0.00227937
0.012873
0.00238879
0.0125887
0.00249104
0.0122945
0.00257853
0.0119932
0.00265073
0.0116869
0.002711
0.0113761
0.00276354
0.0110612
0.00281165
0.010742
0.00285733
0.0104182
0.00290157
0.0100897
0.00294476
0.00975621
0.00298701
0.00941771
0.00302831
0.00907408
0.00306861
0.00872527
0.00310786
0.00837121
0.003146
0.00801189
0.00318298
0.00764731
0.00321878
0.00727748
0.00325342
0.00690247
0.00328693
0.00652239
0.00331943
0.00613739
0.00335108
0.00574767
0.00338211
0.00535351
0.00341283
0.00495524
0.0034436
0.00455325
0.00347486
0.00414797
0.00350708
0.00373986
0.00354065
0.00332939
0.00357587
0.00291699
0.00361281
0.00250302
0.00365112
0.00208777
0.00368999
0.00167145
0.00372792
0.00125425
0.003763
0.000836371
0.00379229
0.000417866
0.00381496
0.00381878
0.0200553
-5.04477e-05
0.0200313
-5.97274e-05
0.0200041
3.46457e-05
0.0199593
0.000138881
0.0199383
0.000156117
0.019921
0.000140298
0.0198853
0.000152286
0.0198484
0.00020062
0.0198324
0.00025879
0.0198349
0.000300548
0.0198313
0.000322206
0.0198018
0.000334537
0.0197504
0.000347657
0.0196984
0.000364742
0.0196596
0.000386346
0.0196299
0.000412343
0.0195964
0.000445049
0.0195529
0.000488203
0.0195033
0.000540723
0.0194537
0.000593391
0.0194035
0.000635063
0.0193461
0.000662919
0.0192758
0.000683987
0.0191936
0.000706659
0.0191065
0.000734027
0.0190214
0.000766336
0.01894
0.000805582
0.0188579
0.000853243
0.0187689
0.000904493
0.0186716
0.000949376
0.0185712
0.000982238
0.0184744
0.00100837
0.0183824
0.00103886
0.0182881
0.00107915
0.0181814
0.00112445
0.0180573
0.00116668
0.0179212
0.00120354
0.0177851
0.00123875
0.0176599
0.00127424
0.0175484
0.00130623
0.0174437
0.00133152
0.0173331
0.00135569
0.0172062
0.00139072
0.0170616
0.00144274
0.0169082
0.00150427
0.016759
0.00156135
0.0166215
0.00160833
0.0164919
0.00165338
0.0163577
0.00170787
0.0162059
0.00177183
0.0160306
0.00183246
0.0158344
0.00187806
0.0156257
0.00191227
0.0154135
0.00195288
0.0152043
0.00201522
0.0150011
0.00209634
0.0148028
0.00217546
0.0146052
0.00223041
0.0144026
0.00225535
0.0141904
0.00226553
0.0139657
0.00228695
0.0137275
0.0023402
0.0134755
0.00242988
0.01321
0.00254487
0.012932
0.00266677
0.0126434
0.00277964
0.0123465
0.00287543
0.0120434
0.00295381
0.0117356
0.00301886
0.0114236
0.00307554
0.0111075
0.00312771
0.0107872
0.00317765
0.0104623
0.00322643
0.0101326
0.00327443
0.00979795
0.0033217
0.00945807
0.00336819
0.00911287
0.00341381
0.00876226
0.00345847
0.00840615
0.0035021
0.0080445
0.00354464
0.00767727
0.00358602
0.00730446
0.00362622
0.00692613
0.00366526
0.00654238
0.00370319
0.00615335
0.00374011
0.00575928
0.00377618
0.00536048
0.00381162
0.00495738
0.0038467
0.00455047
0.00388177
0.00414037
0.00391718
0.00372775
0.00395326
0.00331336
0.00399027
0.00289791
0.00402825
0.0024821
0.00406693
0.00206649
0.0041056
0.0016515
0.0041429
0.00123735
0.00417715
0.000824095
0.00420554
0.000411423
0.00422763
0.0042302
0.0198613
-0.000254204
0.0199278
-0.000126243
0.0199474
1.50498e-05
0.0199911
9.51926e-05
0.0200191
0.000128114
0.0200111
0.000148272
0.0199812
0.000182142
0.0199499
0.000231974
0.0199278
0.000280828
0.0199059
0.000322509
0.0198673
0.000360738
0.0198066
0.000395323
0.0197339
0.000420336
0.0196653
0.000433326
0.0196112
0.000440419
0.0195701
0.000453414
0.0195349
0.000480332
0.0195024
0.000520714
0.0194742
0.00056888
0.0194475
0.000620041
0.0194099
0.000672718
0.0193472
0.000725638
0.0192573
0.000773876
0.0191532
0.000810757
0.0190522
0.000835001
0.0189636
0.000854937
0.0188858
0.000883401
0.0188119
0.000927128
0.0187353
0.000981144
0.0186509
0.00103376
0.0185561
0.00107699
0.0184524
0.00111207
0.0183456
0.00114564
0.018243
0.00118175
0.0181485
0.00121893
0.0180605
0.00125471
0.0179731
0.00129098
0.0178796
0.00133217
0.017776
0.00137786
0.0176619
0.00142032
0.0175405
0.00145297
0.0174152
0.00148097
0.0172863
0.00151962
0.0171502
0.00157884
0.0170036
0.0016509
0.0168479
0.00171699
0.0166891
0.00176716
0.0165312
0.00181122
0.0163716
0.00186747
0.0162022
0.00194131
0.0160167
0.00201787
0.0158175
0.00207734
0.0156134
0.00211631
0.0154142
0.00215207
0.015224
0.00220544
0.01504
0.00228033
0.0148555
0.00236004
0.0146632
0.00242263
0.0144586
0.00245998
0.0142397
0.0024844
0.0140071
0.00251964
0.013762
0.00258522
0.0135061
0.0026858
0.0132402
0.00281082
0.0129647
0.00294225
0.0126802
0.00306409
0.0123877
0.00316793
0.0120883
0.00325327
0.0117829
0.00332426
0.0114722
0.00338618
0.0111567
0.00344324
0.0108363
0.003498
0.0105111
0.00355167
0.0101808
0.00360469
0.00984541
0.00365714
0.00950466
0.00370894
0.00915845
0.00376001
0.00880669
0.00381023
0.00844929
0.00385951
0.00808618
0.00390774
0.00771732
0.00395487
0.00734271
0.00400084
0.00696238
0.0040456
0.00657641
0.00408916
0.00618495
0.00413157
0.00578823
0.00417291
0.00538656
0.00421329
0.00498037
0.0042529
0.00457018
0.00429196
0.00415666
0.0043307
0.00374056
0.00436936
0.00332274
0.00440809
0.00290408
0.00444692
0.00248544
0.00448558
0.00206756
0.00452348
0.001651
0.00455946
0.00123606
0.00459209
0.000822748
0.00461886
0.0004106
0.00463978
0.0046408
0.0200498
-0.000313581
0.020049
-0.000125485
0.0200264
3.77066e-05
0.0200018
0.000119758
0.0199891
0.000140779
0.0199762
0.000161225
0.01995
0.000208344
0.0199146
0.000267383
0.0198746
0.000320809
0.0198375
0.000359602
0.0198126
0.000385676
0.0198019
0.000406022
0.0197971
0.00042511
0.0197844
0.000445994
0.0197504
0.000474476
0.019688
0.000515762
0.0196004
0.000567993
0.0195003
0.000620819
0.0194056
0.00066357
0.0193304
0.000695178
0.019279
0.000724107
0.0192459
0.000758733
0.0192203
0.00079951
0.0191898
0.000841245
0.0191438
0.000881069
0.0190769
0.000921747
0.0189932
0.000967168
0.0189034
0.00101689
0.018818
0.00106657
0.0187392
0.00111254
0.0186613
0.00115489
0.018577
0.00119633
0.0184837
0.00123895
0.0183833
0.00128217
0.0182786
0.00132367
0.0181708
0.00136249
0.0180604
0.00140139
0.0179474
0.00144515
0.0178303
0.00149495
0.0177056
0.00154505
0.0175706
0.0015879
0.0174274
0.00162423
0.0172812
0.0016658
0.0171355
0.0017246
0.0169875
0.0017989
0.0168312
0.00187321
0.0166643
0.00193407
0.0164911
0.0019845
0.0163187
0.00203979
0.0161507
0.00210939
0.0159829
0.00218562
0.0158078
0.00225245
0.0156203
0.00230381
0.0154219
0.00235052
0.015219
0.00240831
0.0150186
0.00248069
0.0148241
0.00255463
0.0146336
0.0026131
0.0144418
0.00265175
0.0142417
0.00268447
0.0140274
0.00273399
0.0137958
0.00281682
0.0135474
0.0029342
0.0132848
0.00307344
0.0130108
0.00321623
0.0127277
0.00334723
0.0124367
0.00345886
0.0121389
0.00355108
0.0118349
0.00362827
0.0115252
0.00369589
0.0112101
0.00375832
0.0108899
0.00381827
0.0105644
0.0038771
0.0102338
0.00393534
0.00989782
0.00399311
0.0095564
0.00405036
0.00920942
0.00410699
0.00885678
0.00416288
0.00849838
0.0042179
0.00813417
0.00427196
0.0077641
0.00432494
0.00738817
0.00437676
0.00700642
0.00442735
0.00661891
0.00447666
0.0062258
0.00452468
0.0058273
0.00457141
0.0054237
0.00461689
0.00501541
0.00466119
0.00460293
0.00470443
0.00418691
0.00474672
0.0037681
0.00478817
0.00334735
0.00482883
0.00292559
0.00486868
0.00250372
0.00490745
0.00208257
0.00494463
0.00166278
0.00497924
0.00124471
0.00501016
0.000828411
0.00503516
0.0004134
0.00505479
0.0050542
0.0202416
0.000183495
0.0200851
3.10101e-05
0.0200835
3.93674e-05
0.0200884
0.000114825
0.020039
0.000190199
0.0199759
0.000224293
0.019945
0.000239302
0.0199405
0.00027186
0.0199301
0.000331246
0.0198935
0.000396162
0.0198365
0.000442629
0.0197776
0.000464951
0.0197301
0.000472593
0.0196971
0.000478977
0.0196729
0.000498767
0.0196448
0.000543812
0.0196009
0.000611849
0.0195377
0.000684039
0.0194613
0.00073995
0.0193811
0.00077538
0.0193023
0.000802998
0.0192254
0.000835633
0.0191517
0.000873158
0.0190853
0.000907679
0.0190283
0.000937997
0.0189761
0.000974026
0.0189174
0.00102584
0.0188432
0.00109112
0.0187537
0.00115601
0.0186584
0.00120782
0.0185678
0.00124548
0.0184857
0.00127848
0.0184076
0.00131706
0.0183256
0.00136414
0.0182341
0.00141518
0.0181323
0.00146429
0.0180237
0.00151004
0.0179131
0.00155573
0.0178032
0.00160483
0.0176914
0.00165688
0.0175701
0.00170918
0.017432
0.00176231
0.0172763
0.0018215
0.0171106
0.0018903
0.0169461
0.00196338
0.01679
0.00202937
0.0166409
0.00208314
0.016492
0.00213336
0.0163373
0.00219455
0.0161755
0.00227112
0.0160095
0.00235161
0.0158411
0.00242086
0.0156681
0.00247685
0.0154854
0.00253319
0.0152897
0.00260402
0.0150829
0.00268749
0.014872
0.00276553
0.0146647
0.00282034
0.0144645
0.00285201
0.0142675
0.00288143
0.014065
0.00293655
0.0138476
0.00303422
0.0136102
0.00317155
0.0133531
0.00333058
0.0130798
0.00348951
0.0127947
0.00363233
0.0125011
0.00375242
0.0122011
0.00385111
0.0118956
0.00393381
0.0115849
0.00400653
0.0112693
0.00407395
0.0109486
0.00413893
0.0106228
0.00420289
0.0102918
0.00426639
0.00995535
0.00432956
0.00961336
0.00439235
0.0092657
0.00445465
0.00891227
0.00451631
0.00855298
0.0045772
0.00818777
0.00463716
0.00781662
0.00469609
0.00743952
0.00475386
0.00705651
0.00481036
0.00666768
0.00486549
0.00627317
0.0049192
0.00587317
0.0049714
0.00546798
0.00502208
0.00505797
0.00507121
0.0046436
0.0051188
0.00422548
0.00516484
0.0038043
0.00520935
0.00338086
0.00525227
0.00295605
0.00529349
0.00253075
0.00533275
0.00210578
0.0053696
0.00168182
0.0054032
0.00125927
0.00543271
0.00083825
0.00545618
0.000418365
0.00547468
0.00547256
0.0203241
0.000254529
0.0201393
0.000215786
0.0200168
0.000161908
0.0199645
0.00016711
0.0199542
0.000200506
0.0199283
0.000250167
0.0198879
0.000279713
0.0198653
0.000294478
0.0198678
0.000328682
0.0198733
0.000390693
0.0198591
0.0004568
0.0198218
0.000502338
0.0197715
0.000522846
0.0197183
0.000532193
0.0196683
0.000548705
0.0196272
0.000584994
0.0195961
0.000642879
0.0195675
0.000712712
0.0195266
0.000780795
0.0194629
0.000839124
0.019378
0.000887878
0.0192842
0.000929416
0.0191944
0.000962926
0.019115
0.000987147
0.0190457
0.00100729
0.0189837
0.00103601
0.0189249
0.00108463
0.0188638
0.00115227
0.0187953
0.00122449
0.0187189
0.00128416
0.0186392
0.00132518
0.0185612
0.00135651
0.018485
0.00139326
0.0184053
0.00144383
0.0183156
0.00150491
0.018212
0.00156786
0.0180941
0.00162796
0.0179634
0.00168645
0.0178234
0.00174485
0.0176799
0.00180039
0.0175392
0.00184988
0.0174042
0.00189722
0.0172727
0.00195304
0.0171394
0.00202365
0.0170012
0.00210158
0.0168591
0.00217146
0.016715
0.00222725
0.0165672
0.00228112
0.0164104
0.00235132
0.0162406
0.00244096
0.0160599
0.00253229
0.015876
0.00260475
0.0156952
0.00265772
0.0155158
0.00271257
0.0153293
0.00279052
0.0151277