/*--------------------------------*- C++ -*----------------------------------*\
| =========                 |                                                 |
| \\      /  F ield         | OpenFOAM: The Open Source CFD Toolbox           |
|  \\    /   O peration     | Version:  4.1                                   |
|   \\  /    A nd           | Web:      www.OpenFOAM.org                      |
|    \\/     M anipulation  |                                                 |
\*---------------------------------------------------------------------------*/
FoamFile
{
    version     2.0;
    format      ascii;
    class       volScalarField;
    location    "0.151";
    object      pMean;
}
// * * * * * * * * * * * * * * * * * * * * * * * * * * * * * * * * * * * * * //

dimensions      [0 2 -2 0 0 0 0];

internalField   nonuniform List<scalar> 
43750
(
248.395
246.742
246.574
245.848
245.238
244.675
244.123
243.581
243.054
242.545
242.053
241.58
241.123
240.683
240.259
239.853
239.463
239.089
238.733
238.394
238.07
237.763
237.473
237.2
236.943
236.703
236.481
236.274
236.084
235.911
235.754
235.613
235.49
235.382
235.291
235.217
235.158
235.116
235.09
235.08
235.087
235.11
235.149
235.203
235.273
235.359
235.459
235.575
235.705
235.85
236.009
236.182
236.369
236.57
236.783
237.009
237.246
237.494
237.753
238.022
238.304
238.597
238.901
239.215
239.537
239.867
240.203
240.546
240.893
241.244
241.599
241.956
242.316
242.675
243.034
243.393
243.748
244.1
244.449
244.791
245.127
245.456
245.777
246.087
246.387
246.676
246.952
247.216
247.465
247.699
247.916
248.117
248.3
248.463
248.606
248.727
248.825
248.9
248.95
248.975
248.307
246.717
246.56
245.827
245.21
244.646
244.095
243.554
243.028
242.518
242.027
241.553
241.096
240.656
240.232
239.826
239.436
239.062
238.705
238.365
238.042
237.735
237.445
237.171
236.915
236.675
236.45
236.244
236.053
235.879
235.722
235.581
235.456
235.348
235.257
235.181
235.122
235.08
235.054
235.044
235.05
235.072
235.109
235.163
235.232
235.317
235.416
235.531
235.661
235.805
235.963
236.135
236.321
236.522
236.734
236.959
237.196
237.445
237.705
237.975
238.258
238.551
238.855
239.169
239.491
239.82
240.156
240.499
240.845
241.197
241.552
241.91
242.269
242.629
242.989
243.348
243.705
244.059
244.408
244.752
245.091
245.421
245.744
246.057
246.36
246.651
246.93
247.196
247.448
247.685
247.905
248.109
248.294
248.459
248.603
248.726
248.825
248.9
248.952
248.977
248.355
246.709
246.532
245.8
245.187
244.623
244.07
243.527
242.999
242.489
241.997
241.523
241.065
240.624
240.2
239.792
239.402
239.028
238.671
238.33
238.005
237.698
237.407
237.133
236.876
236.634
236.41
236.202
236.011
235.836
235.677
235.536
235.41
235.301
235.209
235.132
235.072
235.027
235
234.989
234.993
235.014
235.05
235.102
235.17
235.253
235.351
235.464
235.591
235.734
235.89
236.061
236.245
236.443
236.654
236.877
237.113
237.36
237.62
237.89
238.171
238.464
238.766
239.077
239.397
239.724
240.059
240.399
240.744
241.094
241.447
241.803
242.162
242.52
242.88
243.238
243.595
243.948
244.298
244.642
244.981
245.313
245.636
245.951
246.255
246.549
246.83
247.099
247.352
247.591
247.813
248.018
248.205
248.371
248.517
248.641
248.741
248.817
248.868
248.894
248.131
246.584
246.451
245.73
245.116
244.553
244.004
243.464
242.939
242.43
241.939
241.464
241.006
240.565
240.141
239.733
239.341
238.967
238.609
238.267
237.943
237.635
237.343
237.068
236.809
236.567
236.342
236.133
235.94
235.764
235.605
235.462
235.335
235.225
235.131
235.053
234.992
234.946
234.917
234.904
234.907
234.926
234.961
235.011
235.077
235.158
235.254
235.365
235.492
235.631
235.786
235.955
236.137
236.333
236.543
236.765
236.999
237.245
237.502
237.771
238.051
238.341
238.642
238.951
239.269
239.594
239.927
240.265
240.609
240.956
241.308
241.663
242.02
242.377
242.736
243.093
243.449
243.802
244.15
244.495
244.834
245.166
245.49
245.805
246.11
246.404
246.686
246.955
247.21
247.45
247.673
247.879
248.066
248.234
248.38
248.504
248.605
248.681
248.733
248.759
248.216
246.57
246.4
245.676
245.065
244.5
243.946
243.402
242.874
242.363
241.87
241.394
240.936
240.494
240.069
239.66
239.267
238.892
238.533
238.191
237.865
237.556
237.263
236.986
236.727
236.484
236.257
236.046
235.852
235.675
235.514
235.369
235.24
235.128
235.033
234.953
234.889
234.843
234.811
234.796
234.796
234.813
234.846
234.894
234.957
235.036
235.13
235.239
235.362
235.5
235.652
235.818
235.998
236.192
236.399
236.618
236.85
237.093
237.349
237.616
237.893
238.181
238.479
238.786
239.1
239.423
239.753
240.089
240.43
240.775
241.125
241.478
241.832
242.189
242.545
242.901
243.255
243.607
243.955
244.299
244.636
244.967
245.291
245.605
245.91
246.204
246.485
246.754
247.008
247.246
247.469
247.674
247.86
248.026
248.172
248.294
248.395
248.47
248.522
248.547
248.1
246.462
246.295
245.571
244.961
244.399
243.848
243.306
242.779
242.269
241.777
241.302
240.843
240.401
239.974
239.565
239.172
238.795
238.435
238.092
237.764
237.454
237.159
236.882
236.621
236.376
236.147
235.935
235.739
235.559
235.396
235.249
235.119
235.004
234.907
234.825
234.759
234.71
234.676
234.658
234.657
234.67
234.7
234.745
234.806
234.882
234.972
235.079
235.199
235.334
235.484
235.647
235.824
236.014
236.218
236.435
236.664
236.905
237.157
237.421
237.696
237.981
238.275
238.579
238.891
239.211
239.538
239.87
240.209
240.551
240.898
241.248
241.601
241.955
242.31
242.663
243.016
243.366
243.713
244.055
244.392
244.722
245.044
245.358
245.661
245.954
246.234
246.502
246.755
246.992
247.213
247.416
247.601
247.765
247.909
248.03
248.129
248.204
248.254
248.279
247.905
246.348
246.205
245.476
244.863
244.301
243.749
243.206
242.677
242.165
241.672
241.195
240.735
240.291
239.864
239.453
239.059
238.681
238.32
237.974
237.646
237.333
237.037
236.758
236.495
236.248
236.018
235.803
235.605
235.423
235.258
235.109
234.975
234.859
234.758
234.673
234.605
234.552
234.516
234.495
234.49
234.501
234.528
234.569
234.626
234.699
234.786
234.889
235.006
235.137
235.283
235.443
235.616
235.803
236.003
236.216
236.441
236.678
236.928
237.188
237.459
237.74
238.031
238.331
238.639
238.955
239.278
239.607
239.943
240.283
240.626
240.973
241.323
241.674
242.027
242.378
242.729
243.077
243.422
243.762
244.098
244.426
244.747
245.06
245.362
245.653
245.932
246.198
246.449
246.685
246.904
247.105
247.287
247.45
247.592
247.711
247.808
247.881
247.931
247.956
247.87
246.239
246.077
245.348
244.735
244.171
243.62
243.078
242.55
242.039
241.545
241.067
240.606
240.162
239.734
239.321
238.926
238.547
238.184
237.837
237.506
237.193
236.895
236.613
236.347
236.098
235.865
235.649
235.448
235.264
235.096
234.944
234.807
234.688
234.584
234.496
234.424
234.368
234.329
234.305
234.296
234.303
234.326
234.364
234.417
234.486
234.569
234.667
234.781
234.908
235.05
235.205
235.374
235.557
235.752
235.961
236.182
236.415
236.659
236.915
237.182
237.46
237.746
238.042
238.346
238.658
238.976
239.301
239.632
239.968
240.308
240.652
240.998
241.347
241.696
242.045
242.392
242.738
243.081
243.419
243.753
244.079
244.399
244.709
245.009
245.299
245.576
245.84
246.09
246.324
246.541
246.74
246.92
247.08
247.219
247.337
247.433
247.504
247.553
247.577
247.733
246.097
245.939
245.217
244.606
244.039
243.485
242.94
242.409
241.897
241.402
240.924
240.462
240.016
239.586
239.173
238.775
238.394
238.029
237.681
237.348
237.032
236.732
236.448
236.18
235.928
235.693
235.473
235.27
235.082
234.911
234.755
234.616
234.493
234.386
234.294
234.218
234.159
234.115
234.087
234.074
234.077
234.095
234.129
234.178
234.241
234.32
234.414
234.522
234.645
234.782
234.933
235.097
235.274
235.465
235.669
235.885
236.113
236.353
236.604
236.866
237.138
237.419
237.71
238.009
238.316
238.63
238.95
239.277
239.608
239.944
240.284
240.626
240.971
241.315
241.662
242.006
242.348
242.689
243.024
243.355
243.679
243.997
244.305
244.604
244.891
245.166
245.429
245.676
245.908
246.123
246.32
246.498
246.656
246.793
246.909
247.002
247.073
247.121
247.144
247.578
245.943
245.776
245.047
244.436
243.875
243.323
242.78
242.25
241.737
241.241
240.761
240.298
239.85
239.419
239.004
238.605
238.222
237.855
237.504
237.17
236.851
236.548
236.262
235.991
235.736
235.498
235.275
235.068
234.877
234.703
234.544
234.401
234.274
234.163
234.067
233.988
233.924
233.875
233.842
233.825
233.823
233.837
233.865
233.909
233.968
234.041
234.13
234.233
234.35
234.482
234.627
234.785
234.957
235.143
235.341
235.551
235.773
236.008
236.253
236.509
236.776
237.052
237.336
237.63
237.931
238.24
238.555
238.876
239.202
239.533
239.868
240.206
240.545
240.886
241.228
241.569
241.908
242.245
242.577
242.905
243.226
243.541
243.847
244.143
244.428
244.701
244.961
245.207
245.436
245.649
245.844
246.02
246.176
246.311
246.426
246.518
246.587
246.634
246.657
247.368
245.761
245.61
244.888
244.276
243.709
243.153
242.607
242.075
241.561
241.063
240.583
240.118
239.669
239.236
238.819
238.418
238.032
237.663
237.31
236.973
236.651
236.346
236.056
235.782
235.524
235.282
235.056
234.846
234.651
234.473
234.31
234.163
234.031
233.916
233.816
233.731
233.663
233.609
233.571
233.549
233.542
233.55
233.573
233.612
233.664
233.732
233.815
233.912
234.023
234.148
234.287
234.439
234.605
234.784
234.976
235.18
235.396
235.624
235.863
236.113
236.373
236.642
236.921
237.208
237.503
237.805
238.114
238.429
238.75
239.075
239.404
239.736
240.071
240.408
240.744
241.081
241.416
241.748
242.077
242.401
242.719
243.03
243.333
243.626
243.909
244.179
244.437
244.68
244.907
245.118
245.31
245.485
245.639
245.773
245.886
245.977
246.045
246.091
246.114
247.17
245.569
245.406
244.68
244.072
243.511
242.959
242.415
241.884
241.368
240.869
240.386
239.92
239.469
239.035
238.615
238.212
237.824
237.453
237.096
236.757
236.432
236.123
235.831
235.554
235.292
235.046
234.817
234.602
234.404
234.22
234.053
233.902
233.766
233.646
233.54
233.451
233.376
233.318
233.275
233.247
233.233
233.236
233.253
233.285
233.332
233.393
233.469
233.559
233.664
233.782
233.914
234.06
234.218
234.391
234.575
234.772
234.981
235.202
235.434
235.676
235.929
236.192
236.463
236.743
237.031
237.326
237.628
237.937
238.25
238.569
238.892
239.219
239.548
239.878
240.21
240.541
240.871
241.199
241.523
241.843
242.157
242.464
242.764
243.053
243.333
243.601
243.855
244.095
244.321
244.529
244.72
244.892
245.044
245.177
245.288
245.378
245.445
245.49
245.513
246.971
245.382
245.228
244.499
243.882
243.314
242.757
242.208
241.675
241.158
240.659
240.175
239.706
239.254
238.817
238.395
237.989
237.599
237.225
236.866
236.523
236.195
235.883
235.587
235.306
235.04
234.791
234.557
234.338
234.135
233.947
233.775
233.618
233.478
233.351
233.241
233.146
233.066
233.002
232.952
232.918
232.899
232.894
232.904
232.93
232.97
233.024
233.093
233.176
233.273
233.384
233.508
233.646
233.797
233.961
234.138
234.327
234.528
234.741
234.965
235.2
235.445
235.699
235.963
236.235
236.515
236.802
237.097
237.398
237.704
238.016
238.332
238.651
238.974
239.298
239.623
239.949
240.273
240.595
240.914
241.23
241.539
241.842
242.137
242.423
242.699
242.963
243.215
243.452
243.675
243.88
244.068
244.239
244.39
244.521
244.63
244.719
244.786
244.83
244.853
246.77
245.15
244.983
244.255
243.645
243.084
242.533
241.986
241.452
240.933
240.431
239.945
239.475
239.021
238.581
238.157
237.749
237.356
236.978
236.617
236.27
235.939
235.624
235.323
235.038
234.769
234.515
234.276
234.053
233.845
233.653
233.476
233.313
233.167
233.036
232.919
232.818
232.732
232.661
232.605
232.563
232.537
232.526
232.529
232.547
232.579
232.626
232.687
232.762
232.851
232.954
233.07
233.2
233.342
233.498
233.666
233.846
234.038
234.242
234.457
234.683
234.919
235.165
235.419
235.683
235.954
236.234
236.52
236.812
237.111
237.414
237.722
238.035
238.349
238.666
238.985
239.303
239.621
239.937
240.251
240.56
240.864
241.162
241.453
241.734
242.005
242.266
242.514
242.748
242.968
243.171
243.356
243.524
243.674
243.802
243.912
243.999
244.065
244.109
244.131
246.543
244.926
244.772
244.044
243.427
242.856
242.296
241.745
241.209
240.69
240.187
239.699
239.227
238.77
238.328
237.902
237.491
237.094
236.714
236.349
235.999
235.664
235.345
235.041
234.751
234.478
234.219
233.976
233.748
233.534
233.337
233.154
232.986
232.833
232.696
232.573
232.466
232.373
232.295
232.232
232.184
232.15
232.131
232.127
232.136
232.161
232.199
232.252
232.318
232.398
232.492
232.599
232.72
232.853
232.999
233.158
233.329
233.511
233.705
233.911
234.127
234.353
234.589
234.835
235.088
235.35
235.62
235.897
236.18
236.47
236.765
237.064
237.367
237.674
237.983
238.293
238.604
238.915
239.224
239.53
239.833
240.131
240.424
240.709
240.986
241.252
241.508
241.752
241.982
242.198
242.398
242.581
242.747
242.894
243.021
243.128
243.215
243.28
243.323
243.345
246.244
244.649
244.499
243.771
243.157
242.593
242.038
241.489
240.952
240.431
239.925
239.435
238.961
238.501
238.057
237.628
237.214
236.815
236.431
236.063
235.709
235.37
235.047
234.738
234.444
234.166
233.903
233.654
233.421
233.202
232.999
232.81
232.636
232.478
232.333
232.204
232.09
231.99
231.905
231.834
231.779
231.737
231.71
231.697
231.699
231.714
231.744
231.787
231.845
231.915
232
232.097
232.208
232.331
232.467
232.615
232.776
232.948
233.131
233.325
233.531
233.747
233.972
234.207
234.45
234.702
234.962
235.228
235.501
235.78
236.065
236.355
236.649
236.946
237.246
237.548
237.85
238.152
238.454
238.753
239.049
239.34
239.625
239.904
240.175
240.437
240.687
240.926
241.152
241.364
241.561
241.741
241.904
242.048
242.174
242.279
242.365
242.429
242.472
242.494
246.007
244.4
244.248
243.522
242.905
242.332
241.77
241.217
240.679
240.155
239.648
239.156
238.679
238.217
237.77
237.338
236.92
236.518
236.131
235.758
235.4
235.058
234.73
234.417
234.118
233.835
233.566
233.312
233.073
232.848
232.639
232.444
232.264
232.098
231.947
231.811
231.689
231.582
231.489
231.41
231.346
231.296
231.261
231.239
231.232
231.239
231.259
231.293
231.34
231.401
231.475
231.562
231.663
231.775
231.901
232.037
232.187
232.348
232.52
232.703
232.897
233.101
233.314
233.537
233.769
234.009
234.258
234.512
234.775
235.043
235.317
235.596
235.879
236.166
236.456
236.748
237.041
237.334
237.626
237.917
238.204
238.488
238.766
239.038
239.301
239.557
239.802
240.036
240.257
240.465
240.657
240.834
240.994
241.135
241.259
241.362
241.446
241.509
241.551
241.572
245.75
244.121
243.96
243.231
242.612
242.042
241.483
240.93
240.389
239.864
239.354
238.86
238.381
237.916
237.466
237.03
236.61
236.204
235.813
235.436
235.074
234.727
234.395
234.077
233.774
233.485
233.211
232.951
232.706
232.476
232.259
232.058
231.87
231.698
231.54
231.395
231.265
231.15
231.049
230.962
230.889
230.83
230.785
230.754
230.737
230.734
230.744
230.768
230.805
230.855
230.919
230.995
231.084
231.185
231.299
231.425
231.562
231.711
231.871
232.042
232.223
232.414
232.616
232.826
233.045
233.273
233.508
233.75
234.001
234.256
234.519
234.786
235.057
235.333
235.611
235.893
236.175
236.458
236.74
237.02
237.299
237.574
237.843
238.107
238.363
238.612
238.851
239.078
239.293
239.496
239.684
239.856
240.013
240.151
240.271
240.373
240.455
240.517
240.558
240.579
245.456
243.841
243.68
242.944
242.322
241.748
241.183
240.627
240.084
239.557
239.045
238.549
238.066
237.599
237.145
236.707
236.282
235.873
235.477
235.097
234.731
234.379
234.041
233.718
233.409
233.115
232.835
232.57
232.318
232.081
231.858
231.65
231.455
231.275
231.109
230.957
230.819
230.695
230.585
230.489
230.407
230.339
230.284
230.243
230.216
230.203
230.202
230.215
230.241
230.28
230.331
230.396
230.473
230.562
230.663
230.776
230.901
231.037
231.184
231.342
231.51
231.687
231.875
232.072
232.277
232.491
232.713
232.943
233.179
233.421
233.67
233.924
234.183
234.446
234.712
234.981
235.251
235.523
235.794
236.064
236.331
236.596
236.856
237.111
237.359
237.599
237.83
238.05
238.26
238.456
238.639
238.807
238.958
239.094
239.21
239.309
239.389
239.45
239.49
239.51
245.13
243.518
243.358
242.624
242.001
241.428
240.865
240.309
239.764
239.235
238.72
238.222
237.736
237.266
236.81
236.367
235.939
235.526
235.127
234.741
234.37
234.013
233.67
233.342
233.028
232.727
232.442
232.169
231.911
231.667
231.437
231.221
231.019
230.831
230.657
230.496
230.35
230.217
230.097
229.992
229.9
229.822
229.757
229.706
229.668
229.643
229.631
229.632
229.647
229.674
229.713
229.765
229.829
229.906
229.994
230.094
230.204
230.327
230.46
230.603
230.757
230.92
231.094
231.276
231.467
231.666
231.872
232.087
232.308
232.537
232.771
233.011
233.256
233.505
233.757
234.012
234.269
234.527
234.786
235.044
235.3
235.553
235.803
236.047
236.285
236.516
236.739
236.951
237.153
237.342
237.519
237.681
237.828
237.958
238.072
238.167
238.245
238.304
238.343
238.363
244.836
243.209
243.04
242.304
241.681
241.104
240.536
239.975
239.428
238.897
238.38
237.878
237.39
236.917
236.457
236.011
235.579
235.161
234.758
234.368
233.992
233.631
233.283
232.949
232.628
232.322
232.03
231.751
231.486
231.235
230.997
230.774
230.563
230.367
230.184
230.014
229.859
229.716
229.587
229.472
229.37
229.281
229.205
229.143
229.093
229.056
229.032
229.022
229.023
229.038
229.064
229.103
229.153
229.216
229.29
229.375
229.473
229.58
229.698
229.827
229.965
230.114
230.271
230.438
230.612
230.795
230.986
231.185
231.39
231.602
231.821
232.045
232.274
232.507
232.745
232.985
233.228
233.472
233.716
233.96
234.203
234.444
234.681
234.913
235.14
235.361
235.573
235.776
235.969
236.151
236.32
236.476
236.617
236.742
236.852
236.944
237.019
237.075
237.113
237.132
244.544
242.869
242.69
241.952
241.328
240.751
240.185
239.624
239.076
238.542
238.023
237.518
237.028
236.55
236.087
235.638
235.202
234.78
234.372
233.977
233.596
233.229
232.876
232.536
232.209
231.897
231.598
231.312
231.04
230.781
230.536
230.304
230.086
229.881
229.689
229.51
229.345
229.193
229.055
228.929
228.816
228.715
228.629
228.554
228.493
228.444
228.408
228.384
228.372
228.373
228.385
228.409
228.446
228.494
228.553
228.623
228.704
228.797
228.899
229.012
229.134
229.266
229.407
229.557
229.715
229.881
230.054
230.235
230.423
230.618
230.819
231.026
231.238
231.455
231.675
231.899
232.125
232.353
232.582
232.811
233.039
233.265
233.489
233.707
233.922
234.13
234.331
234.524
234.707
234.879
235.039
235.188
235.322
235.441
235.545
235.633
235.705
235.758
235.794
235.812
244.071
242.488
242.335
241.601
240.976
240.397
239.827
239.264
238.713
238.176
237.654
237.147
236.653
236.173
235.706
235.252
234.812
234.385
233.972
233.572
233.187
232.814
232.454
232.108
231.775
231.455
231.149
230.856
230.577
230.31
230.057
229.816
229.589
229.375
229.174
228.985
228.81
228.647
228.498
228.361
228.237
228.126
228.027
227.941
227.866
227.805
227.755
227.718
227.693
227.679
227.677
227.687
227.708
227.74
227.784
227.838
227.903
227.978
228.064
228.159
228.264
228.379
228.502
228.634
228.773
228.921
229.076
229.238
229.407
229.583
229.766
229.954
230.147
230.345
230.547
230.753
230.961
231.171
231.383
231.595
231.805
232.016
232.223
232.427
232.627
232.822
233.009
233.189
233.361
233.522
233.673
233.812
233.938
234.051
234.149
234.231
234.298
234.349
234.383
234.4
243.725
242.125
241.956
241.215
240.592
240.018
239.449
238.885
238.332
237.793
237.269
236.759
236.262
235.778
235.308
234.85
234.406
233.974
233.556
233.152
232.76
232.382
232.016
231.664
231.324
230.997
230.684
230.384
230.096
229.821
229.56
229.31
229.074
228.85
228.639
228.441
228.255
228.082
227.921
227.773
227.636
227.512
227.402
227.302
227.214
227.14
227.076
227.025
226.985
226.956
226.939
226.933
226.939
226.955
226.982
227.018
227.066
227.124
227.191
227.269
227.356
227.451
227.556
227.668
227.788
227.916
228.051
228.194
228.342
228.498
228.66
228.828
229
229.178
229.36
229.545
229.733
229.924
230.116
230.309
230.502
230.693
230.883
231.07
231.253
231.431
231.604
231.77
231.927
232.077
232.216
232.344
232.461
232.565
232.656
232.732
232.795
232.842
232.873
232.889
243.365
241.736
241.572
240.84
240.216
239.633
239.059
238.493
237.938
237.397
236.87
236.356
235.856
235.368
234.893
234.432
233.983
233.547
233.124
232.714
232.317
231.932
231.561
231.202
230.856
230.522
230.201
229.893
229.597
229.314
229.043
228.785
228.539
228.306
228.085
227.876
227.68
227.495
227.323
227.163
227.015
226.878
226.754
226.641
226.54
226.45
226.372
226.305
226.25
226.206
226.173
226.15
226.139
226.138
226.147
226.166
226.196
226.235
226.283
226.342
226.409
226.485
226.568
226.66
226.76
226.866
226.98
227.101
227.228
227.362
227.501
227.647
227.797
227.953
228.112
228.276
228.441
228.61
228.781
228.953
229.124
229.295
229.465
229.632
229.796
229.957
230.112
230.261
230.403
230.538
230.663
230.779
230.885
230.978
231.06
231.13
231.186
231.228
231.257
231.271
243.02
241.355
241.171
240.434
239.811
239.232
238.659
238.09
237.532
236.988
236.458
235.942
235.438
234.946
234.467
234.001
233.548
233.107
232.678
232.262
231.859
231.469
231.09
230.724
230.37
230.029
229.7
229.384
229.08
228.788
228.508
228.24
227.985
227.741
227.51
227.29
227.083
226.887
226.703
226.53
226.369
226.22
226.082
225.956
225.841
225.737
225.644
225.561
225.49
225.429
225.379
225.339
225.31
225.291
225.282
225.283
225.293
225.312
225.34
225.378
225.424
225.478
225.541
225.611
225.688
225.772
225.863
225.961
226.064
226.174
226.29
226.411
226.538
226.668
226.804
226.942
227.084
227.229
227.375
227.523
227.671
227.819
227.966
228.112
228.254
228.393
228.529
228.658
228.783
228.9
229.009
229.111
229.203
229.285
229.356
229.417
229.466
229.503
229.528
229.54
242.496
240.914
240.763
240.027
239.398
238.814
238.239
237.671
237.111
236.566
236.033
235.513
235.006
234.51
234.027
233.557
233.098
232.653
232.219
231.797
231.388
230.991
230.605
230.233
229.872
229.522
229.185
228.86
228.548
228.246
227.957
227.679
227.413
227.159
226.917
226.686
226.467
226.259
226.062
225.876
225.702
225.54
225.388
225.247
225.117
224.998
224.889
224.791
224.703
224.626
224.558
224.5
224.453
224.414
224.386
224.367
224.356
224.355
224.362
224.378
224.402
224.435
224.474
224.52
224.574
224.633
224.699
224.772
224.851
224.935
225.025
225.12
225.22
225.325
225.434
225.546
225.66
225.778
225.898
226.019
226.14
226.263
226.384
226.504
226.622
226.738
226.85
226.958
227.06
227.157
227.248
227.332
227.408
227.476
227.535
227.585
227.626
227.657
227.677
227.688
242.12
240.503
240.336
239.595
238.969
238.389
237.814
237.242
236.679
236.13
235.595
235.072
234.56
234.061
233.574
233.098
232.635
232.184
231.745
231.317
230.902
230.498
230.106
229.725
229.357
229
228.655
228.322
227.999
227.688
227.39
227.102
226.825
226.56
226.306
226.064
225.832
225.612
225.402
225.203
225.015
224.838
224.672
224.516
224.37
224.235
224.111
223.995
223.89
223.795
223.709
223.633
223.566
223.509
223.46
223.42
223.389
223.365
223.35
223.344
223.344
223.352
223.367
223.389
223.417
223.451
223.491
223.537
223.588
223.645
223.707
223.774
223.845
223.921
224
224.083
224.169
224.257
224.347
224.438
224.531
224.623
224.716
224.807
224.897
224.985
225.071
225.152
225.231
225.304
225.373
225.436
225.494
225.545
225.589
225.626
225.657
225.68
225.695
225.702
241.624
240.045
239.893
239.158
238.53
237.945
237.367
236.794
236.23
235.679
235.14
234.613
234.099
233.596
233.105
232.624
232.156
231.7
231.255
230.821
230.4
229.989
229.59
229.203
228.827
228.461
228.108
227.766
227.434
227.115
226.806
226.507
226.22
225.944
225.678
225.424
225.18
224.946
224.723
224.511
224.309
224.117
223.935
223.764
223.602
223.45
223.308
223.176
223.053
222.939
222.834
222.739
222.652
222.573
222.504
222.443
222.389
222.343
222.305
222.274
222.25
222.233
222.222
222.218
222.218
222.225
222.237
222.255
222.277
222.304
222.336
222.372
222.413
222.457
222.505
222.555
222.609
222.664
222.721
222.78
222.839
222.899
222.958
223.017
223.075
223.131
223.186
223.238
223.287
223.334
223.376
223.415
223.45
223.481
223.507
223.529
223.547
223.561
223.569
223.574
241.242
239.605
239.448
238.712
238.08
237.495
236.916
236.34
235.774
235.219
234.677
234.147
233.628
233.121
232.624
232.139
231.666
231.204
230.753
230.313
229.885
229.468
229.061
228.666
228.281
227.908
227.546
227.194
226.853
226.523
226.204
225.896
225.597
225.31
225.032
224.766
224.509
224.262
224.025
223.799
223.582
223.375
223.178
222.991
222.812
222.643
222.484
222.333
222.192
222.059
221.934
221.818
221.71
221.611
221.519
221.435
221.358
221.288
221.226
221.17
221.121
221.077
221.039
221.007
220.979
220.956
220.939
220.925
220.917
220.912
220.912
220.915
220.922
220.932
220.945
220.961
220.978
220.997
221.018
221.04
221.063
221.085
221.108
221.13
221.152
221.172
221.191
221.208
221.224
221.238
221.25
221.259
221.268
221.274
221.279
221.283
221.286
221.287
221.288
221.289
240.804
239.164
238.988
238.251
237.623
237.035
236.451
235.872
235.302
234.745
234.2
233.666
233.143
232.632
232.131
231.641
231.163
230.695
230.238
229.792
229.356
228.932
228.519
228.115
227.723
227.342
226.97
226.609
226.259
225.919
225.589
225.27
224.96
224.66
224.37
224.091
223.821
223.561
223.31
223.069
222.838
222.615
222.402
222.197
222.002
221.816
221.638
221.469
221.308
221.155
221.01
220.873
220.743
220.621
220.506
220.398
220.297
220.203
220.115
220.032
219.956
219.885
219.819
219.757
219.699
219.646
219.596
219.551
219.508
219.47
219.435
219.402
219.373
219.346
219.321
219.299
219.277
219.257
219.237
219.219
219.2
219.181
219.162
219.143
219.122
219.101
219.079
219.056
219.032
219.008
218.984
218.959
218.935
218.913
218.892
218.872
218.857
218.844
218.835
218.831
240.255
238.665
238.509
237.771
237.14
236.551
235.97
235.389
234.818
234.257
233.709
233.172
232.645
232.129
231.623
231.129
230.644
230.171
229.708
229.255
228.813
228.382
227.961
227.55
227.149
226.759
226.379
226.008
225.648
225.298
224.958
224.627
224.306
223.994
223.692
223.4
223.117
222.843
222.578
222.322
222.075
221.836
221.607
221.386
221.173
220.968
220.772
220.583
220.402
220.228
220.062
219.902
219.751
219.606
219.467
219.334
219.208
219.087
218.972
218.862
218.757
218.657
218.561
218.469
218.379
218.294
218.21
218.13
218.052
217.978
217.905
217.835
217.767
217.699
217.634
217.569
217.505
217.441
217.377
217.313
217.249
217.184
217.118
217.05
216.983
216.914
216.845
216.775
216.705
216.636
216.569
216.503
216.441
216.382
216.33
216.283
216.244
216.214
216.194
216.183
239.796
238.205
238.042
237.297
236.663
236.072
235.486
234.902
234.327
233.763
233.21
232.669
232.138
231.617
231.107
230.607
230.117
229.637
229.168
228.709
228.259
227.82
227.391
226.972
226.563
226.163
225.774
225.393
225.023
224.662
224.31
223.969
223.636
223.312
222.997
222.692
222.395
222.107
221.828
221.557
221.294
221.039
220.793
220.554
220.323
220.1
219.885
219.676
219.475
219.28
219.092
218.91
218.735
218.565
218.402
218.243
218.09
217.942
217.799
217.661
217.526
217.395
217.268
217.143
217.021
216.9
216.782
216.665
216.55
216.436
216.324
216.213
216.102
215.992
215.882
215.772
215.661
215.55
215.437
215.322
215.207
215.09
214.971
214.851
214.729
214.605
214.481
214.357
214.234
214.112
213.993
213.879
213.769
213.668
213.577
213.497
213.43
213.378
213.342
213.324
239.324
237.701
237.541
236.802
236.167
235.573
234.984
234.399
233.821
233.255
232.699
232.154
231.619
231.094
230.579
230.074
229.578
229.093
228.617
228.151
227.694
227.248
226.81
226.383
225.964
225.556
225.156
224.766
224.385
224.013
223.65
223.297
222.951
222.615
222.287
221.968
221.657
221.354
221.06
220.773
220.494
220.223
219.959
219.703
219.455
219.212
218.977
218.748
218.526
218.309
218.099
217.895
217.695
217.501
217.312
217.127
216.947
216.77
216.598
216.429
216.264
216.101
215.94
215.782
215.624
215.467
215.311
215.156
215.001
214.846
214.691
214.536
214.381
214.224
214.066
213.907
213.745
213.581
213.415
213.246
213.073
212.898
212.72
212.539
212.356
212.17
211.983
211.796
211.609
211.425
211.245
211.071
210.906
210.752
210.613
210.491
210.389
210.31
210.256
210.228
238.814
237.216
237.052
236.304
235.663
235.067
234.476
233.888
233.306
232.736
232.176
231.626
231.087
230.558
230.037
229.527
229.026
228.534
228.052
227.579
227.116
226.662
226.217
225.781
225.354
224.936
224.528
224.127
223.736
223.353
222.978
222.613
222.255
221.906
221.564
221.231
220.905
220.588
220.277
219.974
219.679
219.39
219.109
218.835
218.567
218.305
218.049
217.799
217.556
217.317
217.084
216.856
216.632
216.413
216.198
215.986
215.778
215.572
215.369
215.169
214.971
214.775
214.579
214.385
214.191
213.996
213.8
213.604
213.408
213.209
213.009
212.808
212.604
212.397
212.187
211.975
211.758
211.537
211.311
211.081
210.846
210.606
210.361
210.112
209.858
209.601
209.341
209.08
208.82
208.563
208.309
208.065
207.832
207.615
207.416
207.242
207.096
206.983
206.904
206.865
238.345
236.718
236.538
235.788
235.148
234.549
233.954
233.362
232.778
232.204
231.642
231.089
230.545
230.01
229.485
228.969
228.461
227.964
227.475
226.995
226.524
226.062
225.609
225.165
224.729
224.303
223.884
223.474
223.071
222.677
222.291
221.914
221.544
221.182
220.827
220.479
220.139
219.806
219.48
219.161
218.849
218.543
218.243
217.95
217.662
217.381
217.104
216.833
216.567
216.305
216.049
215.796
215.547
215.301
215.059
214.819
214.582
214.347
214.114
213.881
213.65
213.419
213.187
212.956
212.723
212.488
212.251
212.012
211.77
211.526
211.278
211.027
210.771
210.511
210.246
209.976
209.699
209.415
209.126
208.829
208.524
208.212
207.893
207.566
207.233
206.895
206.551
206.205
205.858
205.513
205.173
204.843
204.527
204.231
203.959
203.721
203.519
203.361
203.254
203.197
237.914
236.223
236.027
235.274
234.628
234.025
233.427
232.832
232.244
231.667
231.1
230.542
229.995
229.455
228.924
228.403
227.89
227.386
226.89
226.403
225.925
225.455
224.994
224.54
224.095
223.658
223.229
222.809
222.396
221.99
221.593
221.202
220.819
220.444
220.075
219.714
219.359
219.011
218.669
218.333
218.004
217.68
217.362
217.049
216.742
216.44
216.142
215.849
215.56
215.275
214.994
214.716
214.441
214.168
213.899
213.63
213.363
213.097
212.831
212.566
212.3
212.034
211.765
211.495
211.221
210.945
210.665
210.381
210.092
209.799
209.5
209.196
208.886
208.569
208.244
207.911
207.57
207.22
206.859
206.489
206.108
205.716
205.313
204.9
204.477
204.045
203.605
203.16
202.711
202.263
201.819
201.386
200.969
200.575