/*--------------------------------*- C++ -*----------------------------------*\
| =========                 |                                                 |
| \\      /  F ield         | OpenFOAM: The Open Source CFD Toolbox           |
|  \\    /   O peration     | Version:  4.1                                   |
|   \\  /    A nd           | Web:      www.OpenFOAM.org                      |
|    \\/     M anipulation  |                                                 |
\*---------------------------------------------------------------------------*/
FoamFile
{
    version     2.0;
    format      ascii;
    class       volScalarField;
    location    "0.151";
    object      pPrime2Mean;
}
// * * * * * * * * * * * * * * * * * * * * * * * * * * * * * * * * * * * * * //

dimensions      [0 4 -4 0 0 0 0];

internalField   nonuniform List<scalar> 
43750
(
2.41697e+09
2.39992e+09
2.38212e+09
2.36445e+09
2.34692e+09
2.32953e+09
2.31227e+09
2.29516e+09
2.27818e+09
2.26134e+09
2.24465e+09
2.2281e+09
2.21167e+09
2.1954e+09
2.17926e+09
2.16326e+09
2.1474e+09
2.13168e+09
2.1161e+09
2.10065e+09
2.08534e+09
2.07017e+09
2.05514e+09
2.04025e+09
2.02549e+09
2.01088e+09
1.9964e+09
1.98206e+09
1.96786e+09
1.95381e+09
1.93988e+09
1.92611e+09
1.91248e+09
1.89898e+09
1.88563e+09
1.87242e+09
1.85936e+09
1.84644e+09
1.83367e+09
1.82104e+09
1.80856e+09
1.79623e+09
1.78405e+09
1.77203e+09
1.76015e+09
1.74843e+09
1.73686e+09
1.72544e+09
1.71419e+09
1.70309e+09
1.69216e+09
1.68138e+09
1.67078e+09
1.66033e+09
1.65006e+09
1.63995e+09
1.63001e+09
1.62025e+09
1.61067e+09
1.60126e+09
1.59203e+09
1.58298e+09
1.57412e+09
1.56545e+09
1.55696e+09
1.54866e+09
1.54056e+09
1.53266e+09
1.52495e+09
1.51745e+09
1.51016e+09
1.50306e+09
1.49619e+09
1.48952e+09
1.48307e+09
1.47683e+09
1.47082e+09
1.46504e+09
1.45948e+09
1.45415e+09
1.44905e+09
1.44419e+09
1.43957e+09
1.43518e+09
1.43105e+09
1.42715e+09
1.42351e+09
1.42011e+09
1.41696e+09
1.41408e+09
1.41145e+09
1.40907e+09
1.40695e+09
1.4051e+09
1.40351e+09
1.40218e+09
1.40112e+09
1.40032e+09
1.39979e+09
1.39952e+09
2.417e+09
2.3999e+09
2.38208e+09
2.3644e+09
2.34686e+09
2.32946e+09
2.3122e+09
2.29508e+09
2.27811e+09
2.26127e+09
2.24458e+09
2.22802e+09
2.2116e+09
2.19532e+09
2.17918e+09
2.16318e+09
2.14732e+09
2.1316e+09
2.11602e+09
2.10057e+09
2.08526e+09
2.07009e+09
2.05506e+09
2.04016e+09
2.02541e+09
2.01079e+09
1.99632e+09
1.98197e+09
1.96778e+09
1.95371e+09
1.9398e+09
1.92602e+09
1.91238e+09
1.89889e+09
1.88553e+09
1.87233e+09
1.85926e+09
1.84634e+09
1.83357e+09
1.82094e+09
1.80846e+09
1.79613e+09
1.78395e+09
1.77192e+09
1.76004e+09
1.74831e+09
1.73674e+09
1.72532e+09
1.71406e+09
1.70297e+09
1.69203e+09
1.68126e+09
1.67065e+09
1.6602e+09
1.64992e+09
1.63981e+09
1.62987e+09
1.62011e+09
1.61051e+09
1.6011e+09
1.59188e+09
1.58282e+09
1.57396e+09
1.56528e+09
1.55679e+09
1.54849e+09
1.54039e+09
1.53248e+09
1.52477e+09
1.51726e+09
1.50996e+09
1.50287e+09
1.49599e+09
1.48932e+09
1.48286e+09
1.47663e+09
1.47061e+09
1.46482e+09
1.45926e+09
1.45393e+09
1.44883e+09
1.44396e+09
1.43933e+09
1.43494e+09
1.43081e+09
1.42691e+09
1.42326e+09
1.41986e+09
1.41672e+09
1.41382e+09
1.41119e+09
1.40881e+09
1.40669e+09
1.40484e+09
1.40325e+09
1.40192e+09
1.40085e+09
1.40005e+09
1.39952e+09
1.39925e+09
2.41687e+09
2.39979e+09
2.38196e+09
2.36427e+09
2.34672e+09
2.32932e+09
2.31206e+09
2.29494e+09
2.27796e+09
2.26113e+09
2.24443e+09
2.22787e+09
2.21145e+09
2.19517e+09
2.17903e+09
2.16303e+09
2.14717e+09
2.13144e+09
2.11586e+09
2.10041e+09
2.0851e+09
2.06992e+09
2.05489e+09
2.04e+09
2.02524e+09
2.01062e+09
1.99614e+09
1.9818e+09
1.9676e+09
1.95354e+09
1.93962e+09
1.92584e+09
1.91219e+09
1.8987e+09
1.88534e+09
1.87213e+09
1.85906e+09
1.84614e+09
1.83336e+09
1.82073e+09
1.80825e+09
1.79591e+09
1.78373e+09
1.7717e+09
1.75981e+09
1.74808e+09
1.73651e+09
1.72508e+09
1.71382e+09
1.70272e+09
1.69178e+09
1.681e+09
1.67038e+09
1.65993e+09
1.64964e+09
1.63953e+09
1.62959e+09
1.61981e+09
1.61022e+09
1.6008e+09
1.59156e+09
1.58251e+09
1.57363e+09
1.56495e+09
1.55645e+09
1.54815e+09
1.54003e+09
1.53212e+09
1.52441e+09
1.51689e+09
1.50958e+09
1.50248e+09
1.49559e+09
1.48891e+09
1.48245e+09
1.47621e+09
1.47018e+09
1.46439e+09
1.45882e+09
1.45348e+09
1.44837e+09
1.4435e+09
1.43886e+09
1.43447e+09
1.43033e+09
1.42642e+09
1.42277e+09
1.41937e+09
1.41621e+09
1.41332e+09
1.41067e+09
1.4083e+09
1.40618e+09
1.40431e+09
1.40272e+09
1.40139e+09
1.40032e+09
1.39952e+09
1.39899e+09
1.39872e+09
2.41671e+09
2.39963e+09
2.38178e+09
2.36408e+09
2.34653e+09
2.32912e+09
2.31185e+09
2.29473e+09
2.27774e+09
2.2609e+09
2.2442e+09
2.22764e+09
2.21122e+09
2.19494e+09
2.1788e+09
2.1628e+09
2.14693e+09
2.13121e+09
2.11561e+09
2.10016e+09
2.08486e+09
2.06968e+09
2.05464e+09
2.03975e+09
2.02499e+09
2.01036e+09
1.99588e+09
1.98154e+09
1.96733e+09
1.95327e+09
1.93934e+09
1.92556e+09
1.91191e+09
1.89841e+09
1.88505e+09
1.87184e+09
1.85877e+09
1.84584e+09
1.83306e+09
1.82042e+09
1.80793e+09
1.79559e+09
1.7834e+09
1.77136e+09
1.75947e+09
1.74773e+09
1.73615e+09
1.72472e+09
1.71346e+09
1.70235e+09
1.6914e+09
1.68061e+09
1.66999e+09
1.65952e+09
1.64923e+09
1.63911e+09
1.62915e+09
1.61937e+09
1.60977e+09
1.60034e+09
1.5911e+09
1.58203e+09
1.57315e+09
1.56445e+09
1.55595e+09
1.54763e+09
1.53951e+09
1.53158e+09
1.52385e+09
1.51633e+09
1.50901e+09
1.5019e+09
1.495e+09
1.48831e+09
1.48184e+09
1.47558e+09
1.46955e+09
1.46374e+09
1.45816e+09
1.45281e+09
1.44769e+09
1.44281e+09
1.43817e+09
1.43377e+09
1.42961e+09
1.42569e+09
1.42203e+09
1.41862e+09
1.41546e+09
1.41256e+09
1.40991e+09
1.40752e+09
1.4054e+09
1.40353e+09
1.40193e+09
1.4006e+09
1.39953e+09
1.39872e+09
1.39819e+09
1.39792e+09
2.41653e+09
2.39942e+09
2.38155e+09
2.36383e+09
2.34627e+09
2.32884e+09
2.31157e+09
2.29443e+09
2.27745e+09
2.2606e+09
2.2439e+09
2.22734e+09
2.21092e+09
2.19463e+09
2.17849e+09
2.16248e+09
2.14661e+09
2.13089e+09
2.1153e+09
2.09984e+09
2.08453e+09
2.06935e+09
2.05431e+09
2.03941e+09
2.02465e+09
2.01002e+09
1.99554e+09
1.98119e+09
1.96698e+09
1.95291e+09
1.93898e+09
1.92519e+09
1.91155e+09
1.89804e+09
1.88467e+09
1.87145e+09
1.85837e+09
1.84543e+09
1.83265e+09
1.82e+09
1.80751e+09
1.79516e+09
1.78296e+09
1.77092e+09
1.75902e+09
1.74727e+09
1.73568e+09
1.72425e+09
1.71297e+09
1.70185e+09
1.69089e+09
1.68009e+09
1.66945e+09
1.65899e+09
1.64868e+09
1.63855e+09
1.62858e+09
1.61879e+09
1.60918e+09
1.59974e+09
1.59047e+09
1.58139e+09
1.5725e+09
1.56379e+09
1.55527e+09
1.54694e+09
1.53881e+09
1.53087e+09
1.52313e+09
1.51559e+09
1.50825e+09
1.50112e+09
1.49421e+09
1.48751e+09
1.48102e+09
1.47475e+09
1.4687e+09
1.46288e+09
1.45728e+09
1.45192e+09
1.44678e+09
1.44189e+09
1.43723e+09
1.43282e+09
1.42865e+09
1.42472e+09
1.42105e+09
1.41762e+09
1.41445e+09
1.41154e+09
1.40888e+09
1.40649e+09
1.40435e+09
1.40248e+09
1.40088e+09
1.39954e+09
1.39846e+09
1.39766e+09
1.39713e+09
1.39685e+09
2.4163e+09
2.39915e+09
2.38125e+09
2.36351e+09
2.34593e+09
2.32849e+09
2.31121e+09
2.29407e+09
2.27708e+09
2.26023e+09
2.24353e+09
2.22696e+09
2.21053e+09
2.19425e+09
2.1781e+09
2.16209e+09
2.14622e+09
2.13049e+09
2.1149e+09
2.09945e+09
2.08412e+09
2.06894e+09
2.0539e+09
2.039e+09
2.02423e+09
2.0096e+09
1.9951e+09
1.98075e+09
1.96654e+09
1.95246e+09
1.93853e+09
1.92473e+09
1.91108e+09
1.89757e+09
1.88419e+09
1.87097e+09
1.85788e+09
1.84493e+09
1.83214e+09
1.81949e+09
1.80698e+09
1.79463e+09
1.78241e+09
1.77036e+09
1.75845e+09
1.7467e+09
1.73509e+09
1.72365e+09
1.71236e+09
1.70123e+09
1.69026e+09
1.67944e+09
1.66879e+09
1.65832e+09
1.648e+09
1.63785e+09
1.62787e+09
1.61806e+09
1.60843e+09
1.59898e+09
1.5897e+09
1.5806e+09
1.57169e+09
1.56297e+09
1.55443e+09
1.54608e+09
1.53793e+09
1.52997e+09
1.52222e+09
1.51465e+09
1.5073e+09
1.50016e+09
1.49322e+09
1.4865e+09
1.47999e+09
1.4737e+09
1.46764e+09
1.4618e+09
1.45618e+09
1.4508e+09
1.44565e+09
1.44074e+09
1.43606e+09
1.43163e+09
1.42744e+09
1.4235e+09
1.41982e+09
1.41638e+09
1.4132e+09
1.41027e+09
1.40761e+09
1.4052e+09
1.40305e+09
1.40118e+09
1.39956e+09
1.39822e+09
1.39714e+09
1.39633e+09
1.39579e+09
1.39552e+09
2.41604e+09
2.3988e+09
2.38087e+09
2.36311e+09
2.34551e+09
2.32807e+09
2.31078e+09
2.29364e+09
2.27664e+09
2.25978e+09
2.24307e+09
2.22651e+09
2.21007e+09
2.19379e+09
2.17764e+09
2.16163e+09
2.14575e+09
2.13002e+09
2.11442e+09
2.09896e+09
2.08364e+09
2.06845e+09
2.05341e+09
2.03849e+09
2.02372e+09
2.00909e+09
1.99459e+09
1.98023e+09
1.96601e+09
1.95193e+09
1.93799e+09
1.92419e+09
1.91052e+09
1.897e+09
1.88362e+09
1.87038e+09
1.85729e+09
1.84433e+09
1.83153e+09
1.81887e+09
1.80635e+09
1.79398e+09
1.78176e+09
1.7697e+09
1.75777e+09
1.74601e+09
1.73439e+09
1.72293e+09
1.71163e+09
1.70048e+09
1.6895e+09
1.67867e+09
1.66801e+09
1.65751e+09
1.64717e+09
1.63701e+09
1.62701e+09
1.61719e+09
1.60754e+09
1.59807e+09
1.58877e+09
1.57966e+09
1.57072e+09
1.56198e+09
1.55342e+09
1.54505e+09
1.53688e+09
1.5289e+09
1.52112e+09
1.51354e+09
1.50616e+09
1.49899e+09
1.49204e+09
1.48529e+09
1.47876e+09
1.47245e+09
1.46636e+09
1.4605e+09
1.45487e+09
1.44946e+09
1.44429e+09
1.43936e+09
1.43467e+09
1.43021e+09
1.42601e+09
1.42205e+09
1.41834e+09
1.41489e+09
1.41169e+09
1.40874e+09
1.40606e+09
1.40365e+09
1.40149e+09
1.3996e+09
1.39798e+09
1.39663e+09
1.39554e+09
1.39473e+09
1.39418e+09
1.39392e+09
2.41554e+09
2.39835e+09
2.3804e+09
2.36262e+09
2.34501e+09
2.32756e+09
2.31026e+09
2.29312e+09
2.27612e+09
2.25926e+09
2.24255e+09
2.22597e+09
2.20954e+09
2.19325e+09
2.1771e+09
2.16108e+09
2.1452e+09
2.12946e+09
2.11387e+09
2.0984e+09
2.08307e+09
2.06788e+09
2.05283e+09
2.03791e+09
2.02313e+09
2.0085e+09
1.99399e+09
1.97962e+09
1.96539e+09
1.95131e+09
1.93736e+09
1.92354e+09
1.90987e+09
1.89634e+09
1.88295e+09
1.8697e+09
1.8566e+09
1.84363e+09
1.83081e+09
1.81814e+09
1.80562e+09
1.79323e+09
1.781e+09
1.76891e+09
1.75698e+09
1.7452e+09
1.73357e+09
1.7221e+09
1.71078e+09
1.69961e+09
1.68861e+09
1.67777e+09
1.66709e+09
1.65657e+09
1.64621e+09
1.63603e+09
1.62602e+09
1.61617e+09
1.6065e+09
1.597e+09
1.58769e+09
1.57855e+09
1.56959e+09
1.56082e+09
1.55224e+09
1.54385e+09
1.53565e+09
1.52765e+09
1.51984e+09
1.51224e+09
1.50484e+09
1.49764e+09
1.49066e+09
1.48389e+09
1.47733e+09
1.47099e+09
1.46488e+09
1.45899e+09
1.45333e+09
1.4479e+09
1.4427e+09
1.43775e+09
1.43303e+09
1.42855e+09
1.42432e+09
1.42034e+09
1.41662e+09
1.41314e+09
1.40992e+09
1.40697e+09
1.40427e+09
1.40184e+09
1.39967e+09
1.39776e+09
1.39613e+09
1.39477e+09
1.39368e+09
1.39286e+09
1.39231e+09
1.39204e+09
2.41511e+09
2.39782e+09
2.37984e+09
2.36205e+09
2.34443e+09
2.32698e+09
2.30968e+09
2.29252e+09
2.27552e+09
2.25866e+09
2.24194e+09
2.22537e+09
2.20893e+09
2.19264e+09
2.17648e+09
2.16046e+09
2.14458e+09
2.12884e+09
2.11323e+09
2.09776e+09
2.08243e+09
2.06723e+09
2.05217e+09
2.03725e+09
2.02246e+09
2.00781e+09
1.9933e+09
1.97893e+09
1.96469e+09
1.9506e+09
1.93664e+09
1.92282e+09
1.90914e+09
1.89559e+09
1.88219e+09
1.86893e+09
1.85581e+09
1.84284e+09
1.83001e+09
1.81732e+09
1.80478e+09
1.79238e+09
1.78013e+09
1.76803e+09
1.75608e+09
1.74429e+09
1.73264e+09
1.72114e+09
1.70981e+09
1.69863e+09
1.6876e+09
1.67674e+09
1.66604e+09
1.6555e+09
1.64512e+09
1.63491e+09
1.62488e+09
1.61501e+09
1.60531e+09
1.5958e+09
1.58645e+09
1.57728e+09
1.56831e+09
1.55951e+09
1.5509e+09
1.54248e+09
1.53425e+09
1.52622e+09
1.51839e+09
1.51075e+09
1.50332e+09
1.4961e+09
1.48908e+09
1.48228e+09
1.47569e+09
1.46933e+09
1.46318e+09
1.45727e+09
1.45158e+09
1.44611e+09
1.44089e+09
1.4359e+09
1.43116e+09
1.42665e+09
1.4224e+09
1.41839e+09
1.41464e+09
1.41115e+09
1.40791e+09
1.40492e+09
1.40221e+09
1.39976e+09
1.39758e+09
1.39566e+09
1.39402e+09
1.39265e+09
1.39154e+09
1.39072e+09
1.39017e+09
1.38989e+09
2.41451e+09
2.39717e+09
2.37918e+09
2.36139e+09
2.34377e+09
2.32631e+09
2.30901e+09
2.29185e+09
2.27485e+09
2.25798e+09
2.24126e+09
2.22468e+09
2.20825e+09
2.19195e+09
2.17579e+09
2.15976e+09
2.14388e+09
2.12813e+09
2.11252e+09
2.09704e+09
2.0817e+09
2.0665e+09
2.05144e+09
2.03651e+09
2.02171e+09
2.00706e+09
1.99253e+09
1.97815e+09
1.9639e+09
1.9498e+09
1.93583e+09
1.92199e+09
1.9083e+09
1.89475e+09
1.88133e+09
1.86806e+09
1.85493e+09
1.84194e+09
1.82909e+09
1.81639e+09
1.80384e+09
1.79142e+09
1.77916e+09
1.76704e+09
1.75507e+09
1.74326e+09
1.73159e+09
1.72008e+09
1.70872e+09
1.69752e+09
1.68647e+09
1.67558e+09
1.66486e+09
1.65429e+09
1.64389e+09
1.63366e+09
1.6236e+09
1.6137e+09
1.60398e+09
1.59443e+09
1.58506e+09
1.57587e+09
1.56686e+09
1.55803e+09
1.54939e+09
1.54094e+09
1.53268e+09
1.52462e+09
1.51675e+09
1.50908e+09
1.50162e+09
1.49436e+09
1.48731e+09
1.48048e+09
1.47386e+09
1.46745e+09
1.46128e+09
1.45532e+09
1.4496e+09
1.44411e+09
1.43884e+09
1.43383e+09
1.42905e+09
1.42452e+09
1.42023e+09
1.4162e+09
1.41242e+09
1.4089e+09
1.40563e+09
1.40263e+09
1.39989e+09
1.39742e+09
1.39522e+09
1.39329e+09
1.39164e+09
1.39025e+09
1.38914e+09
1.38831e+09
1.38775e+09
1.38748e+09
2.41364e+09
2.39637e+09
2.37841e+09
2.36063e+09
2.34302e+09
2.32556e+09
2.30826e+09
2.29111e+09
2.2741e+09
2.25723e+09
2.24051e+09
2.22393e+09
2.20748e+09
2.19118e+09
2.17502e+09
2.15899e+09
2.1431e+09
2.12734e+09
2.11173e+09
2.09625e+09
2.0809e+09
2.06569e+09
2.05062e+09
2.03568e+09
2.02088e+09
2.00621e+09
1.99168e+09
1.97729e+09
1.96303e+09
1.94891e+09
1.93493e+09
1.92109e+09
1.90738e+09
1.89381e+09
1.88039e+09
1.8671e+09
1.85395e+09
1.84095e+09
1.82808e+09
1.81537e+09
1.80279e+09
1.79036e+09
1.77808e+09
1.76594e+09
1.75396e+09
1.74211e+09
1.73043e+09
1.71889e+09
1.70751e+09
1.69628e+09
1.68521e+09
1.6743e+09
1.66355e+09
1.65296e+09
1.64253e+09
1.63228e+09
1.62218e+09
1.61225e+09
1.6025e+09
1.59292e+09
1.58352e+09
1.57429e+09
1.56526e+09
1.55639e+09
1.54772e+09
1.53923e+09
1.53094e+09
1.52283e+09
1.51493e+09
1.50723e+09
1.49972e+09
1.49243e+09
1.48534e+09
1.47847e+09
1.47181e+09
1.46537e+09
1.45915e+09
1.45317e+09
1.4474e+09
1.44187e+09
1.43657e+09
1.43152e+09
1.42671e+09
1.42214e+09
1.41782e+09
1.41376e+09
1.40995e+09
1.4064e+09
1.4031e+09
1.40007e+09
1.39731e+09
1.39482e+09
1.3926e+09
1.39065e+09
1.38898e+09
1.38758e+09
1.38646e+09
1.38562e+09
1.38506e+09
1.38478e+09
2.41255e+09
2.39544e+09
2.37754e+09
2.35979e+09
2.34218e+09
2.32474e+09
2.30743e+09
2.29028e+09
2.27327e+09
2.2564e+09
2.23968e+09
2.22309e+09
2.20665e+09
2.19034e+09
2.17417e+09
2.15814e+09
2.14225e+09
2.12648e+09
2.11086e+09
2.09537e+09
2.08002e+09
2.0648e+09
2.04972e+09
2.03477e+09
2.01996e+09
2.00528e+09
1.99075e+09
1.97634e+09
1.96207e+09
1.94794e+09
1.93395e+09
1.92009e+09
1.90637e+09
1.89279e+09
1.87934e+09
1.86605e+09
1.85288e+09
1.83986e+09
1.82698e+09
1.81424e+09
1.80165e+09
1.7892e+09
1.77689e+09
1.76473e+09
1.75272e+09
1.74087e+09
1.72916e+09
1.71759e+09
1.70619e+09
1.69494e+09
1.68384e+09
1.6729e+09
1.66212e+09
1.6515e+09
1.64104e+09
1.63075e+09
1.62063e+09
1.61067e+09
1.60088e+09
1.59127e+09
1.58184e+09
1.57257e+09
1.56349e+09
1.55459e+09
1.54588e+09
1.53735e+09
1.52902e+09
1.52088e+09
1.51294e+09
1.50519e+09
1.49765e+09
1.49031e+09
1.48319e+09
1.47626e+09
1.46957e+09
1.46309e+09
1.45683e+09
1.45079e+09
1.44499e+09
1.43942e+09
1.43408e+09
1.42899e+09
1.42413e+09
1.41952e+09
1.41517e+09
1.41107e+09
1.40722e+09
1.40364e+09
1.40031e+09
1.39726e+09
1.39447e+09
1.39195e+09
1.38971e+09
1.38774e+09
1.38605e+09
1.38463e+09
1.3835e+09
1.38266e+09
1.38209e+09
1.38181e+09
2.41165e+09
2.3945e+09
2.37661e+09
2.35887e+09
2.34127e+09
2.32383e+09
2.30653e+09
2.28938e+09
2.27236e+09
2.2555e+09
2.23877e+09
2.22218e+09
2.20573e+09
2.18943e+09
2.17325e+09
2.15722e+09
2.14131e+09
2.12554e+09
2.10991e+09
2.09442e+09
2.07906e+09
2.06384e+09
2.04874e+09
2.03379e+09
2.01896e+09
2.00428e+09
1.98972e+09
1.97531e+09
1.96103e+09
1.94689e+09
1.93288e+09
1.91901e+09
1.90527e+09
1.89167e+09
1.87822e+09
1.8649e+09
1.85171e+09
1.83867e+09
1.82578e+09
1.81302e+09
1.8004e+09
1.78793e+09
1.7756e+09
1.76343e+09
1.75139e+09
1.73951e+09
1.72777e+09
1.71618e+09
1.70475e+09
1.69346e+09
1.68234e+09
1.67137e+09
1.66056e+09
1.64991e+09
1.63942e+09
1.62909e+09
1.61894e+09
1.60894e+09
1.59912e+09
1.58947e+09
1.58e+09
1.5707e+09
1.56157e+09
1.55264e+09
1.54388e+09
1.53532e+09
1.52694e+09
1.51875e+09
1.51077e+09
1.50298e+09
1.49538e+09
1.488e+09
1.48083e+09
1.47387e+09
1.46712e+09
1.46059e+09
1.45428e+09
1.44821e+09
1.44236e+09
1.43673e+09
1.43136e+09
1.42621e+09
1.42132e+09
1.41667e+09
1.41228e+09
1.40813e+09
1.40425e+09
1.40063e+09
1.39727e+09
1.39418e+09
1.39136e+09
1.38881e+09
1.38654e+09
1.38455e+09
1.38284e+09
1.38142e+09
1.38028e+09
1.37942e+09
1.37884e+09
1.37855e+09
2.41064e+09
2.39349e+09
2.37561e+09
2.35788e+09
2.34029e+09
2.32285e+09
2.30556e+09
2.2884e+09
2.27139e+09
2.25453e+09
2.23779e+09
2.2212e+09
2.20475e+09
2.18844e+09
2.17226e+09
2.15621e+09
2.1403e+09
2.12454e+09
2.10889e+09
2.09339e+09
2.07802e+09
2.06279e+09
2.04769e+09
2.03272e+09
2.01789e+09
2.00319e+09
1.98863e+09
1.9742e+09
1.95991e+09
1.94574e+09
1.93172e+09
1.91784e+09
1.90409e+09
1.89047e+09
1.87699e+09
1.86366e+09
1.85046e+09
1.8374e+09
1.82447e+09
1.8117e+09
1.79906e+09
1.78656e+09
1.77421e+09
1.76201e+09
1.74995e+09
1.73803e+09
1.72627e+09
1.71466e+09
1.70319e+09
1.69188e+09
1.68073e+09
1.66972e+09
1.65888e+09
1.6482e+09
1.63767e+09
1.62731e+09
1.61711e+09
1.60708e+09
1.59722e+09
1.58752e+09
1.57801e+09
1.56867e+09
1.5595e+09
1.55052e+09
1.54173e+09
1.53311e+09
1.52469e+09
1.51645e+09
1.50842e+09
1.50058e+09
1.49294e+09
1.48551e+09
1.47828e+09
1.47127e+09
1.46447e+09
1.45789e+09
1.45153e+09
1.4454e+09
1.4395e+09
1.43383e+09
1.4284e+09
1.42321e+09
1.41827e+09
1.41358e+09
1.40913e+09
1.40494e+09
1.40102e+09
1.39736e+09
1.39396e+09
1.39084e+09
1.38799e+09
1.38541e+09
1.38311e+09
1.3811e+09
1.37936e+09
1.37792e+09
1.37676e+09
1.37589e+09
1.37531e+09
1.37502e+09
2.4095e+09
2.39242e+09
2.37455e+09
2.35682e+09
2.33924e+09
2.3218e+09
2.30451e+09
2.28735e+09
2.27034e+09
2.25347e+09
2.23674e+09
2.22015e+09
2.20369e+09
2.18737e+09
2.17119e+09
2.15514e+09
2.13922e+09
2.12344e+09
2.1078e+09
2.09229e+09
2.07691e+09
2.06166e+09
2.04655e+09
2.03158e+09
2.01673e+09
2.00203e+09
1.98745e+09
1.973e+09
1.9587e+09
1.94452e+09
1.93048e+09
1.91658e+09
1.90281e+09
1.88918e+09
1.87569e+09
1.86233e+09
1.84911e+09
1.83602e+09
1.82308e+09
1.81028e+09
1.79762e+09
1.7851e+09
1.77272e+09
1.76049e+09
1.7484e+09
1.73646e+09
1.72467e+09
1.71302e+09
1.70152e+09
1.69018e+09
1.67899e+09
1.66795e+09
1.65707e+09
1.64635e+09
1.63579e+09
1.62539e+09
1.61515e+09
1.60508e+09
1.59518e+09
1.58544e+09
1.57588e+09
1.56649e+09
1.55728e+09
1.54825e+09
1.5394e+09
1.53074e+09
1.52226e+09
1.51398e+09
1.50589e+09
1.498e+09
1.49031e+09
1.48283e+09
1.47554e+09
1.46848e+09
1.46162e+09
1.45499e+09
1.44857e+09
1.44239e+09
1.43643e+09
1.43071e+09
1.42522e+09
1.41998e+09
1.41499e+09
1.41023e+09
1.40574e+09
1.40151e+09
1.39754e+09
1.39383e+09
1.3904e+09
1.38723e+09
1.38434e+09
1.38173e+09
1.3794e+09
1.37736e+09
1.3756e+09
1.37414e+09
1.37296e+09
1.37208e+09
1.37149e+09
1.3712e+09
2.40851e+09
2.39132e+09
2.37343e+09
2.3557e+09
2.33812e+09
2.32068e+09
2.30339e+09
2.28624e+09
2.26922e+09
2.25235e+09
2.23562e+09
2.21902e+09
2.20256e+09
2.18624e+09
2.17005e+09
2.15399e+09
2.13807e+09
2.12228e+09
2.10663e+09
2.09111e+09
2.07572e+09
2.06047e+09
2.04535e+09
2.03036e+09
2.0155e+09
2.00078e+09
1.98619e+09
1.97173e+09
1.95741e+09
1.94322e+09
1.92916e+09
1.91524e+09
1.90145e+09
1.8878e+09
1.87428e+09
1.86091e+09
1.84767e+09
1.83456e+09
1.82159e+09
1.80877e+09
1.79608e+09
1.78353e+09
1.77113e+09
1.75887e+09
1.74675e+09
1.73478e+09
1.72296e+09
1.71127e+09
1.69974e+09
1.68837e+09
1.67714e+09
1.66607e+09
1.65515e+09
1.64439e+09
1.63378e+09
1.62334e+09
1.61306e+09
1.60294e+09
1.59299e+09
1.58322e+09
1.5736e+09
1.56417e+09
1.55491e+09
1.54582e+09
1.53693e+09
1.52821e+09
1.51968e+09
1.51134e+09
1.5032e+09
1.49525e+09
1.4875e+09
1.47996e+09
1.47262e+09
1.46549e+09
1.45857e+09
1.45188e+09
1.4454e+09
1.43915e+09
1.43314e+09
1.42736e+09
1.42181e+09
1.41652e+09
1.41146e+09
1.40666e+09
1.40211e+09
1.39782e+09
1.3938e+09
1.39004e+09
1.38656e+09
1.38336e+09
1.38042e+09
1.37778e+09
1.37542e+09
1.37335e+09
1.37156e+09
1.37007e+09
1.36888e+09
1.36798e+09
1.36739e+09
1.36709e+09
2.40732e+09
2.39013e+09
2.37224e+09
2.3545e+09
2.33693e+09
2.31949e+09
2.3022e+09
2.28504e+09
2.26803e+09
2.25116e+09
2.23442e+09
2.21782e+09
2.20136e+09
2.18503e+09
2.16883e+09
2.15277e+09
2.13684e+09
2.12105e+09
2.10539e+09
2.08985e+09
2.07446e+09
2.05919e+09
2.04406e+09
2.02906e+09
2.01419e+09
1.99946e+09
1.98485e+09
1.97037e+09
1.95603e+09
1.94183e+09
1.92776e+09
1.91382e+09
1.90001e+09
1.88634e+09
1.8728e+09
1.8594e+09
1.84613e+09
1.83301e+09
1.82001e+09
1.80716e+09
1.79444e+09
1.78187e+09
1.76944e+09
1.75715e+09
1.745e+09
1.73299e+09
1.72114e+09
1.70942e+09
1.69786e+09
1.68644e+09
1.67518e+09
1.66406e+09
1.6531e+09
1.6423e+09
1.63165e+09
1.62117e+09
1.61084e+09
1.60067e+09
1.59068e+09
1.58084e+09
1.57119e+09
1.5617e+09
1.55239e+09
1.54325e+09
1.53429e+09
1.52552e+09
1.51693e+09
1.50853e+09
1.50033e+09
1.49231e+09
1.48451e+09
1.47689e+09
1.46949e+09
1.4623e+09
1.45533e+09
1.44856e+09
1.44203e+09
1.43571e+09
1.42963e+09
1.42378e+09
1.41818e+09
1.41282e+09
1.4077e+09
1.40283e+09
1.39823e+09
1.39388e+09
1.3898e+09
1.386e+09
1.38246e+09
1.37921e+09
1.37624e+09
1.37355e+09
1.37115e+09
1.36904e+09
1.36723e+09
1.36572e+09
1.36451e+09
1.3636e+09
1.36299e+09
1.36269e+09
2.40594e+09
2.38884e+09
2.37096e+09
2.35324e+09
2.33566e+09
2.31823e+09
2.30093e+09
2.28378e+09
2.26677e+09
2.24989e+09
2.23315e+09
2.21655e+09
2.20008e+09
2.18375e+09
2.16755e+09
2.15148e+09
2.13554e+09
2.11974e+09
2.10407e+09
2.08853e+09
2.07312e+09
2.05785e+09
2.0427e+09
2.02769e+09
2.01281e+09
1.99805e+09
1.98343e+09
1.96894e+09
1.95459e+09
1.94036e+09
1.92627e+09
1.91231e+09
1.89848e+09
1.88479e+09
1.87123e+09
1.85781e+09
1.84452e+09
1.83136e+09
1.81834e+09
1.80546e+09
1.79272e+09
1.78011e+09
1.76765e+09
1.75533e+09
1.74314e+09
1.73111e+09
1.71921e+09
1.70746e+09
1.69586e+09
1.6844e+09
1.6731e+09
1.66194e+09
1.65094e+09
1.64009e+09
1.6294e+09
1.61886e+09
1.60849e+09
1.59828e+09
1.58822e+09
1.57834e+09
1.56862e+09
1.55908e+09
1.54971e+09
1.54052e+09
1.5315e+09
1.52267e+09
1.51402e+09
1.50556e+09
1.49728e+09
1.48921e+09
1.48133e+09
1.47366e+09
1.46619e+09
1.45893e+09
1.45188e+09
1.44505e+09
1.43844e+09
1.43206e+09
1.4259e+09
1.41999e+09
1.41431e+09
1.40888e+09
1.4037e+09
1.39877e+09
1.3941e+09
1.38969e+09
1.38555e+09
1.38169e+09
1.3781e+09
1.37479e+09
1.37177e+09
1.36904e+09
1.3666e+09
1.36446e+09
1.36262e+09
1.36108e+09
1.35985e+09
1.35892e+09
1.3583e+09
1.35799e+09
2.40457e+09
2.38749e+09
2.36963e+09
2.35191e+09
2.33434e+09
2.3169e+09
2.29961e+09
2.28245e+09
2.26544e+09
2.24856e+09
2.23182e+09
2.21521e+09
2.19874e+09
2.1824e+09
2.16619e+09
2.15012e+09
2.13418e+09
2.11836e+09
2.10268e+09
2.08713e+09
2.07172e+09
2.05643e+09
2.04127e+09
2.02624e+09
2.01134e+09
1.99658e+09
1.98194e+09
1.96743e+09
1.95306e+09
1.93881e+09
1.9247e+09
1.91072e+09
1.89687e+09
1.88316e+09
1.86958e+09
1.85613e+09
1.84281e+09
1.82963e+09
1.81658e+09
1.80367e+09
1.7909e+09
1.77827e+09
1.76576e+09
1.75341e+09
1.74119e+09
1.72911e+09
1.71718e+09
1.70539e+09
1.69375e+09
1.68226e+09
1.67091e+09
1.6597e+09
1.64866e+09
1.63776e+09
1.62702e+09
1.61644e+09
1.60601e+09
1.59574e+09
1.58564e+09
1.5757e+09
1.56593e+09
1.55632e+09
1.54689e+09
1.53764e+09
1.52856e+09
1.51966e+09
1.51095e+09
1.50241e+09
1.49408e+09
1.48593e+09
1.47798e+09
1.47024e+09
1.46269e+09
1.45536e+09
1.44824e+09
1.44133e+09
1.43465e+09
1.42819e+09
1.42196e+09
1.41598e+09
1.41022e+09
1.40472e+09
1.39946e+09
1.39446e+09
1.38972e+09
1.38525e+09
1.38104e+09
1.37711e+09
1.37346e+09
1.3701e+09
1.36703e+09
1.36424e+09
1.36176e+09
1.35959e+09
1.35771e+09
1.35614e+09
1.35488e+09
1.35394e+09
1.35331e+09
1.35299e+09
2.40329e+09
2.38612e+09
2.36824e+09
2.35052e+09
2.33294e+09
2.3155e+09
2.29821e+09
2.28106e+09
2.26404e+09
2.24716e+09
2.23041e+09
2.2138e+09
2.19732e+09
2.18098e+09
2.16477e+09
2.14869e+09
2.13273e+09
2.11691e+09
2.10122e+09
2.08567e+09
2.07024e+09
2.05493e+09
2.03976e+09
2.02472e+09
2.00981e+09
1.99503e+09
1.98037e+09
1.96585e+09
1.95146e+09
1.93719e+09
1.92306e+09
1.90905e+09
1.89518e+09
1.88145e+09
1.86783e+09
1.85436e+09
1.84101e+09
1.82781e+09
1.81473e+09
1.80179e+09
1.78899e+09
1.77632e+09
1.76379e+09
1.75139e+09
1.73914e+09
1.72703e+09
1.71505e+09
1.70322e+09
1.69154e+09
1.68e+09
1.66861e+09
1.65736e+09
1.64626e+09
1.63532e+09
1.62452e+09
1.61389e+09
1.60341e+09
1.59309e+09
1.58292e+09
1.57293e+09
1.56309e+09
1.55343e+09
1.54394e+09
1.53461e+09
1.52547e+09
1.5165e+09
1.50772e+09
1.49911e+09
1.4907e+09
1.48248e+09
1.47446e+09
1.46664e+09
1.45902e+09
1.4516e+09
1.4444e+09
1.43742e+09
1.43065e+09
1.42411e+09
1.4178e+09
1.41174e+09
1.4059e+09
1.40032e+09
1.39498e+09
1.3899e+09
1.38509e+09
1.38054e+09
1.37627e+09
1.37227e+09
1.36856e+09
1.36513e+09
1.362e+09
1.35917e+09
1.35664e+09
1.35442e+09
1.3525e+09
1.3509e+09
1.34962e+09
1.34865e+09
1.34801e+09
1.34769e+09
2.40175e+09
2.38465e+09
2.36678e+09
2.34905e+09
2.33148e+09
2.31404e+09
2.29675e+09
2.2796e+09
2.26257e+09
2.24569e+09
2.22895e+09
2.21233e+09
2.19585e+09
2.1795e+09
2.16328e+09
2.14718e+09
2.13122e+09
2.1154e+09
2.09969e+09
2.08412e+09
2.06868e+09
2.05337e+09
2.03818e+09
2.02313e+09
2.0082e+09
1.9934e+09
1.97873e+09
1.96419e+09
1.94977e+09
1.93549e+09
1.92134e+09
1.90731e+09
1.89341e+09
1.87965e+09
1.86601e+09
1.85252e+09
1.83914e+09
1.8259e+09
1.81279e+09
1.79982e+09
1.78699e+09
1.77428e+09
1.76171e+09
1.74929e+09
1.73699e+09
1.72484e+09
1.71283e+09
1.70096e+09
1.68923e+09
1.67764e+09
1.6662e+09
1.6549e+09
1.64376e+09
1.63276e+09
1.62191e+09
1.61122e+09
1.60068e+09
1.5903e+09
1.58008e+09
1.57002e+09
1.56013e+09
1.5504e+09
1.54083e+09
1.53144e+09
1.52222e+09
1.51319e+09
1.50433e+09
1.49565e+09
1.48717e+09
1.47887e+09
1.47076e+09
1.46286e+09
1.45515e+09
1.44766e+09
1.44037e+09
1.4333e+09
1.42645e+09
1.41983e+09
1.41343e+09
1.40727e+09
1.40135e+09
1.39569e+09
1.39026e+09
1.3851e+09
1.38021e+09
1.37558e+09
1.37123e+09
1.36716e+09
1.36337e+09
1.35988e+09
1.35669e+09
1.3538e+09
1.35122e+09
1.34895e+09
1.34699e+09
1.34536e+09
1.34405e+09
1.34306e+09
1.3424e+09
1.34207e+09
2.40033e+09
2.38315e+09
2.36526e+09
2.34753e+09
2.32994e+09
2.31251e+09
2.29522e+09
2.27806e+09
2.26104e+09
2.24416e+09
2.22741e+09
2.21078e+09
2.1943e+09
2.17794e+09
2.16171e+09
2.14562e+09
2.12965e+09
2.11381e+09
2.0981e+09
2.08252e+09
2.06706e+09
2.05173e+09
2.03654e+09
2.02146e+09
2.00652e+09
1.9917e+09
1.97701e+09
1.96245e+09
1.94802e+09
1.93372e+09
1.91954e+09
1.90549e+09
1.89156e+09
1.87777e+09
1.86412e+09
1.85058e+09
1.83718e+09
1.82391e+09
1.81078e+09
1.79777e+09
1.7849e+09
1.77216e+09
1.75955e+09
1.74709e+09
1.73475e+09
1.72255e+09
1.7105e+09
1.69858e+09
1.68681e+09
1.67517e+09
1.66368e+09
1.65233e+09
1.64114e+09
1.63009e+09
1.61919e+09
1.60843e+09
1.59784e+09
1.58739e+09
1.57711e+09
1.56699e+09
1.55702e+09
1.54722e+09
1.53759e+09
1.52813e+09
1.51884e+09
1.50973e+09
1.50079e+09
1.49203e+09
1.48346e+09
1.47508e+09
1.46689e+09
1.4589e+09
1.45111e+09
1.44352e+09
1.43615e+09
1.42899e+09
1.42204e+09
1.41533e+09
1.40884e+09
1.40259e+09
1.39658e+09
1.39082e+09
1.38531e+09
1.38006e+09
1.37508e+09
1.37036e+09
1.36593e+09
1.36177e+09
1.35792e+09
1.35435e+09
1.35109e+09
1.34813e+09
1.3455e+09
1.34318e+09
1.34117e+09
1.3395e+09
1.33816e+09
1.33715e+09
1.33648e+09
1.33614e+09
2.39874e+09
2.38156e+09
2.36366e+09
2.34593e+09
2.32835e+09
2.31091e+09
2.29362e+09
2.27647e+09
2.25944e+09
2.24256e+09
2.2258e+09
2.20918e+09
2.19268e+09
2.17632e+09
2.16009e+09
2.14398e+09
2.128e+09
2.11215e+09
2.09644e+09
2.08084e+09
2.06537e+09
2.05003e+09
2.03482e+09
2.01973e+09
2.00477e+09
1.98993e+09
1.97523e+09
1.96064e+09
1.94619e+09
1.93186e+09
1.91766e+09
1.90359e+09
1.88964e+09
1.87582e+09
1.86213e+09
1.84857e+09
1.83514e+09
1.82184e+09
1.80867e+09
1.79563e+09
1.78272e+09
1.76994e+09
1.7573e+09
1.74479e+09
1.73242e+09
1.72018e+09
1.70808e+09
1.69612e+09
1.68429e+09
1.67261e+09
1.66107e+09
1.64967e+09
1.63841e+09
1.62731e+09
1.61634e+09
1.60553e+09
1.59488e+09
1.58437e+09
1.57402e+09
1.56382e+09
1.55379e+09
1.54392e+09
1.53421e+09
1.52468e+09
1.51531e+09
1.50611e+09
1.49709e+09
1.48826e+09
1.4796e+09
1.47113e+09
1.46285e+09
1.45477e+09
1.44689e+09
1.43921e+09
1.43174e+09
1.42448e+09
1.41744e+09
1.41062e+09
1.40404e+09
1.39769e+09
1.39158e+09
1.38572e+09
1.38011e+09
1.37477e+09
1.36969e+09
1.36488e+09
1.36036e+09
1.35612e+09
1.35217e+09
1.34853e+09
1.3452e+09
1.34218e+09
1.33947e+09
1.33709e+09
1.33505e+09
1.33334e+09
1.33196e+09
1.33092e+09
1.33023e+09
1.32988e+09
2.39707e+09
2.37988e+09
2.36199e+09
2.34426e+09
2.32668e+09
2.30925e+09
2.29196e+09
2.2748e+09
2.25778e+09
2.24089e+09
2.22413e+09
2.2075e+09
2.191e+09
2.17464e+09
2.1584e+09
2.14228e+09
2.1263e+09
2.11044e+09
2.0947e+09
2.07909e+09
2.06362e+09
2.04826e+09
2.03303e+09
2.01792e+09
2.00295e+09
1.98809e+09
1.97337e+09
1.95876e+09
1.94429e+09
1.92994e+09
1.91571e+09
1.90161e+09
1.88764e+09
1.87379e+09
1.86008e+09
1.84649e+09
1.83303e+09
1.81969e+09
1.80648e+09
1.79341e+09
1.78046e+09
1.76765e+09
1.75496e+09
1.74241e+09
1.73e+09
1.71772e+09
1.70557e+09
1.69355e+09
1.68168e+09
1.66994e+09
1.65835e+09
1.64689e+09
1.63558e+09
1.62441e+09
1.61339e+09
1.60252e+09
1.5918e+09
1.58123e+09
1.5708e+09
1.56054e+09
1.55043e+09
1.54049e+09
1.53071e+09
1.52109e+09
1.51164e+09
1.50236e+09
1.49325e+09
1.48433e+09
1.47558e+09
1.46702e+09
1.45865e+09
1.45047e+09
1.44249e+09
1.43471e+09
1.42714e+09
1.41978e+09
1.41264e+09
1.40572e+09
1.39902e+09
1.39257e+09
1.38635e+09
1.38039e+09
1.37468e+09
1.36923e+09
1.36405e+09
1.35914e+09
1.35452e+09
1.35019e+09
1.34616e+09
1.34242e+09
1.33901e+09
1.33592e+09
1.33314e+09
1.3307e+09
1.3286e+09
1.32684e+09
1.32543e+09
1.32437e+09
1.32365e+09
1.3233e+09
2.39515e+09
2.37807e+09
2.36022e+09
2.34251e+09
2.32495e+09
2.30752e+09
2.29023e+09
2.27308e+09
2.25606e+09
2.23916e+09
2.2224e+09
2.20577e+09
2.18926e+09
2.17289e+09
2.15664e+09
2.14052e+09
2.12453e+09
2.10865e+09
2.09291e+09
2.07729e+09
2.06179e+09
2.04642e+09
2.03118e+09
2.01606e+09
2.00106e+09
1.98619e+09
1.97144e+09
1.95682e+09
1.94232e+09
1.92794e+09
1.91369e+09
1.89957e+09
1.88557e+09
1.87169e+09
1.85794e+09
1.84432e+09
1.83082e+09
1.81746e+09
1.80422e+09
1.79111e+09
1.77812e+09
1.76526e+09
1.75254e+09
1.73995e+09
1.72748e+09
1.71516e+09
1.70296e+09
1.6909e+09
1.67897e+09
1.66718e+09