/*--------------------------------*- C++ -*----------------------------------*\
| =========                 |                                                 |
| \\      /  F ield         | OpenFOAM: The Open Source CFD Toolbox           |
|  \\    /   O peration     | Version:  4.1                                   |
|   \\  /    A nd           | Web:      www.OpenFOAM.org                      |
|    \\/     M anipulation  |                                                 |
\*---------------------------------------------------------------------------*/
FoamFile
{
    version     2.0;
    format      ascii;
    class       volScalarField;
    location    "0.151";
    object      s;
}
// * * * * * * * * * * * * * * * * * * * * * * * * * * * * * * * * * * * * * //

dimensions      [0 0 0 0 0 0 0];

internalField   nonuniform List<scalar> 
43750
(
1
1
1
1
1
1
1
1
1
1
1
1
1
1
1
1
1
1
1
1
1
1
1
1
1
1
1
1
1
1
1
1
1
1
1
1
1
1
1
1
1
1
1
1
1
1
1
1
1
1
1
1
1
1
0.999998
0.999987
0.999923
0.99956
0.997605
0.987868
0.944046
0.771672
0.485865
0.277972
0.146798
0.0719127
0.0327501
0.0138759
0.00546914
0.00200427
0.000682374
0.00021561
6.31437e-05
1.71125e-05
4.28333e-06
9.87979e-07
2.09443e-07
4.06838e-08
7.21658e-09
1.16447e-09
1.70202e-10
2.24282e-11
2.65081e-12
2.79436e-13
2.61141e-14
2.14954e-15
1.54792e-16
9.68506e-18
5.23183e-19
2.42975e-20
9.7211e-22
3.41332e-23
1.11008e-24
3.67567e-26
1.31845e-27
4.79853e-29
1.54288e-30
3.84428e-32
6.41599e-34
5.32783e-36
1
1
1
1
1
1
1
1
1
1
1
1
1
1
1
1
1
1
1
1
1
1
1
1
1
1
1
1
1
1
1
1
1
1
1
1
1
1
1
1
1
1
1
1
1
1
1
1
1
1
1
1
1
1
1
0.999999
0.999992
0.999954
0.999746
0.998761
0.994776
0.982083
0.953856
0.898059
0.764827
0.572913
0.391937
0.246218
0.142746
0.0766872
0.0382952
0.017816
0.00773381
0.00313562
0.00118799
0.000420625
0.000139134
4.29674e-05
1.23757e-05
3.31999e-06
8.28117e-07
1.91659e-07
4.10557e-08
8.11636e-09
1.47579e-09
2.45845e-10
3.73506e-11
5.14803e-12
6.39741e-13
7.1338e-14
7.09468e-15
6.23017e-16
4.77142e-17
3.13774e-18
1.73614e-19
7.8616e-21
2.79863e-22
7.34942e-24
1.267e-25
1.07586e-27
1
1
1
1
1
1
1
1
1
1
1
1
1
1
1
1
1
1
1
1
1
1
1
1
1
1
1
1
1
1
1
1
1
1
1
1
1
1
1
1
1
1
1
1
1
1
1
1
1
1
1
1
1
1
1
1
0.999998
0.99999
0.999955
0.999805
0.999212
0.997072
0.989702
0.964156
0.87457
0.648037
0.430084
0.265357
0.15237
0.0815783
0.0407957
0.0190849
0.00836298
0.0034361
0.00132468
0.000479368
0.000162851
5.19267e-05
1.55333e-05
4.35582e-06
1.14375e-06
2.8082e-07
6.43537e-08
1.37342e-08
2.72243e-09
4.99602e-10
8.45525e-11
1.31355e-11
1.86281e-12
2.39353e-13
2.76276e-14
2.83675e-15
2.55921e-16
1.99669e-17
1.3193e-18
7.17421e-20
3.08034e-21
9.78243e-23
2.04057e-24
2.09339e-26
1
1
1
1
1
1
1
1
1
1
1
1
1
1
1
1
1
1
1
1
1
1
1
1
1
1
1
1
1
1
1
1
1
1
1
1
1
1
1
1
1
1
1
1
1
1
1
1
1
1
1
1
1
1
1
1
0.999998
0.99999
0.999957
0.999811
0.999206
0.996771
0.987255
0.951136
0.819361
0.571204
0.366242
0.218455
0.121559
0.0632323
0.0308053
0.0140777
0.00604232
0.00243803
0.000925345
0.000330467
0.00011105
3.51048e-05
1.04336e-05
2.91313e-06
7.63236e-07
1.8737e-07
4.3023e-08
9.21935e-09
1.83883e-09
3.4028e-10
5.81994e-11
9.1578e-12
1.31841e-12
1.72498e-13
2.03428e-14
2.14064e-15
1.98337e-16
1.59118e-17
1.0822e-18
6.0615e-20
2.68139e-21
8.77104e-23
1.88284e-24
1.98477e-26
1
1
1
1
1
1
1
1
1
1
1
1
1
1
1
1
1
1
1
1
1
1
1
1
1
1
1
1
1
1
1
1
1
1
1
1
1
1
1
1
1
1
1
1
1
1
1
1
1
1
1
1
1
1
1
0.999999
0.999997
0.999988
0.999943
0.99974
0.998852
0.995106
0.979991
0.922113
0.731378
0.486155
0.300205
0.172567
0.0925391
0.0463926
0.0217834
0.00959423
0.00396843
0.0015429
0.000564205
0.00019412
6.28464e-05
1.91429e-05
5.48367e-06
1.47633e-06
3.73184e-07
8.84583e-08
1.963e-08
4.06995e-09
7.86437e-10
1.41198e-10
2.34691e-11
3.59532e-12
5.04917e-13
6.45797e-14
7.46222e-15
7.7124e-16
7.05259e-17
5.62297e-18
3.82431e-19
2.15381e-20
9.62426e-22
3.19148e-23
6.96285e-25
7.46839e-27
1
1
1
1
1
1
1
1
1
1
1
1
1
1
1
1
1
1
1
1
1
1
1
1
1
1
1
1
1
1
1
1
1
1
1
1
1
1
1
1
1
1
1
1
1
1
1
1
1
1
1
1
1
1
1
0.999999
0.999997
0.999987
0.99994
0.999719
0.998742
0.994576
0.977629
0.91234
0.705298
0.461294
0.280379
0.158512
0.0835314
0.0411149
0.0189344
0.00816961
0.003306
0.00125569
0.000447863
0.000150034
4.72076e-05
1.39477e-05
3.8677e-06
1.0059e-06
2.45122e-07
5.5898e-08
1.19101e-08
2.36654e-09
4.37499e-10
7.50384e-11
1.19002e-11
1.73781e-12
2.32511e-13
2.83273e-14
3.11872e-15
3.07333e-16
2.67817e-17
2.03184e-18
1.31434e-19
7.04314e-21
2.99807e-22
9.48787e-24
1.98001e-25
2.03652e-27
1
1
1
1
1
1
1
1
1
1
1
1
1
1
1
1
1
1
1
1
1
1
1
1
1
1
1
1
1
1
1
1
1
1
1
1
1
1
1
1
1
1
1
1
1
1
1
1
1
1
1
1
1
1
1
0.999999
0.999997
0.999986
0.999935
0.999703
0.99868
0.994362
0.976921
0.909991
0.700143
0.456968
0.277075
0.156169
0.0819895
0.0401729
0.0184
0.00788794
0.00316797
0.00119274
0.000421123
0.000139455
4.3308e-05
1.26068e-05
3.43759e-06
8.77231e-07
2.09253e-07
4.65896e-08
9.66498e-09
1.86418e-09
3.33475e-10
5.5162e-11
8.40796e-12
1.17598e-12
1.50173e-13
1.74036e-14
1.81685e-15
1.69285e-16
1.39141e-17
9.93632e-19
6.04097e-20
3.03985e-21
1.21492e-22
3.61206e-24
7.09121e-26
6.87522e-28
1
1
1
1
1
1
1
1
1
1
1
1
1
1
1
1
1
1
1
1
1
1
1
1
1
1
1
1
1
1
1
1
1
1
1
1
1
1
1
1
1
1
1
1
1
1
1
1
1
1
1
1
1
1
1
0.999999
0.999997
0.999987
0.999937
0.999712
0.998725
0.994552
0.977671
0.912762
0.706113
0.461062
0.279511
0.157475
0.082625
0.0404541
0.0185129
0.00792858
0.00318069
0.00119594
0.000421586
0.00013933
4.31498e-05
1.25154e-05
3.39686e-06
8.6177e-07
2.04067e-07
4.50277e-08
9.23883e-09
1.75846e-09
3.09594e-10
5.02622e-11
7.49607e-12
1.02238e-12
1.26842e-13
1.42247e-14
1.43099e-15
1.27928e-16
1.00444e-17
6.82264e-19
3.92946e-20
1.86641e-21
7.01999e-23
1.95994e-24
3.60898e-26
3.2817e-28
1
1
1
1
1
1
1
1
1
1
1
1
1
1
1
1
1
1
1
1
1
1
1
1
1
1
1
1
1
1
1
1
1
1
1
1
1
1
1
1
1
1
1
1
1
1
1
1
1
1
1
1
1
1
1
1
0.999998
0.999989
0.999948
0.999761
0.998931
0.995375
0.980778
0.923886
0.73156
0.479011
0.290358
0.163427
0.0856183
0.0418451
0.0191132
0.0081697
0.00327118
0.00122777
0.000432033
0.000142519
4.40629e-05
1.27594e-05
3.45738e-06
8.75582e-07
2.06934e-07
4.55583e-08
9.32327e-09
1.76903e-09
3.10297e-10
5.01351e-11
7.42725e-12
1.00406e-12
1.23162e-13
1.36164e-14
1.34594e-15
1.17793e-16
9.01874e-18
5.95108e-19
3.31626e-20
1.518e-21
5.48185e-23
1.46464e-24
2.574e-26
2.22999e-28
1
1
1
1
1
1
1
1
1
1
1
1
1
1
1
1
1
1
1
1
1
1
1
1
1
1
1
1
1
1
1
1
1
1
1
1
1
1
1
1
1
1
1
1
1
1
1
1
1
1
1
1
1
1
1
1
0.999998
0.999991
0.999957
0.999798
0.999082
0.995966
0.983015
0.932053
0.753026
0.496506
0.302297
0.170817
0.0898055
0.0440283
0.020166
0.00864123
0.0034672
0.00130328
0.000459073
0.000151525
4.68489e-05
1.35598e-05
3.67067e-06
9.28201e-07
2.18914e-07
4.80645e-08
9.80217e-09
1.85212e-09
3.23395e-10
5.19947e-11
7.66702e-12
1.0317e-12
1.2595e-13
1.38538e-14
1.36178e-15
1.18438e-16
9.00266e-18
5.88273e-19
3.23791e-20
1.45987e-21
5.17814e-23
1.35521e-24
2.32732e-26
1.96651e-28
1
1
1
1
1
1
1
1
1
1
1
1
1
1
1
1
1
1
1
1
1
1
1
1
1
1
1
1
1
1
1
1
1
1
1
1
1
1
1
1
1
1
1
1
1
1
1
1
1
1
1
1
1
1
1
1
0.999998
0.999992
0.99996
0.99981
0.999129
0.996158
0.983775
0.934942
0.761303
0.503997
0.307904
0.174625
0.0921712
0.0453763
0.0208723
0.00898241
0.00361989
0.00136684
0.000483681
0.000160392
4.98219e-05
1.44871e-05
3.9396e-06
1.00065e-06
2.37019e-07
5.22554e-08
1.06987e-08
2.02849e-09
3.54887e-10
5.70852e-11
8.40754e-12
1.12822e-12
1.37146e-13
1.49984e-14
1.46354e-15
1.26282e-16
9.51704e-18
6.17018e-19
3.37104e-20
1.50913e-21
5.31586e-23
1.3818e-24
2.35711e-26
1.97875e-28
1
1
1
1
1
1
1
1
1
1
1
1
1
1
1
1
1
1
1
1
1
1
1
1
1
1
1
1
1
1
1
1
1
1
1
1
1
1
1
1
1
1
1
1
1
1
1
1
1
1
1
1
1
1
1
1
0.999998
0.999992
0.999962
0.999823
0.999192
0.996435
0.984904
0.939196
0.773633
0.514666
0.315468
0.179519
0.0950864
0.0469784
0.0216866
0.00936624
0.00378812
0.00143555
0.000509873
0.000169716
5.29234e-05
1.54506e-05
4.21893e-06
1.07614e-06
2.56014e-07
5.66954e-08
1.16609e-08
2.22147e-09
3.9074e-10
6.32212e-11
9.36877e-12
1.26518e-12
1.54772e-13
1.70319e-14
1.67193e-15
1.44803e-16
1.09286e-17
7.0766e-19
3.85258e-20
1.71513e-21
5.9974e-23
1.54528e-24
2.6101e-26
2.17051e-28
1
1
1
1
1
1
1
1
1
1
1
1
1
1
1
1
1
1
1
1
1
1
1
1
1
1
1
1
1
1
1
1
1
1
1
1
1
1
1
1
1
1
1
1
1
1
1
1
1
1
1
1
1
1
1
1
0.999999
0.999993
0.999966
0.99984
0.999277
0.996832
0.986614
0.945991
0.795469
0.534209
0.328926
0.18779
0.0997452
0.0494075
0.0228658
0.00990099
0.00401509
0.00152578
0.000543476
0.000181438
5.67513e-05
1.66201e-05
4.55282e-06
1.16513e-06
2.78116e-07
6.18027e-08
1.27564e-08
2.43906e-09
4.30644e-10
6.99551e-11
1.04101e-11
1.41202e-12
1.73543e-13
1.91913e-14
1.89365e-15
1.65032e-16
1.25447e-17
8.18647e-19
4.49303e-20
2.0166e-21
7.108e-23
1.84546e-24
3.13871e-26
2.62108e-28
1
1
1
1
1
1
1
1
1
1
1
1
1
1
1
1
1
1
1
1
1
1
1
1
1
1
1
1
1
1
1
1
1
1
1
1
1
1
1
1
1
1
1
1
1
1
1
1
1
1
1
1
1
1
1
1
0.999999
0.999993
0.999967
0.999848
0.999321
0.997065
0.987736
0.950841
0.813075
0.552215
0.342458
0.196652
0.104973
0.0522242
0.0242642
0.0105446
0.00429083
0.00163604
0.000584688
0.000195851
6.14684e-05
1.80644e-05
4.96629e-06
1.27566e-06
3.05667e-07
6.81945e-08
1.41335e-08
2.71386e-09
4.81284e-10
7.85419e-11
1.17444e-11
1.6011e-12
1.9784e-13
2.20033e-14
2.18438e-15
1.91621e-16
1.46695e-17
9.64671e-19
5.33814e-20
2.41689e-21
8.59697e-23
2.25307e-24
3.86883e-26
3.26458e-28
1
1
1
1
1
1
1
1
1
1
1
1
1
1
1
1
1
1
1
1
1
1
1
1
1
1
1
1
1
1
1
1
1
1
1
1
1
1
1
1
1
1
1
1
1
1
1
1
1
1
1
1
1
1
1
1
0.999999
0.999993
0.999968
0.999852
0.999343
0.997181
0.98833
0.953592
0.824151
0.565614
0.353743
0.204678
0.11002
0.0550892
0.0257521
0.0112572
0.00460711
0.00176654
0.000634831
0.000213811
6.74673e-05
1.9933e-05
5.50889e-06
1.42242e-06
3.42602e-07
7.68298e-08
1.60055e-08
3.08924e-09
5.50709e-10
9.03432e-11
1.35806e-11
1.8613e-12
2.31223e-13
2.58538e-14
2.58023e-15
2.27531e-16
1.7509e-17
1.15736e-18
6.43765e-20
2.92983e-21
1.04755e-22
2.75946e-24
4.76206e-26
4.03802e-28
1
1
1
1
1
1
1
1
1
1
1
1
1
1
1
1
1
1
1
1
1
1
1
1
1
1
1
1
1
1
1
1
1
1
1
1
1
1
1
1
1
1
1
1
1
1
1
1
1
1
1
1
1
1
1
1
0.999999
0.999993
0.999968
0.999853
0.999346
0.997203
0.988474
0.954431
0.82818
0.572471
0.360815
0.210433
0.113993
0.0575002
0.0270655
0.0119084
0.00490363
0.00189129
0.00068352
0.000231485
7.34438e-05
2.18169e-05
6.06247e-06
1.574e-06
3.81245e-07
8.59887e-08
1.80202e-08
3.49969e-09
6.2795e-10
1.03729e-10
1.5709e-11
2.17049e-12
2.7205e-13
3.07238e-14
3.10103e-15
2.76845e-16
2.15863e-17
1.44689e-18
8.16653e-20
3.77362e-21
1.37063e-22
3.66926e-24
6.43708e-26
5.54969e-28
1
1
1
1
1
1
1
1
1
1
1
1
1
1
1
1
1
1
1
1
1
1
1
1
1
1
1
1
1
1
1
1
1
1
1
1
1
1
1
1
1
1
1
1
1
1
1
1
1
1
1
1
1
1
1
1
0.999999
0.999993
0.999968
0.999854
0.999352
0.997218
0.988518
0.954627
0.829171
0.575562
0.364927
0.214328
0.116986
0.059473
0.0282149
0.0125112
0.00519146
0.00201737
0.000734439
0.000250507
8.00301e-05
2.39332e-05
6.6938e-06
1.74881e-06
4.26138e-07
9.66678e-08
2.03688e-08
3.97603e-09
7.16777e-10
1.18901e-10
1.80719e-11
2.50413e-12
3.14468e-13
3.55393e-14
3.58421e-15
3.20232e-16
2.50269e-17
1.68338e-18
9.54376e-20
4.43323e-21
1.61972e-22
4.36394e-24
7.70764e-26
6.69169e-28
1
1
1
1
1
1
1
1
1
1
1
1
1
1
1
1
1
1
1
1
1
1
1
1
1
1
1
1
1
1
1
1
1
1
1
1
1
1
1
1
1
1
1
1
1
1
1
1
1
1
1
1
1
1
1
1
0.999999
0.999994
0.99997
0.999859
0.999367
0.997264
0.988659
0.955082
0.830769
0.578484
0.368473
0.217714
0.119674
0.06131
0.0293214
0.0131088
0.00548439
0.00214878
0.000788717
0.00027123
8.73626e-05
2.63415e-05
7.42859e-06
1.95709e-06
4.80964e-07
1.10057e-07
2.33982e-08
4.60989e-09
8.3914e-10
1.40634e-10
2.16116e-11
3.03077e-12
3.85706e-13
4.42499e-14
4.5397e-15
4.11629e-16
3.25849e-17
2.21667e-18
1.26965e-19
5.95441e-21
2.19562e-22
5.96916e-24
1.06372e-25
9.31717e-28
1
1
1
1
1
1
1
1
1
1
1
1
1
1
1
1
1
1
1
1
1
1
1
1
1
1
1
1
1
1
1
1
1
1
1
1
1
1
1
1
1
1
1
1
1
1
1
1
1
1
1
1
1
1
1
1
0.999999
0.999994
0.999971
0.999866
0.999394
0.997362
0.988986
0.95614
0.834328
0.583544
0.373486
0.221934
0.122781
0.0633415
0.0305149
0.0137449
0.00579425
0.00228755
0.000846089
0.00029319
9.51607e-05
2.8913e-05
8.21634e-06
2.18124e-06
5.40158e-07
1.24546e-07
2.6679e-08
5.29545e-09
9.70921e-10
1.63843e-10
2.53375e-11
3.57263e-12
4.56554e-13
5.2505e-14
5.38879e-15
4.88718e-16
3.87313e-17
2.64652e-18
1.52562e-19
7.20866e-21
2.67948e-22
7.34469e-24
1.31968e-25
1.16541e-27
1
1
1
1
1
1
1
1
1
1
1
1
1
1
1
1
1
1
1
1
1
1
1
1
1
1
1
1
1
1
1
1
1
1
1
1
1
1
1
1
1
1
1
1
1
1
1
1
1
1
1
1
1
1
1
1
0.999999
0.999994
0.999973
0.999872
0.999422
0.997479
0.98945
0.9579
0.840575
0.590838
0.379644
0.226754
0.12622
0.0655646
0.0318204
0.014444
0.00613727
0.00244234
0.000910558
0.000318038
0.000104039
3.18577e-05
9.12342e-06
2.44075e-06
6.09077e-07
1.41523e-07
3.05532e-08
6.1132e-09
1.1303e-09
1.92472e-10
3.00679e-11
4.28985e-12
5.55957e-13
6.50182e-14
6.80371e-15
6.30055e-16
5.09579e-17
3.53939e-18
2.07031e-19
9.91952e-21
3.7378e-22
1.03845e-23
1.89067e-25
1.69132e-27
1
1
1
1
1
1
1
1
1
1
1
1
1
1
1
1
1
1
1
1
1
1
1
1
1
1
1
1
1
1
1
1
1
1
1
1
1
1
1
1
1
1
1
1
1
1
1
1
1
1
1
1
1
1
1
1
0.999999
0.999995
0.999976
0.999886
0.99948
0.997714
0.990353
0.961094
0.851436
0.603033
0.388133
0.232352
0.129784
0.0677599
0.0330951
0.0151321
0.00648086
0.00260099
0.000978342
0.000344869
0.000113888
3.52121e-05
1.01836e-05
2.75159e-06
6.93542e-07
1.62764e-07
3.54859e-08
7.16793e-09
1.33714e-09
2.29477e-10
3.60657e-11
5.16305e-12
6.69167e-13
7.79928e-14
8.12234e-15
7.51889e-16
6.09801e-17
4.25945e-18
2.50898e-19
1.21145e-20
4.60255e-22
1.28972e-23
2.36906e-25
2.13861e-27
1
1
1
1
1
1
1
1
1
1
1
1
1
1
1
1
1
1
1
1
1
1
1
1
1
1
1
1
1
1
1
1
1
1
1
1
1
1
1
1
1
1
1
1
1
1
1
1
1
1
1
1
1
1
1
1
0.999999
0.999996
0.99998
0.999905
0.99957
0.99811
0.991977
0.967357
0.8736
0.631225
0.406362
0.24382
0.136516
0.0714391
0.0349892
0.0160547
0.00690583
0.00278567
0.00105387
0.000373864
0.000124316
3.8719e-05
1.12847e-05
3.07387e-06
7.81357e-07
1.85007e-07
4.07163e-08
8.30823e-09
1.56736e-09
2.72484e-10
4.3493e-11
6.34604e-12
8.4165e-13
1.00702e-13
1.07615e-14
1.01388e-15
8.3321e-17
5.88609e-18
3.5035e-19
1.70875e-20
6.55643e-22
1.85531e-23
3.44088e-25
3.13531e-27
1
1
1
1
1
1
1
1
1
1
1
1
1
1
1
1
1
1
1
1
1
1
1
1
1
1
1
1
1
1
1
1
1
1
1
1
1
1
1
1
1
1
1
1
1
1
1
1
1
1
1
1
1
1
1
1
0.999999
0.999996
0.999983
0.999922
0.99965
0.998467
0.993499
0.973487
0.896958
0.672269
0.435156
0.262284
0.147346
0.0773289
0.0379813
0.0174813
0.00754621
0.00305666
0.00116201
0.000414539
0.000138721
4.35149e-05
1.27829e-05
3.51199e-06
9.00976e-07
2.15406e-07
4.78816e-08
9.86824e-09
1.8795e-09
3.29526e-10
5.29407e-11
7.75234e-12
1.02868e-12
1.22923e-13
1.31321e-14
1.24233e-15
1.02811e-16
7.32592e-18
4.4027e-19
2.16974e-20
8.41919e-22
2.4118e-23
4.5337e-25
4.19266e-27
1
1
1
1
1
1
1
1
1
1
1
1
1
1
1
1
1
1
1
1
1
1
1
1
1
1
1
1
1
1
1
1
1
1
1
1
1
1
1
1
1
1
1
1
1
1
1
1
1
1
1
1
1
1
1
1
0.999999
0.999997
0.999986
0.999936
0.999711
0.998736
0.994646
0.978154
0.914849
0.711421
0.465788
0.283341
0.160405
0.0847141
0.041825
0.0193347
0.00837787
0.003405
0.00129845
0.000464576
0.000155909
4.90461e-05
1.44498e-05
3.98214e-06
1.02496e-06
2.45938e-07
5.48896e-08
1.13668e-08
2.17748e-09
3.84433e-10
6.22845e-11
9.21534e-12
1.23822e-12
1.50104e-13
1.62836e-14
1.56446e-15
1.31384e-16
9.48691e-18
5.76632e-19
2.86773e-20
1.12049e-21
3.22618e-23
6.08726e-25
5.6463e-27
1
1
1
1
1
1
1
1
1
1
1
1
1
1
1
1
1
1
1
1
1
1
1
1
1
1
1
1
1
1
1
1
1
1
1
1
1
1
1
1
1
1
1
1
1
1
1
1
1
1
1
1
1
1
1
1
0.999999
0.999998
0.999988
0.999946
0.999758
0.99894
0.995501
0.981585
0.927904
0.744675
0.494446
0.304389
0.174332
0.0930976
0.0464542
0.0216951
0.0094945
0.0038967
0.00150043
0.000542068
0.000183696
5.83596e-05
1.73667e-05
4.83525e-06
1.25775e-06
3.05141e-07
6.89076e-08
1.44466e-08
2.80211e-09
5.01045e-10
8.22559e-11
1.23386e-11
1.6813e-12
2.06654e-13
2.27188e-14
2.21148e-15
1.88265e-16
1.37965e-17
8.52372e-19
4.31436e-20
1.71637e-21
5.0278e-23
9.63354e-25
9.05009e-27
1
1
1
1
1
1
1
1
1
1
1
1
1
1
1
1
1
1
1
1
1
1
1
1
1
1
1
1
1
1
1
1
1
1
1
1
1
1
1
1
1
1
1
1
1
1
1
1
1
1
1
1
1
1
1
1
1
0.999998
0.99999
0.999955
0.999797
0.99911
0.996204
0.984378
0.938452
0.774617
0.521129
0.32396
0.187292
0.100932
0.0508047
0.0239256
0.0105548
0.00436535
0.00169344
0.000616227
0.00021029
6.72593e-05
2.01435e-05
5.64166e-06
1.47518e-06
3.59368e-07
8.13518e-08
1.70835e-08
3.3254e-09
5.97433e-10
9.86065e-11
1.48749e-11
2.03866e-12
2.52073e-13
2.78857e-14
2.73254e-15
2.34368e-16
1.73379e-17
1.08315e-18
5.55438e-20
2.24377e-21
6.69161e-23
1.30897e-24
1.25878e-26
1
1
1
1
1
1
1
1
1
1
1
1
1
1
1
1
1
1
1
1
1
1
1
1
1
1
1
1
1
1
1
1
1
1
1
1
1
1
1
1
1
1
1
1
1
1
1
1
1
1
1
1
1
1
1
1
1
0.999998
0.999992
0.999961
0.999826
0.99924
0.996763
0.986675
0.947373
0.803288
0.548907
0.345066
0.201675
0.109893
0.0559408
0.0266459
0.0118907
0.00497521
0.00195274
0.000719049
0.000248361
8.04313e-05
2.44047e-05
6.93092e-06
1.83993e-06
4.558e-07
1.05155e-07
2.25159e-08
4.45387e-09
8.10926e-10
1.35267e-10
2.05624e-11
2.83171e-12
3.50851e-13
3.8794e-14
3.79065e-15
3.23281e-16
2.3786e-17
1.48123e-18
7.58421e-20
3.06309e-21
9.14342e-23
1.79208e-24
1.72863e-26
1
1
1
1
1
1
1
1
1
1
1
1
1
1
1
1
1
1
1
1
1
1
1
1
1
1
1
1
1
1
1
1
1
1
1
1
1
1
1
1
1
1
1
1
1
1
1
1
1
1
1
1
1
1
1
1
1
0.999998
0.999993
0.999966
0.999846
0.999327
0.99715
0.988334
0.954069
0.827366
0.574476
0.365213
0.215653
0.118698
0.06103
0.0293626
0.0132356
0.00559421
0.00221796
0.000824877
0.000287668
9.40105e-05
2.87635e-05
8.23023e-06
2.19964e-06
5.48293e-07
1.27237e-07
2.74309e-08
5.48192e-09
1.01316e-09
1.72418e-10
2.68697e-11
3.80904e-12
4.87397e-13
5.57932e-14
5.65353e-15
5.00637e-16
3.80223e-17
2.42571e-18
1.26483e-19
5.17727e-21
1.56001e-22
3.076e-24
2.97711e-26
1
1
1
1
1
1
1
1
1
1
1
1
1
1
1
1
1
1
1
1
1
1
1
1
1
1
1
1
1
1
1
1
1
1
1
1
1
1
1
1
1
1
1
1
1
1
1
1
1
1
1
1
1
1
1
1
1
0.999999
0.999993
0.999969
0.999863
0.999399
0.997456
0.989604
0.959124
0.84629
0.597786
0.384532
0.22979
0.12799
0.0665892
0.0324179
0.0147885
0.00632783
0.00254113
0.000957875
0.000338828
0.000112388
3.49136e-05
1.01384e-05
2.74562e-06
6.9184e-07
1.61796e-07
3.50155e-08
6.9889e-09
1.28588e-09
2.18263e-10
3.39895e-11
4.82553e-12
6.1986e-13
7.13964e-14
7.29485e-15
6.52571e-16
5.02649e-17
3.26214e-18
1.73324e-19
7.23495e-21
2.22369e-22
4.47175e-24
4.41185e-26
1
1
1
1
1
1
1
1
1
1
1
1
1
1
1
1
1
1
1
1
1
1
1
1
1
1
1
1
1
1
1
1
1
1
1
1
1
1
1
1
1
1
1
1
1
1
1
1
1
1
1
1
1
1
1
1
1
0.999999
0.999994
0.999974
0.999881
0.999477
0.997778
0.990872
0.963928
0.86364
0.621436
0.403332
0.243596
0.137182
0.07217
0.0355246
0.0163823
0.00708481
0.0028754
0.00109566
0.00039205
0.000131731
4.15554e-05
1.23057e-05
3.41428e-06
8.84726e-07
2.13434e-07
4.77799e-08
9.88976e-09
1.88123e-09
3.26844e-10
5.17048e-11
7.41554e-12
9.58749e-13
1.10921e-13
1.1375e-14
1.02149e-15
7.90817e-17
5.16998e-18
2.77363e-19
1.17157e-20
3.65024e-22
7.45097e-24
7.46818e-26
1
1
1
1
1
1
1
1
1
1
1
1
1
1
1
1
1
1
1
1
1
1
1
1
1
1
1
1
1
1
1
1
1
1
1
1
1
1
1
1
1
1
1
1
1
1
1
1
1
1
1
1
1
1
1
1
1
0.999999
0.999995
0.999978
0.9999
0.999561
0.998128
0.992262
0.969208
0.882792
0.651243
0.425931
0.259795
0.147874
0.07868
0.0391861
0.0182868
0.00800156
0.00328382
0.00126398
0.000456139
0.00015422
4.8799e-05
1.44228e-05
3.99586e-06
1.03826e-06
2.51994e-07
5.69105e-08
1.19117e-08
2.30003e-09
4.07285e-10
6.57766e-11
9.63175e-12
1.27038e-12
1.49745e-13
1.56235e-14
1.42548e-15
1.11984e-16
7.42075e-18
4.03264e-19
1.7249e-20
5.44265e-22
1.1255e-23
1.1436e-25
1
1
1
1
1
1
1
1
1
1
1
1
1
1
1
1
1
1
1
1
1
1
1
1
1
1
1
1
1
1
1
1
1
1
1
1
1
1
1
1
1
1
1
1
1
1
1
1
1
1
1
1
1
1
1
1
1
0.999999
0.999996
0.999982
0.999918
0.999638
0.998451
0.993571
0.974276
0.901464
0.685867
0.452358
0.278553
0.160164
0.0861416
0.0434034
0.0205123
0.00910012
0.00379158
0.00148378
0.000545226
0.000188008
6.07845e-05
1.84112e-05
5.20657e-06
1.37381e-06
3.38341e-07
7.74642e-08
1.64322e-08
3.21934e-09
5.80344e-10
9.5748e-11
1.43627e-11
1.94371e-12
2.35014e-13
2.50982e-14
2.33582e-15
1.86358e-16
1.248e-17
6.81867e-19
2.91774e-20
9.16845e-22
1.89488e-23
1.9314e-25
1
1
1
1
1
1
1
1
1
1
1
1
1
1
1
1
1
1
1
1
1
1
1
1
1
1
1
1
1
1
1
1
1
1
1
1
1
1
1
1
1
1
1
1
1
1
1
1
1
1
1
1
1
1
1
1
1
0.999999
0.999997
0.999985
0.999933
0.999705
0.998733
0.994722
0.978764
0.918077
0.722244
0.481252
0.299232
0.173773
0.0943996
0.0480418
0.0229329
0.0102777
0.00432706
0.00171191
0.000636391
0.000222169
7.27566e-05
2.23092e-05
6.38013e-06
1.69471e-06
4.17226e-07
9.59361e-08
2.05188e-08
4.05946e-09
7.39388e-10
1.2335e-10
1.87339e-11
2.57196e-12
3.17948e-13
3.49596e-14
3.3713e-15
2.80167e-16
1.96231e-17
1.12462e-18
5.05661e-20
1.6705e-21
3.58737e-23
3.75838e-25
1
1
1
1
1
1
1
1
1
1
1
1
1
1
1
1
1
1
1
1
1
1
1
1
1
1
1
1
1
1
1
1
1
1
1
1
1
1
1
1
1
1
1
1
1
1
1
1
1
1
1
1
1
1
1
1
1
0.999999
0.999997
0.999987
0.999944
0.999757
0.998964
0.995699
0.982681
0.932934
0.760949
0.513957
0.32288
0.18949
0.104077
0.053579
0.02588
0.0117376
0.00500054
0.00200155
0.000752735
0.000265969
8.82911e-05
2.75373e-05
8.07264e-06
2.22041e-06
5.69686e-07
1.3514e-07
2.95716e-08
5.9496e-09
1.09559e-09
1.83693e-10
2.78798e-11
3.80386e-12
4.64555e-13
5.07692e-14
4.89001e-15
4.07759e-16
2.87821e-17
1.66901e-18
7.62016e-20
2.56415e-21
5.642e-23
6.08343e-25
1
1
1
1
1
1
1
1
1
1
1
1
1
1
1
1
1
1
1
1
1
1
1
1
1
1
1
1
1
1
1
1
1
1
1
1
1
1
1
1
1
1
1
1
1
1
1
1
1
1
1
1
1
1
1
1
1
0.999999
0.999998
0.999989
0.999951
0.999789
0.999118
0.996393
0.985662
0.944879
0.79848
0.549836
0.349884
0.207674
0.115313
0.0600246
0.0293356
0.0134735
0.00581778
0.00236137
0.000900395
0.000322173
0.000108019
3.38804e-05
9.92406e-06
2.71652e-06
6.98032e-07
1.67909e-07
3.76965e-08
7.8553e-09
1.50937e-09
2.65574e-10
4.2475e-11
6.12487e-12
7.85756e-13
8.84078e-14
8.63676e-15
7.22317e-16
5.07211e-17
2.91071e-18
1.31426e-19
4.41454e-21
9.76536e-23
1.06402e-24
1
1
1
1
1
1
1
1
1
1
1
1
1
1
1
1
1
1
1
1
1
1
1
1
1
1
1
1
1
1
1
1
1
1
1
1
1
1
1
1
1
1
1
1
1
1
1
1
1
1
1
1
1
1
1
1
1
1
0.999998
0.99999
0.999956
0.999813
0.999219
0.996839
0.987586
0.952785
0.826964
0.582611
0.377544
0.227742
0.128288
0.0676427
0.0334535
0.0155441
0.00679388
0.00279526
0.00108288
0.000394862
0.000135365
4.35274e-05
1.3075e-05
3.65333e-06
9.46263e-07
2.26889e-07
5.02761e-08
1.04026e-08
1.99614e-09
3.52813e-10
5.69887e-11
8.33887e-12
1.09728e-12
1.28448e-13
1.31707e-14
1.16167e-15
8.61629e-17
5.21563e-18
2.4675e-19
8.51445e-21
1.90861e-22
2.08629e-24
1
1
1
1
1
1
1
1
1
1
1
1
1
1
1
1
1
1
1
1
1
1
1
1
1
1
1
1
1
1
1
1
1
1
1
1
1
1
1
1
1
1
1
1
1
1
1
1
1
1
1
1
1
1
1
1
1
1
0.999998
0.999992
0.999963
0.999839
0.999325
0.997246
0.989121
0.958474
0.847272
0.608712
0.401541
0.246828
0.141682
0.0760536
0.0382325
0.0180227
0.00797536
0.00331589
0.00129625
0.00047676
0.000165105
5.3894e-05
1.66106e-05
4.81827e-06
1.30538e-06
3.28438e-07
7.63508e-08
1.62164e-08
3.14466e-09
5.5507e-10
8.87722e-11
1.27993e-11
1.67334e-12
1.95646e-13
2.01651e-14
1.79905e-15
1.35754e-16
8.40429e-18
4.08881e-19
1.46195e-20
3.40818e-22
3.88288e-24
1
1
1
1
1
1
1
1
1
1
1
1
1
1
1
1
1
1
1
1
1
1
1
1
1
1
1
1
1
1
1
1
1
1
1
1
1
1
1
1
1
1
1
1
1
1
1
1
1
1
1
1
1
1
1
1
1
1
0.999999
0.999993
0.99997
0.99987
0.999447
0.997713
0.990839
0.964571
0.868217
0.63628
0.424294
0.264712
0.154621
0.0846249
0.0434299
0.0209131
0.00945263
0.00401074
0.00159693
0.000596307
0.000208655
6.83403e-05
2.09157e-05
6.00963e-06
1.63035e-06
4.16355e-07
9.94084e-08
2.20391e-08
4.50718e-09
8.44536e-10
1.43945e-10
2.21218e-11
3.01552e-12
3.62137e-13
3.79143e-14
3.41027e-15
2.58222e-16
1.59766e-17
7.7575e-19
2.77101e-20
6.54151e-22
7.60699e-24
1
1
1
1
1
1
1
1
1
1
1
1
1
1
1
1
1
1
1
1
1
1
1
1
1
1
1
1
1
1
1
1
1
1
1
1
1
1
1
1
1
1
1
1
1
1
1
1
1
1
1
1
1
1
1
1
1
1
0.999999
0.999995
0.999977
0.999897
0.999562
0.998177
0.992625
0.971177
0.891747
0.673151
0.451807
0.284555
0.168092
0.0932188
0.0485724
0.0237958
0.0109657
0.00475394
0.00193843
0.000742665
0.000266735
8.96217e-05
2.80989e-05
8.18679e-06
2.20825e-06
5.58435e-07
1.32487e-07
2.93522e-08
6.03507e-09
1.1437e-09
1.98246e-10
3.11614e-11
4.39024e-12
5.47792e-13
5.97357e-14
5.60223e-15
4.42488e-16
2.86579e-17
1.45465e-18
5.41896e-20
1.31739e-21
1.57299e-23
1
1
1
1
1
1
1
1
1
1
1
1
1
1
1
1
1
1
1
1
1
1
1
1
1
1
1
1
1
1
1
1
1
1
1
1
1
1
1
1
1
1
1
1
1
1
1
1
1
1
1
1
1
1
1
1
1
1
0.999999
0.999996
0.999982
0.99992
0.999659
0.998578
0.994223
0.977275
0.913979
0.717414
0.486171
0.309352
0.184772
0.103686
0.0547124
0.0271682
0.0127031
0.00559608
0.00232362
0.000910153
0.000337074
0.000117563
3.85159e-05
1.18115e-05
3.37784e-06
8.91366e-07
2.16974e-07
4.87236e-08
1.00821e-08
1.91695e-09
3.33354e-10
5.2673e-11
7.49978e-12
9.5108e-13
1.05843e-13
1.01469e-14
8.18534e-16
5.39194e-17
2.80806e-18
1.08225e-19
2.72703e-21
3.36167e-23
1
1
1
1
1
1
1
1
1
1
1
1
1
1
1
1
1
1
1
1
1
1
1
1
1
1
1
1
1
1
1
1
1
1
1
1
1
1
1
1
1
1
1
1
1
1
1
1
1
1
1
1
1
1
1
1
1
1
0.999999
0.999997
0.999986
0.999939
0.999738
0.998908
0.995555
0.982435
0.933055
0.764529
0.525218
0.337819
0.204099
0.115949
0.0619873
0.0311997
0.0147866
0.0065966
0.00276853
0.00109126
0.000402267
0.000140751
4.65089e-05
1.44544e-05
4.20875e-06
1.14214e-06
2.87336e-07
6.67716e-08
1.42856e-08
2.80343e-09
5.02276e-10
8.16643e-11
1.1956e-11
1.56058e-12
1.79105e-13
1.77747e-14
1.49148e-15
1.02732e-16
5.57149e-18
2.23057e-19
5.84347e-21
7.51485e-23
1
1
1
1
1
1
1
1
1
1
1
1
1
1
1
1
1
1
1
1
1
1
1
1
1
1
1
1
1
1
1
1
1
1
1
1
1
1
1
1
1
1
1
1
1
1
1
1
1
1
1
1
1
1
1
1
1
1
0.999999
0.999998
0.999989
0.999953
0.9998
0.999167
0.996619
0.98663
0.948865
0.812794
0.570026
0.371264
0.22693
0.130508
0.0707247
0.0361516
0.0174413
0.00794492
0.00341704
0.00138801
0.000532687
0.000191383
6.45506e-05
2.04598e-05
6.07868e-06
1.6905e-06
4.38719e-07
1.05722e-07
2.35224e-08
4.78805e-09
8.77877e-10
1.4373e-10
2.09522e-11
2.7706e-12
3.25138e-13
3.31817e-14
2.87606e-15
2.05352e-16
1.15652e-17
4.80665e-19
1.30953e-20
1.74306e-22
1
1
1
1
1
1
1
1
1
1
1
1
1
1
1
1
1
1
1
1
1
1
1
1
1
1
1
1
1
1
1
1
1
1
1
1
1
1
1
1
1
1
1
1
1
1
1
1
1
1
1
1
1
1
1
1
1
1
1
0.999998
0.999991
0.999963
0.999845
0.99936
0.997417
0.989824
0.961104
0.856776
0.619415
0.409806
0.253892
0.1478
0.0810213
0.041885
0.0204384
0.00941743
0.0040972
0.00168202
0.000651195
0.000237168
8.10745e-05
2.59348e-05
7.82088e-06
2.21235e-06
5.85021e-07
1.4405e-07
3.28681e-08
6.91189e-09
1.34878e-09
2.42703e-10
3.91238e-11
5.49241e-12
6.67693e-13
6.92762e-14
6.03607e-15
4.40151e-16
2.55766e-17
1.10544e-18
3.14157e-20
4.41471e-22
1
1
1
1
1
1
1
1
1
1
1
1
1
1
1
1
1
1
1
1
1
1
1
1
1
1
1
1
1
1
1
1
1
1
1
1
1
1
1
1
1
1
1
1
1
1
1
1
1
1
1
1
1
1
1
1
1
1
1
0.999998
0.999993
0.999971
0.99988
0.999506
0.998012
0.99219
0.970162
0.889818
0.67159
0.451325
0.284484
0.168346
0.0937314
0.0491933
0.0243718
0.0114091
0.00504975
0.00211321
0.000835919
0.000312544
0.000110538
3.69417e-05
1.15594e-05
3.38155e-06
9.21853e-07
2.33088e-07
5.42704e-08
1.1571e-08
2.25306e-09
4.00043e-10
6.47571e-11
9.42007e-12
1.20702e-12
1.33582e-13
1.25225e-14
9.64608e-16
5.89026e-17
2.66902e-18
7.97567e-20
1.16138e-21
1
1
1
1
1
1
1
1
1
1
1
1
1
1
1
1
1
1
1
1
1
1
1
1
1
1
1
1
1
1
1
1
1
1
1
1
1
1
1
1
1
1
1
1
1
1
1
1
1
1
1
1
1
1
1
1
1
1
1
0.999999
0.999995
0.999978
0.999908
0.999621
0.998474
0.993996
0.977005
0.914715
0.72245
0.49386
0.316967
0.191026
0.10827
0.0578028
0.0291062
0.0138367
0.00621358
0.00263584
0.00105563
0.000398524
0.000141422
4.73955e-05
1.50267e-05
4.48326e-06
1.25221e-06
3.25554e-07
7.82665e-08
1.72998e-08
3.50118e-09
6.47855e-10
1.09171e-10
1.65768e-11
2.2337e-12
2.62105e-13
2.61278e-14
2.14652e-15
1.39732e-16
6.77289e-18
2.16583e-19
3.47393e-21
1
1
1
1
1
1
1
1
1
1
1
1
1
1
1
1
1
1
1
1
1
1
1
1
1
1
1
1
1
1
1
1
1
1
1
1
1
1
1
1
1
1
1
1
1
1
1
1
1
1
1
1
1
1
1
1
1
1
1
0.999999
0.999996
0.999983
0.999929
0.999708
0.998828
0.995389
0.982306
0.934128
0.771514
0.537866
0.351389
0.215743
0.124651
0.0678714
0.034872
0.016926
0.00776811
0.003374
0.00138785
0.000541411
0.00020027
6.96987e-05
2.27691e-05
6.98518e-06
2.00884e-06
5.39938e-07
1.35185e-07
3.13239e-08
6.65326e-09
1.28191e-09
2.21813e-10
3.41554e-11
4.6441e-12
5.58489e-13
5.79469e-14
5.02389e-15
3.48524e-16
1.80612e-17
6.22241e-19
1.04005e-20
1
1
1
1
1
1
1
1
1
1
1
1
1
1
1
1
1
1
1
1
1
1
1
1
1
1
1
1
1
1
1
1
1
1
1
1
1
1
1
1
1
1
1
1
1
1
1
1
1
1
1
1
1
1
1
1
1
1
1
0.999999
0.999997
0.999987
0.999944
0.999774
0.999095
0.99645
0.986396
0.949286
0.817684
0.583583
0.388176
0.242661
0.142806
0.0792086
0.0414478
0.0204756
0.00955313
0.00420895
0.00175049
0.000684937
0.000253848
8.94227e-05
2.97652e-05
9.33357e-06
2.75053e-06
7.59946e-07
1.96319e-07
4.75928e-08
1.07023e-08
2.20022e-09
4.08305e-10
6.74333e-11
9.72199e-12
1.22642e-12
1.34268e-13
1.23829e-14
9.22761e-16
5.21915e-17
1.9822e-18
3.97825e-20
1
1
1
1
1
1
1
1
1
1
1
1
1
1
1
1
1
1
1
1
1
1
1
1
1
1
1
1
1
1
1
1
1
1
1
1
1
1
1
1
1
1
1
1
1
1
1
1
1
1
1
1
1
1
1
1
1
1
1
0.999999
0.999997
0.999989
0.999957
0.999824
0.999302
0.997273
0.989572
0.961097
0.859111
0.630627
0.427134
0.272058
0.163328
0.0925435
0.0495405
0.0250759
0.0120084
0.00544438
0.00233778
0.000953064
0.000367827
0.000133686
4.57737e-05
1.47507e-05
4.44495e-06
1.24496e-06
3.21812e-07
7.68741e-08
1.73615e-08
3.65103e-09
7.05384e-10
1.23566e-10
1.93469e-11
2.65562e-12
3.14527e-13
3.14464e-14
2.55794e-15
1.58812e-16
6.71041e-18
1.40442e-19
1
1
1
1
1
1
1
1
1
1
1
1
1
1
1
1
1
1
1
1
1
1
1
1
1
1
1
1
1
1
1
1
1
1
1
1
1
1
1
1
1
1
1
1
1
1
1
1
1
1
1
1
1
1
1
1
1
1
1
1
0.999998
0.999992
0.999967
0.999866
0.999469
0.997931
0.992089
0.97044
0.892561
0.682173
0.468301
0.303155
0.185105
0.106759
0.058226
0.0300514
0.0146809
0.00678511
0.00296433
0.00122087
0.000472517
0.000174146
6.09089e-05
2.01565e-05
6.37639e-06
1.90641e-06
5.34628e-07
1.38766e-07
3.28679e-08
7.1074e-09
1.39697e-09
2.48685e-10
4.05701e-11
5.92382e-12
7.57234e-13
8.26783e-14
7.45401e-15
5.26404e-16
2.60271e-17
7.70887e-19
1
1
1
1
1
1
1
1
1
1
1
1
1
1
1
1
1
1
1
1
1
1
1
1
1
1
1
1
1
1
1
1
1
1
1
1
1
1
1
1
1
1
1
1
1
1
1
1
1
1
1
1
1
1
1
1
1
1
1
1
0.999998
0.999994
0.999975
0.999899
0.999602
0.998454
0.994086
0.977851
0.919154
0.73663
0.513705
0.338198
0.210211
0.123508
0.0686883
0.036206
0.018108
0.00860078
0.00388048
0.00166238
0.000674898
0.00025721
9.17264e-05
3.04907e-05
9.48988e-06
2.83562e-06
8.06531e-07
2.16153e-07
5.39216e-08
1.2481e-08
2.6416e-09
5.0654e-10
8.79324e-11
1.37224e-11
1.897e-12
2.27457e-13
2.29415e-14
1.84918e-15
1.08094e-16
3.39907e-18
1.34272e-111
3.92526e-109
5.75411e-107
5.57107e-105
4.00718e-103
2.28253e-101
1.07186e-99
4.26667e-98
1.46948e-96
4.44878e-95
1.19906e-93
2.90768e-92
6.4013e-91
1.28946e-89
2.39324e-88
4.11841e-87
6.60841e-86