/*--------------------------------*- C++ -*----------------------------------*\
| =========                 |                                                 |
| \\      /  F ield         | OpenFOAM: The Open Source CFD Toolbox           |
|  \\    /   O peration     | Version:  4.1                                   |
|   \\  /    A nd           | Web:      www.OpenFOAM.org                      |
|    \\/     M anipulation  |                                                 |
\*---------------------------------------------------------------------------*/
FoamFile
{
    version     2.0;
    format      ascii;
    class       volScalarField;
    location    "0.151";
    object      s_0;
}
// * * * * * * * * * * * * * * * * * * * * * * * * * * * * * * * * * * * * * //

dimensions      [0 0 0 0 0 0 0];

internalField   nonuniform List<scalar> 
43750
(
1
1
1
1
1
1
1
1
1
1
1
1
1
1
1
1
1
1
1
1
1
1
1
1
1
1
1
1
1
1
1
1
1
1
1
1
1
1
1
1
1
1
1
1
1
1
1
1
1
1
1
1
1
1
0.999998
0.999987
0.999923
0.999558
0.997594
0.987815
0.943822
0.770926
0.485212
0.27754
0.146545
0.0717775
0.0326837
0.0138459
0.00545657
0.0019994
0.000680634
0.000215036
6.29686e-05
1.70633e-05
4.2706e-06
9.84956e-07
2.08785e-07
4.05531e-08
7.19291e-09
1.16059e-09
1.69626e-10
2.23515e-11
2.64169e-12
2.78471e-13
2.60239e-14
2.14215e-15
1.54265e-16
9.65262e-18
5.21466e-19
2.42196e-20
9.69062e-22
3.40262e-23
1.1064e-24
3.66172e-26
1.31264e-27
4.77518e-29
1.53498e-30
3.82405e-32
6.38163e-34
5.29889e-36
1
1
1
1
1
1
1
1
1
1
1
1
1
1
1
1
1
1
1
1
1
1
1
1
1
1
1
1
1
1
1
1
1
1
1
1
1
1
1
1
1
1
1
1
1
1
1
1
1
1
1
1
1
1
1
0.999999
0.999992
0.999953
0.999745
0.998756
0.994757
0.982031
0.953752
0.897829
0.764293
0.572332
0.39143
0.245836
0.142491
0.0765335
0.0382106
0.0177732
0.00771384
0.00312698
0.00118452
0.000419331
0.000138685
4.28226e-05
1.23323e-05
3.3079e-06
8.24996e-07
1.90913e-07
4.08911e-08
8.08292e-09
1.46955e-09
2.44781e-10
3.71853e-11
5.12478e-12
6.36798e-13
7.1003e-14
7.06073e-15
6.19982e-16
4.74778e-17
3.12195e-18
1.72727e-19
7.82085e-21
2.78393e-22
7.3103e-24
1.26017e-25
1.06999e-27
1
1
1
1
1
1
1
1
1
1
1
1
1
1
1
1
1
1
1
1
1
1
1
1
1
1
1
1
1
1
1
1
1
1
1
1
1
1
1
1
1
1
1
1
1
1
1
1
1
1
1
1
1
1
1
1
0.999998
0.99999
0.999955
0.999804
0.999209
0.99706
0.989661
0.96401
0.874053
0.647218
0.429456
0.26491
0.15208
0.081406
0.0407014
0.0190371
0.00834051
0.00342626
0.00132066
0.000477835
0.000162304
5.17443e-05
1.54764e-05
4.33923e-06
1.13923e-06
2.7967e-07
6.40813e-08
1.36743e-08
2.71018e-09
4.97289e-10
8.41502e-11
1.30714e-11
1.85347e-12
2.38125e-13
2.74826e-14
2.82152e-15
2.54518e-16
1.98551e-17
1.31176e-18
7.1324e-20
3.06204e-21
9.72323e-23
2.028e-24
2.08026e-26
1
1
1
1
1
1
1
1
1
1
1
1
1
1
1
1
1
1
1
1
1
1
1
1
1
1
1
1
1
1
1
1
1
1
1
1
1
1
1
1
1
1
1
1
1
1
1
1
1
1
1
1
1
1
1
1
0.999998
0.99999
0.999957
0.99981
0.999202
0.996756
0.987198
0.950919
0.818613
0.570442
0.365658
0.218057
0.121311
0.0630902
0.03073
0.0140406
0.0060253
0.00243074
0.000922421
0.000329368
0.000110664
3.49771e-05
1.0394e-05
2.90166e-06
7.6012e-07
1.86579e-07
4.28352e-08
9.17784e-09
1.8303e-09
3.38656e-10
5.79138e-11
9.11165e-12
1.3116e-12
1.71583e-13
2.02324e-14
2.12874e-15
1.97211e-16
1.58196e-17
1.07579e-18
6.02492e-20
2.66489e-21
8.71603e-23
1.87081e-24
1.97186e-26
1
1
1
1
1
1
1
1
1
1
1
1
1
1
1
1
1
1
1
1
1
1
1
1
1
1
1
1
1
1
1
1
1
1
1
1
1
1
1
1
1
1
1
1
1
1
1
1
1
1
1
1
1
1
1
0.999999
0.999997
0.999988
0.999943
0.999739
0.998846
0.995083
0.9799
0.921774
0.730532
0.485453
0.299703
0.172241
0.0923453
0.0462863
0.0217293
0.00956866
0.00395715
0.00153825
0.000562411
0.000193471
6.26265e-05
1.90729e-05
5.4628e-06
1.47049e-06
3.71653e-07
8.80825e-08
1.95438e-08
4.0515e-09
7.82761e-10
1.40519e-10
2.33529e-11
3.57702e-12
5.02277e-13
6.42332e-14
7.42117e-15
7.66893e-16
7.01172e-17
5.58953e-18
3.80099e-19
2.14036e-20
9.56272e-22
3.17061e-23
6.91635e-25
7.41749e-27
1
1
1
1
1
1
1
1
1
1
1
1
1
1
1
1
1
1
1
1
1
1
1
1
1
1
1
1
1
1
1
1
1
1
1
1
1
1
1
1
1
1
1
1
1
1
1
1
1
1
1
1
1
1
1
0.999999
0.999997
0.999987
0.999939
0.999718
0.998736
0.994551
0.977528
0.911962
0.70444
0.460616
0.279906
0.158211
0.0833561
0.0410207
0.0188875
0.00814794
0.00329667
0.00125194
0.000446452
0.000149538
4.70442e-05
1.38973e-05
3.85317e-06
1.00197e-06
2.44131e-07
5.56639e-08
1.18586e-08
2.35596e-09
4.35483e-10
7.46822e-11
1.18421e-11
1.72908e-12
2.31311e-13
2.81771e-14
3.10174e-15
3.05616e-16
2.66283e-17
2.01991e-18
1.30642e-19
6.99971e-21
2.97914e-22
9.42655e-24
1.96692e-25
2.02276e-27
1
1
1
1
1
1
1
1
1
1
1
1
1
1
1
1
1
1
1
1
1
1
1
1
1
1
1
1
1
1
1
1
1
1
1
1
1
1
1
1
1
1
1
1
1
1
1
1
1
1
1
1
1
1
1
0.999999
0.999997
0.999986
0.999935
0.999701
0.998674
0.994336
0.976818
0.909607
0.699289
0.456299
0.276609
0.155873
0.0818181
0.0400813
0.0183547
0.00786714
0.00315909
0.0011892
0.000419807
0.000138998
4.31596e-05
1.25618e-05
3.42482e-06
8.7385e-07
2.08417e-07
4.63974e-08
9.62379e-09
1.85599e-09
3.31965e-10
5.4905e-11
8.36767e-12
1.17019e-12
1.49414e-13
1.73133e-14
1.80717e-15
1.68361e-16
1.38362e-17
9.87928e-19
6.00543e-20
3.02153e-21
1.20741e-22
3.58922e-24
7.04534e-26
6.82973e-28
1
1
1
1
1
1
1
1
1
1
1
1
1
1
1
1
1
1
1
1
1
1
1
1
1
1
1
1
1
1
1
1
1
1
1
1
1
1
1
1
1
1
1
1
1
1
1
1
1
1
1
1
1
1
1
0.999999
0.999997
0.999987
0.999937
0.999711
0.998719
0.994527
0.977572
0.912391
0.705263
0.46039
0.279043
0.157178
0.0824526
0.040362
0.0184674
0.00790771
0.00317178
0.0011924
0.000420271
0.000138875
4.30024e-05
1.24709e-05
3.3843e-06
8.58467e-07
2.03258e-07
4.48432e-08
9.19978e-09
1.75081e-09
3.08208e-10
5.00308e-11
7.46063e-12
1.01742e-12
1.26211e-13
1.41522e-14
1.42351e-15
1.27243e-16
9.98945e-18
6.78441e-19
3.90693e-20
1.85547e-21
6.97788e-23
1.94792e-24
3.58634e-26
3.26066e-28
1
1
1
1
1
1
1
1
1
1
1
1
1
1
1
1
1
1
1
1
1
1
1
1
1
1
1
1
1
1
1
1
1
1
1
1
1
1
1
1
1
1
1
1
1
1
1
1
1
1
1
1
1
1
1
1
0.999998
0.999989
0.999948
0.99976
0.998926
0.995354
0.980693
0.923562
0.730724
0.47832
0.289875
0.16312
0.0854406
0.0417502
0.0190664
0.0081483
0.00326207
0.00122415
0.000430692
0.000142055
4.3913e-05
1.27142e-05
3.44464e-06
8.72236e-07
2.06116e-07
4.53722e-08
9.28399e-09
1.76135e-09
3.08912e-10
4.99053e-11
7.39232e-12
9.99222e-13
1.22554e-13
1.35476e-14
1.33898e-15
1.17172e-16
8.9701e-18
5.9183e-19
3.29761e-20
1.50929e-21
5.44974e-23
1.45589e-24
2.55831e-26
2.21612e-28
1
1
1
1
1
1
1
1
1
1
1
1
1
1
1
1
1
1
1
1
1
1
1
1
1
1
1
1
1
1
1
1
1
1
1
1
1
1
1
1
1
1
1
1
1
1
1
1
1
1
1
1
1
1
1
1
0.999998
0.999991
0.999957
0.999797
0.999077
0.995947
0.982938
0.931758
0.752196
0.495792
0.301793
0.170496
0.0896187
0.0439284
0.0201166
0.00861857
0.00345753
0.00129944
0.000457651
0.000151033
4.669e-05
1.35119e-05
3.65721e-06
9.24673e-07
2.18053e-07
4.78694e-08
9.76115e-09
1.84413e-09
3.21961e-10
5.17578e-11
7.63117e-12
1.02675e-12
1.25331e-13
1.37842e-14
1.35478e-15
1.17816e-16
8.95441e-18
5.85058e-19
3.21987e-20
1.45159e-21
5.14824e-23
1.34724e-24
2.3134e-26
1.95455e-28
1
1
1
1
1
1
1
1
1
1
1
1
1
1
1
1
1
1
1
1
1
1
1
1
1
1
1
1
1
1
1
1
1
1
1
1
1
1
1
1
1
1
1
1
1
1
1
1
1
1
1
1
1
1
1
1
0.999998
0.999992
0.99996
0.999809
0.999125
0.99614
0.983701
0.934658
0.760479
0.503275
0.307392
0.174297
0.0919797
0.0452735
0.0208212
0.00895888
0.00360981
0.00136282
0.000482183
0.000159871
4.96529e-05
1.4436e-05
3.92515e-06
9.96843e-07
2.36088e-07
5.20434e-08
1.0654e-08
2.01977e-09
3.5332e-10
5.68264e-11
8.36846e-12
1.12285e-12
1.36478e-13
1.49237e-14
1.45609e-15
1.25626e-16
9.46651e-18
6.13675e-19
3.35242e-20
1.50063e-21
5.2854e-23
1.37374e-24
2.34312e-26
1.96682e-28
1
1
1
1
1
1
1
1
1
1
1
1
1
1
1
1
1
1
1
1
1
1
1
1
1
1
1
1
1
1
1
1
1
1
1
1
1
1
1
1
1
1
1
1
1
1
1
1
1
1
1
1
1
1
1
1
0.999998
0.999992
0.999962
0.999822
0.999188
0.996418
0.984835
0.938931
0.772825
0.513939
0.314948
0.179185
0.0948904
0.0468726
0.0216338
0.00934181
0.00377761
0.00143134
0.000508298
0.000169167
5.27443e-05
1.53962e-05
4.20349e-06
1.07206e-06
2.55009e-07
5.64657e-08
1.16122e-08
2.21192e-09
3.89015e-10
6.29346e-11
9.32523e-12
1.25916e-12
1.54019e-13
1.69472e-14
1.66343e-15
1.44053e-16
1.08709e-17
7.03858e-19
3.83152e-20
1.70559e-21
5.96348e-23
1.5364e-24
2.59485e-26
2.15762e-28
1
1
1
1
1
1
1
1
1
1
1
1
1
1
1
1
1
1
1
1
1
1
1
1
1
1
1
1
1
1
1
1
1
1
1
1
1
1
1
1
1
1
1
1
1
1
1
1
1
1
1
1
1
1
1
1
0.999999
0.999993
0.999965
0.999839
0.999274
0.996818
0.986553
0.945755
0.79469
0.533469
0.328389
0.187443
0.0995407
0.0492967
0.0228103
0.00987527
0.00400398
0.00152132
0.000541802
0.000180852
5.65598e-05
1.65616e-05
4.53619e-06
1.16071e-06
2.77026e-07
6.15526e-08
1.27032e-08
2.42859e-09
4.28744e-10
6.96382e-11
1.03618e-11
1.40531e-12
1.72698e-13
1.90959e-14
1.88403e-15
1.64177e-16
1.24784e-17
8.14244e-19
4.46843e-20
2.00537e-21
7.0678e-23
1.83486e-24
3.12043e-26
2.6056e-28
1
1
1
1
1
1
1
1
1
1
1
1
1
1
1
1
1
1
1
1
1
1
1
1
1
1
1
1
1
1
1
1
1
1
1
1
1
1
1
1
1
1
1
1
1
1
1
1
1
1
1
1
1
1
1
1
0.999999
0.999993
0.999967
0.999847
0.999318
0.997051
0.98768
0.950625
0.81232
0.551463
0.341904
0.19629
0.104759
0.0521076
0.0242056
0.0105173
0.004279
0.00163127
0.000582893
0.000195221
6.12616e-05
1.80011e-05
4.94821e-06
1.27084e-06
3.04474e-07
6.79197e-08
1.40748e-08
2.70226e-09
4.7917e-10
7.81877e-11
1.16901e-11
1.59352e-12
1.96881e-13
2.18943e-14
2.17333e-15
1.90633e-16
1.45923e-17
9.59499e-19
5.30901e-20
2.40347e-21
8.54844e-23
2.24015e-24
3.84629e-26
3.24527e-28
1
1
1
1
1
1
1
1
1
1
1
1
1
1
1
1
1
1
1
1
1
1
1
1
1
1
1
1
1
1
1
1
1
1
1
1
1
1
1
1
1
1
1
1
1
1
1
1
1
1
1
1
1
1
1
1
0.999999
0.999993
0.999967
0.999851
0.999339
0.997167
0.988276
0.953387
0.82341
0.564854
0.353174
0.204304
0.109796
0.0549666
0.02569
0.0112281
0.00459445
0.0017614
0.000632886
0.000213124
6.72408e-05
1.98633e-05
5.48887e-06
1.41706e-06
3.41267e-07
7.65208e-08
1.59391e-08
3.07606e-09
5.48294e-10
8.99366e-11
1.35179e-11
1.8525e-12
2.30105e-13
2.57261e-14
2.56721e-15
2.26361e-16
1.74172e-17
1.15119e-18
6.4027e-20
2.91366e-21
1.04168e-22
2.74375e-24
4.73456e-26
4.01438e-28
1
1
1
1
1
1
1
1
1
1
1
1
1
1
1
1
1
1
1
1
1
1
1
1
1
1
1
1
1
1
1
1
1
1
1
1
1
1
1
1
1
1
1
1
1
1
1
1
1
1
1
1
1
1
1
1
0.999999
0.999993
0.999968
0.999852
0.999343
0.997189
0.988421
0.954228
0.827449
0.571705
0.360239
0.21005
0.113762
0.0573724
0.0270004
0.0118777
0.00489016
0.00188579
0.000681426
0.000230742
7.31973e-05
2.17406e-05
6.04045e-06
1.56808e-06
3.7976e-07
8.56429e-08
1.79455e-08
3.48476e-09
6.25195e-10
1.03262e-10
1.56364e-11
2.16023e-12
2.70734e-13
3.05719e-14
3.08536e-15
2.75418e-16
2.14728e-17
1.43914e-18
8.122e-20
3.75269e-21
1.3629e-22
3.64824e-24
6.39964e-26
5.51694e-28
1
1
1
1
1
1
1
1
1
1
1
1
1
1
1
1
1
1
1
1
1
1
1
1
1
1
1
1
1
1
1
1
1
1
1
1
1
1
1
1
1
1
1
1
1
1
1
1
1
1
1
1
1
1
1
1
0.999999
0.999993
0.999968
0.999854
0.999349
0.997204
0.988464
0.954424
0.828442
0.574798
0.364348
0.21394
0.11675
0.0593415
0.0281473
0.012479
0.00517724
0.00201152
0.000732197
0.000249704
7.97623e-05
2.38498e-05
6.66955e-06
1.74225e-06
4.24483e-07
9.62801e-08
2.02846e-08
3.95911e-09
7.13642e-10
1.18367e-10
1.79887e-11
2.49232e-12
3.12951e-13
3.5364e-14
3.56615e-15
3.18585e-16
2.48957e-17
1.67439e-18
9.49183e-20
4.40868e-21
1.6106e-22
4.33896e-24
7.66283e-26
6.6522e-28
1
1
1
1
1
1
1
1
1
1
1
1
1
1
1
1
1
1
1
1
1
1
1
1
1
1
1
1
1
1
1
1
1
1
1
1
1
1
1
1
1
1
1
1
1
1
1
1
1
1
1
1
1
1
1
1
0.999999
0.999994
0.999969
0.999858
0.999364
0.997251
0.988606
0.954881
0.830045
0.57772
0.367893
0.217324
0.119435
0.0611755
0.0292517
0.0130753
0.00546944
0.00214258
0.000786318
0.000270364
8.70712e-05
2.625e-05
7.40175e-06
1.94977e-06
4.79101e-07
1.09617e-07
2.33018e-08
4.59034e-09
8.35484e-10
1.40006e-10
2.15126e-11
3.01655e-12
3.83856e-13
4.4033e-14
4.51699e-15
4.09528e-16
3.24152e-17
2.2049e-18
1.26278e-19
5.92163e-21
2.18332e-22
5.93516e-24
1.05757e-25
9.2624e-28
1
1
1
1
1
1
1
1
1
1
1
1
1
1
1
1
1
1
1
1
1
1
1
1
1
1
1
1
1
1
1
1
1
1
1
1
1
1
1
1
1
1
1
1
1
1
1
1
1
1
1
1
1
1
1
1
0.999999
0.999994
0.999971
0.999865
0.999391
0.997349
0.988935
0.955944
0.833618
0.582775
0.372903
0.22154
0.122538
0.0632035
0.0304428
0.01371
0.00577854
0.00228098
0.000843525
0.000292258
9.48441e-05
2.88127e-05
8.18671e-06
2.17309e-06
5.38067e-07
1.24048e-07
2.6569e-08
5.27298e-09
9.66684e-10
1.63109e-10
2.52211e-11
3.55581e-12
4.54354e-13
5.22464e-14
5.36168e-15
4.86209e-16
3.8529e-17
2.63245e-18
1.51737e-19
7.169e-21
2.66449e-22
7.30293e-24
1.31205e-25
1.15857e-27
1
1
1
1
1
1
1
1
1
1
1
1
1
1
1
1
1
1
1
1
1
1
1
1
1
1
1
1
1
1
1
1
1
1
1
1
1
1
1
1
1
1
1
1
1
1
1
1
1
1
1
1
1
1
1
1
0.999999
0.999994
0.999973
0.999872
0.999419
0.997467
0.989401
0.957711
0.839892
0.590056
0.379056
0.226354
0.125971
0.0654225
0.0317455
0.0144075
0.0061207
0.00243535
0.000907808
0.000317029
0.000103694
3.17475e-05
9.09062e-06
2.43165e-06
6.06728e-07
1.40959e-07
3.04277e-08
6.08737e-09
1.12539e-09
1.91614e-10
2.99305e-11
4.26977e-12
5.53295e-13
6.46998e-14
6.76967e-15
6.26836e-16
5.06922e-17
3.52058e-18
2.05911e-19
9.86492e-21
3.71689e-22
1.03254e-23
1.87975e-25
1.68141e-27
1
1
1
1
1
1
1
1
1
1
1
1
1
1
1
1
1
1
1
1
1
1
1
1
1
1
1
1
1
1
1
1
1
1
1
1
1
1
1
1
1
1
1
1
1
1
1
1
1
1
1
1
1
1
1
1
0.999999
0.999995
0.999976
0.999885
0.999477
0.997703
0.990309
0.960922
0.850805
0.60223
0.387539
0.231946
0.129531
0.0676145
0.0330179
0.0150941
0.00646347
0.00259358
0.0009754
0.000343779
0.000113511
3.50906e-05
1.01471e-05
2.74134e-06
6.90871e-07
1.62116e-07
3.53403e-08
7.13764e-09
1.33133e-09
2.28453e-10
3.59007e-11
5.13884e-12
6.65955e-13
7.76102e-14
8.08172e-15
7.48053e-16
6.06628e-17
4.23687e-18
2.49543e-19
1.20479e-20
4.57682e-22
1.28239e-23
2.35539e-25
2.12607e-27
1
1
1
1
1
1
1
1
1
1
1
1
1
1
1
1
1
1
1
1
1
1
1
1
1
1
1
1
1
1
1
1
1
1
1
1
1
1
1
1
1
1
1
1
1
1
1
1
1
1
1
1
1
1
1
1
0.999999
0.999996
0.99998
0.999905
0.999568
0.998101
0.991941
0.967214
0.873068
0.630392
0.405753
0.243403
0.136254
0.071288
0.0349087
0.0160148
0.00688747
0.00277781
0.00105072
0.000372691
0.000123907
3.85861e-05
1.12444e-05
3.06248e-06
7.78359e-07
1.84274e-07
4.05499e-08
8.27331e-09
1.5606e-09
2.71277e-10
4.32957e-11
6.31661e-12
8.37662e-13
1.00214e-13
1.07082e-14
1.00875e-15
8.28907e-17
5.85509e-18
3.48469e-19
1.69941e-20
6.51999e-22
1.84482e-23
3.42113e-25
3.11704e-27
1
1
1
1
1
1
1
1
1
1
1
1
1
1
1
1
1
1
1
1
1
1
1
1
1
1
1
1
1
1
1
1
1
1
1
1
1
1
1
1
1
1
1
1
1
1
1
1
1
1
1
1
1
1
1
1
0.999999
0.999996
0.999983
0.999922
0.999648
0.99846
0.993469
0.97337
0.896523
0.671416
0.434513
0.261841
0.147067
0.0771675
0.0378948
0.0174384
0.00752637
0.00304811
0.00115857
0.000413248
0.000138268
4.33664e-05
1.27374e-05
3.49901e-06
8.97524e-07
2.14552e-07
4.76855e-08
9.82657e-09
1.87132e-09
3.28051e-10
5.26972e-11
7.71571e-12
1.02369e-12
1.22312e-13
1.30654e-14
1.2359e-15
1.02269e-16
7.28662e-18
4.37867e-19
2.15769e-20
8.37163e-22
2.39795e-23
4.50725e-25
4.16781e-27
1
1
1
1
1
1
1
1
1
1
1
1
1
1
1
1
1
1
1
1
1
1
1
1
1
1
1
1
1
1
1
1
1
1
1
1
1
1
1
1
1
1
1
1
1
1
1
1
1
1
1
1
1
1
1
1
0.999999
0.999997
0.999986
0.999935
0.99971
0.99873
0.994621
0.978056
0.914484
0.710569
0.46511
0.282867
0.160104
0.0845389
0.0417307
0.0192877
0.00835607
0.00339558
0.00129466
0.000463146
0.000155406
4.88808e-05
1.43991e-05
3.96762e-06
1.02109e-06
2.44978e-07
5.46685e-08
1.13195e-08
2.16816e-09
3.82743e-10
6.20039e-11
9.17286e-12
1.23239e-12
1.49385e-13
1.62044e-14
1.55672e-15
1.30722e-16
9.43821e-18
5.73615e-19
2.85241e-20
1.11438e-21
3.20822e-23
6.0527e-25
5.61362e-27
1
1
1
1
1
1
1
1
1
1
1
1
1
1
1
1
1
1
1
1
1
1
1
1
1
1
1
1
1
1
1
1
1
1
1
1
1
1
1
1
1
1
1
1
1
1
1
1
1
1
1
1
1
1
1
1
0.999999
0.999998
0.999988
0.999946
0.999757
0.998935
0.995479
0.981501
0.92759
0.743838
0.493738
0.303886
0.174008
0.0929062
0.0463501
0.0216426
0.00946991
0.00388598
0.00149606
0.000540408
0.000183107
5.81639e-05
1.7306e-05
4.8177e-06
1.25302e-06
3.03952e-07
6.86302e-08
1.43867e-08
2.79015e-09
4.98848e-10
8.18857e-11
1.22816e-11
1.67335e-12
2.05653e-13
2.2606e-14
2.20025e-15
1.87289e-16
1.37235e-17
8.47787e-19
4.2908e-20
1.70686e-21
4.99959e-23
9.57882e-25
8.99805e-27
1
1
1
1
1
1
1
1
1
1
1
1
1
1
1
1
1
1
1
1
1
1
1
1
1
1
1
1
1
1
1
1
1
1
1
1
1
1
1
1
1
1
1
1
1
1
1
1
1
1
1
1
1
1
1
1
1
0.999998
0.99999
0.999955
0.999796
0.999106
0.996186
0.984306
0.93818
0.773805
0.520396
0.32343
0.186946
0.100726
0.0506912
0.0238679
0.0105275
0.00435336
0.00168853
0.000614344
0.000209617
6.70344e-05
2.00734e-05
5.62127e-06
1.46965e-06
3.57977e-07
8.1027e-08
1.70131e-08
3.3113e-09
5.94826e-10
9.81642e-11
1.48064e-11
2.02903e-12
2.50853e-13
2.77475e-14
2.71869e-15
2.33151e-16
1.72458e-17
1.07727e-18
5.52359e-20
2.2311e-21
6.65314e-23
1.30132e-24
1.25131e-26
1
1
1
1
1
1
1
1
1
1
1
1
1
1
1
1
1
1
1
1
1
1
1
1
1
1
1
1
1
1
1
1
1
1
1
1
1
1
1
1
1
1
1
1
1
1
1
1
1
1
1
1
1
1
1
1
1
0.999998
0.999992
0.999961
0.999826
0.999236
0.996747
0.986613
0.947138
0.802509
0.548154
0.344509
0.201307
0.109671
0.0558169
0.0265822
0.0118602
0.00496164
0.0019471
0.000716867
0.000247571
8.0164e-05
2.43202e-05
6.90601e-06
1.83307e-06
4.54045e-07
1.04738e-07
2.24239e-08
4.4352e-09
8.07439e-10
1.34671e-10
2.04697e-11
2.81864e-12
3.49198e-13
3.86075e-14
3.77208e-15
3.21671e-16
2.36643e-17
1.47348e-18
7.54358e-20
3.04632e-21
9.09234e-23
1.78187e-24
1.7186e-26
1
1
1
1
1
1
1
1
1
1
1
1
1
1
1
1
1
1
1
1
1
1
1
1
1
1
1
1
1
1
1
1
1
1
1
1
1
1
1
1
1
1
1
1
1
1
1
1
1
1
1
1
1
1
1
1
1
0.999998
0.999993
0.999965
0.999845
0.999323
0.997137
0.98828
0.953861
0.82662
0.573706
0.364629
0.215262
0.118459
0.0608954
0.0292926
0.0132017
0.00557899
0.00221158
0.000822378
0.000286755
9.36988e-05
2.86642e-05
8.20069e-06
2.19145e-06
5.46179e-07
1.26729e-07
2.73178e-08
5.45857e-09
1.00871e-09
1.71641e-10
2.67458e-11
3.79106e-12
4.85048e-13
5.55188e-14
5.62519e-15
4.98082e-16
3.78262e-17
2.41303e-18
1.25813e-19
5.14943e-21
1.55149e-22
3.05893e-24
2.96032e-26
1
1
1
1
1
1
1
1
1
1
1
1
1
1
1
1
1
1
1
1
1
1
1
1
1
1
1
1
1
1
1
1
1
1
1
1
1
1
1
1
1
1
1
1
1
1
1
1
1
1
1
1
1
1
1
1
1
0.999999
0.999993
0.999969
0.999862
0.999396
0.997444
0.989554
0.958937
0.845615
0.59697
0.383926
0.229378
0.127734
0.0664434
0.032341
0.0147509
0.0063107
0.00253385
0.000954985
0.000337757
0.000112018
3.47938e-05
1.01023e-05
2.73552e-06
6.89218e-07
1.61166e-07
3.48753e-08
6.9602e-09
1.28041e-09
2.17305e-10
3.38359e-11
4.80312e-12
6.16909e-13
7.10483e-14
7.2585e-15
6.49251e-16
5.00045e-17
3.24495e-18
1.72397e-19
7.19564e-21
2.21143e-22
4.44673e-24
4.38681e-26
1
1
1
1
1
1
1
1
1
1
1
1
1
1
1
1
1
1
1
1
1
1
1
1
1
1
1
1
1
1
1
1
1
1
1
1
1
1
1
1
1
1
1
1
1
1
1
1
1
1
1
1
1
1
1
1
1
0.999999
0.999994
0.999973
0.99988
0.999475
0.997767
0.990828
0.963763
0.863039
0.620588
0.402706
0.243165
0.136911
0.0720135
0.035441
0.0163409
0.00706571
0.00286718
0.00109236
0.00039081
0.000131295
4.1412e-05
1.22615e-05
3.40157e-06
8.81322e-07
2.12588e-07
4.7585e-08
9.84834e-09
1.8732e-09
3.2542e-10
5.14745e-11
7.38174e-12
9.54277e-13
1.10391e-13
1.13193e-14
1.01637e-15
7.86768e-17
5.14292e-18
2.7588e-19
1.16518e-20
3.62996e-22
7.40886e-24
7.42528e-26
1
1
1
1
1
1
1
1
1
1
1
1
1
1
1
1
1
1
1
1
1
1
1
1
1
1
1
1
1
1
1
1
1
1
1
1
1
1
1
1
1
1
1
1
1
1
1
1
1
1
1
1
1
1
1
1
1
0.999999
0.999995
0.999978
0.9999
0.999559
0.998119
0.992225
0.969067
0.882275
0.650372
0.425283
0.259344
0.147587
0.078512
0.0390952
0.0182412
0.00798026
0.00327456
0.00126022
0.000454713
0.000153716
4.86325e-05
1.43715e-05
3.98111e-06
1.03429e-06
2.50998e-07
5.66786e-08
1.18618e-08
2.29014e-09
4.05495e-10
6.54812e-11
9.58759e-12
1.26443e-12
1.49029e-13
1.55473e-14
1.41839e-15
1.11415e-16
7.38231e-18
4.01134e-19
1.71561e-20
5.41279e-22
1.11922e-23
1.1371e-25
1
1
1
1
1
1
1
1
1
1
1
1
1
1
1
1
1
1
1
1
1
1
1
1
1
1
1
1
1
1
1
1
1
1
1
1
1
1
1
1
1
1
1
1
1
1
1
1
1
1
1
1
1
1
1
1
1
0.999999
0.999996
0.999982
0.999917
0.999636
0.998443
0.993541
0.974158
0.901027
0.684988
0.451681
0.278077
0.159857
0.0859599
0.0433038
0.0204616
0.0090761
0.00378097
0.0014794
0.000543537
0.000187399
6.05798e-05
1.83469e-05
5.18774e-06
1.36867e-06
3.3703e-07
7.71532e-08
1.6364e-08
3.20556e-09
5.77788e-10
9.53152e-11
1.42963e-11
1.93453e-12
2.33883e-13
2.49756e-14
2.32424e-15
1.85422e-16
1.24167e-17
6.78369e-19
2.90263e-20
9.12036e-22
1.88467e-23
1.92077e-25
1
1
1
1
1
1
1
1
1
1
1
1
1
1
1
1
1
1
1
1
1
1
1
1
1
1
1
1
1
1
1
1
1
1
1
1
1
1
1
1
1
1
1
1
1
1
1
1
1
1
1
1
1
1
1
1
1
0.999999
0.999997
0.999985
0.999932
0.999703
0.998727
0.994697
0.978665
0.917712
0.721375
0.480546
0.298729
0.173445
0.0942027
0.0479325
0.0228767
0.0102507
0.00431499
0.00170687
0.000634419
0.000221448
7.251e-05
2.22305e-05
6.3568e-06
1.6883e-06
4.15601e-07
9.5552e-08
2.04342e-08
4.04224e-09
7.36161e-10
1.22797e-10
1.86479e-11
2.55983e-12
3.16405e-13
3.47855e-14
3.35413e-15
2.78712e-16
1.95192e-17
1.11856e-18
5.02898e-20
1.66125e-21
3.5674e-23
3.73729e-25
1
1
1
1
1
1
1
1
1
1
1
1
1
1
1
1
1
1
1
1
1
1
1
1
1
1
1
1
1
1
1
1
1
1
1
1
1
1
1
1
1
1
1
1
1
1
1
1
1
1
1
1
1
1
1
1
1
0.999999
0.999997
0.999987
0.999944
0.999756
0.998959
0.995678
0.9826
0.932632
0.760109
0.513224
0.322348
0.189139
0.103864
0.0534589
0.0258174
0.0117072
0.00498677
0.00199572
0.00075043
0.000265115
8.79951e-05
2.74411e-05
8.04341e-06
2.21209e-06
5.67481e-07
1.34601e-07
2.94508e-08
5.92475e-09
1.09092e-09
1.82894e-10
2.77559e-11
3.78667e-12
4.62384e-13
5.05251e-14
4.86584e-15
4.05692e-16
2.86327e-17
1.66016e-18
7.579e-20
2.55005e-21
5.61052e-23
6.04888e-25
1
1
1
1
1
1
1
1
1
1
1
1
1
1
1
1
1
1
1
1
1
1
1
1
1
1
1
1
1
1
1
1
1
1
1
1
1
1
1
1
1
1
1
1
1
1
1
1
1
1
1
1
1
1
1
1
1
0.999999
0.999998
0.999989
0.999951
0.999788
0.999113
0.996376
0.985594
0.944627
0.79768
0.549074
0.349317
0.207295
0.11508
0.059892
0.0292655
0.0134391
0.00580194
0.00235457
0.000897667
0.00032115
0.000107661
3.37633e-05
9.88833e-06
2.70635e-06
6.95331e-07
1.67237e-07
3.75402e-08
7.82173e-09
1.50274e-09
2.6438e-10
4.22797e-11
6.09613e-12
7.8204e-13
8.79853e-14
8.59503e-15
7.18787e-16
5.04702e-17
2.89613e-18
1.3075e-19
4.3912e-21
9.71239e-23
1.05813e-24
1
1
1
1
1
1
1
1
1
1
1
1
1
1
1
1
1
1
1
1
1
1
1
1
1
1
1
1
1
1
1
1
1
1
1
1
1
1
1
1
1
1
1
1
1
1
1
1
1
1
1
1
1
1
1
1
1
1
0.999998
0.99999
0.999956
0.999812
0.999215
0.996824
0.987526
0.952565
0.8262
0.581828
0.376943
0.227332
0.128032
0.067495
0.0333745
0.0155047
0.00677554
0.00278727
0.00107962
0.000393615
0.000134919
4.33783e-05
1.30286e-05
3.64e-06
9.4271e-07
2.26015e-07
5.00762e-08
1.03596e-08
1.98759e-09
3.51256e-10
5.67302e-11
8.30009e-12
1.09202e-12
1.27816e-13
1.31045e-14
1.15571e-15
8.57132e-17
5.18797e-18
2.4543e-19
8.46846e-21
1.89818e-22
2.07473e-24
1
1
1
1
1
1
1
1
1
1
1
1
1
1
1
1
1
1
1
1
1
1
1
1
1
1
1
1
1
1
1
1
1
1
1
1
1
1
1
1
1
1
1
1
1
1
1
1
1
1
1
1
1
1
1
1
1
1
0.999998
0.999992
0.999963
0.999839
0.999321
0.997232
0.989068
0.958278
0.846572
0.607892
0.400912
0.24639
0.141403
0.0758893
0.0381432
0.0179775
0.00795409
0.00330653
0.00129239
0.000475268
0.000164564
5.37097e-05
1.65516e-05
4.8005e-06
1.3004e-06
3.27148e-07
7.6045e-08
1.61505e-08
3.13166e-09
5.52735e-10
8.8392e-11
1.27427e-11
1.66569e-12
1.94722e-13
2.00671e-14
1.79008e-15
1.35062e-16
8.36053e-18
4.06712e-19
1.45408e-20
3.38957e-22
3.86138e-24
1
1
1
1
1
1
1
1
1
1
1
1
1
1
1
1
1
1
1
1
1
1
1
1
1
1
1
1
1
1
1
1
1
1
1
1
1
1
1
1
1
1
1
1
1
1
1
1
1
1
1
1
1
1
1
1
1
1
0.999999
0.999993
0.99997
0.999869
0.999444
0.997702
0.990794
0.964404
0.867613
0.635421
0.423644
0.26425
0.15432
0.084444
0.0433294
0.0208611
0.00942763
0.00399952
0.00159223
0.000594467
0.000207981
6.81091e-05
2.08415e-05
5.98736e-06
1.62406e-06
4.14689e-07
9.89966e-08
2.19451e-08
4.48746e-09
8.40759e-10
1.43288e-10
2.20198e-11
3.00148e-12
3.60431e-13
3.7733e-14
3.39367e-15
2.56942e-16
1.58959e-17
7.71755e-19
2.75641e-20
6.50636e-22
7.56538e-24
1
1
1
1
1
1
1
1
1
1
1
1
1
1
1
1
1
1
1
1
1
1
1
1
1
1
1
1
1
1
1
1
1
1
1
1
1
1
1
1
1
1
1
1
1
1
1
1
1
1
1
1
1
1
1
1
1
1
0.999999
0.999995
0.999976
0.999897
0.99956
0.998168
0.99259
0.971041
0.891253
0.672269
0.45113
0.284068
0.167771
0.0930222
0.048461
0.0237371
0.0109368
0.00474068
0.00193274
0.000740389
0.000265886
8.9327e-05
2.8004e-05
8.15838e-06
2.20037e-06
5.56325e-07
1.31963e-07
2.92315e-08
6.00937e-09
1.13868e-09
1.97352e-10
3.10176e-11
4.36964e-12
5.45181e-13
5.94467e-14
5.57472e-15
4.40282e-16
2.85133e-17
1.44718e-18
5.39065e-20
1.31039e-21
1.56449e-23
1
1
1
1
1
1
1
1
1
1
1
1
1
1
1
1
1
1
1
1
1
1
1
1
1
1
1
1
1
1
1
1
1
1
1
1
1
1
1
1
1
1
1
1
1
1
1
1
1
1
1
1
1
1
1
1
1
1
0.999999
0.999996
0.999982
0.99992
0.999658
0.998571
0.994195
0.977167
0.913586
0.716537
0.485462
0.308836
0.184426
0.103471
0.054589
0.027102
0.01267
0.00558056
0.0023168
0.000907343
0.000335981
0.000117166
3.83809e-05
1.17687e-05
3.36525e-06
8.88001e-07
2.16137e-07
4.85308e-08
1.0041e-08
1.9089e-09
3.3191e-10
5.24377e-11
7.46523e-12
9.46577e-13
1.05329e-13
1.00965e-14
8.14387e-16
5.36415e-17
2.79349e-18
1.07657e-19
2.71256e-21
3.34358e-23
1
1
1
1
1
1
1
1
1
1
1
1
1
1
1
1
1
1
1
1
1
1
1
1
1
1
1
1
1
1
1
1
1
1
1
1
1
1
1
1
1
1
1
1
1
1
1
1
1
1
1
1
1
1
1
1
1
1
0.999999
0.999997
0.999986
0.999938
0.999737
0.998902
0.995533
0.982351
0.932747
0.763685
0.524475
0.337269
0.203725
0.115713
0.0618498
0.0311249
0.0147487
0.0065786
0.00276054
0.00108795
0.000400984
0.000140281
4.63468e-05
1.44021e-05
4.193e-06
1.13776e-06
2.86209e-07
6.6504e-08
1.42271e-08
2.79167e-09
5.00118e-10
8.13046e-11
1.1902e-11
1.55334e-12
1.78254e-13
1.76884e-14
1.48408e-15
1.02213e-16
5.54284e-18
2.21893e-19
5.81257e-21
7.47457e-23
1
1
1
1
1
1
1
1
1
1
1
1
1
1
1
1
1
1
1
1
1
1
1
1
1
1
1
1
1
1
1
1
1
1
1
1
1
1
1
1
1
1
1
1
1
1
1
1
1
1
1
1
1
1
1
1
1
1
0.999999
0.999998
0.999989
0.999952
0.999799
0.999163
0.996602
0.986566
0.948628
0.812012
0.569256
0.370675
0.226523
0.130249
0.0705707
0.0360665
0.0173972
0.00792358
0.00340734
0.00138388
0.000531032
0.000190763
6.43323e-05
2.03875e-05
6.05628e-06
1.68403e-06
4.36982e-07
1.05291e-07
2.34243e-08
4.76757e-09
8.74025e-10
1.43093e-10
2.08597e-11
2.75813e-12
3.23638e-13
3.30249e-14
2.86216e-15
2.04337e-16
1.15068e-17
4.78195e-19
1.30268e-20
1.73381e-22
1
1
1
1
1
1
1
1
1
1
1
1
1
1
1
1
1
1
1
1
1
1
1
1
1
1
1
1
1
1
1
1
1
1
1
1
1
1
1
1
1
1
1
1
1
1
1
1
1
1
1
1
1
1
1
1
1
1
1
0.999998
0.999991
0.999963
0.999844
0.999357
0.997404
0.989774
0.960921
0.856126
0.618574
0.409173
0.253447
0.147512
0.0808478
0.0417877
0.0203873
0.00939231
0.0040856
0.001677
0.000649147
0.000236388
8.07979e-05
2.58435e-05
7.79241e-06
2.20401e-06
5.82741e-07
1.43471e-07
3.27323e-08
6.88274e-09
1.34318e-09
2.41675e-10
3.8952e-11
5.46768e-12
6.64624e-13
6.89514e-14
6.00713e-15
4.38e-16
2.54492e-17
1.09983e-18
3.12536e-20
4.39158e-22
1
1
1
1
1
1
1
1
1
1
1
1
1
1
1
1
1
1
1
1
1
1
1
1
1
1
1
1
1
1
1
1
1
1
1
1
1
1
1
1
1
1
1
1
1
1
1
1
1
1
1
1
1
1
1
1
1
1
1
0.999998
0.999993
0.999971
0.999879
0.999503
0.998002
0.992152
0.97002
0.889307
0.670695
0.450643
0.283995
0.168024
0.0935346
0.0490813
0.0243121
0.0113792
0.00503574
0.00210702
0.000833345
0.000311536
0.000110166
3.68125e-05
1.15177e-05
3.36897e-06
9.18317e-07
2.32162e-07
5.40455e-08
1.15207e-08
2.24268e-09
3.98145e-10
6.44462e-11
9.37462e-12
1.20117e-12
1.32938e-13
1.24617e-14
9.59871e-16
5.86095e-17
2.65555e-18
7.93485e-20
1.15535e-21
1
1
1
1
1
1
1
1
1
1
1
1
1
1
1
1
1
1
1
1
1
1
1
1
1
1
1
1
1
1
1
1
1
1
1
1
1
1
1
1
1
1
1
1
1
1
1
1
1
1
1
1
1
1
1
1
1
1
1
0.999999
0.999995
0.999978
0.999907
0.999619
0.998466
0.993966
0.976893
0.914313
0.721551
0.493131
0.316434
0.190667
0.108046
0.057673
0.0290359
0.013801
0.00619658
0.00262823
0.00105243
0.000397264
0.000140959
4.72328e-05
1.49732e-05
4.46674e-06
1.24744e-06
3.24276e-07
7.79489e-08
1.72273e-08
3.48609e-09
6.45007e-10
1.08683e-10
1.65013e-11
2.22332e-12
2.60861e-13
2.60016e-14
2.136e-15
1.39039e-16
6.73886e-18
2.15481e-19
3.45604e-21
1
1
1
1
1
1
1
1
1
1
1
1
1
1
1
1
1
1
1
1
1
1
1
1
1
1
1
1
1
1
1
1
1
1
1
1
1
1
1
1
1
1
1
1
1
1
1
1
1
1
1
1
1
1
1
1
1
1
1
0.999999
0.999996
0.999983
0.999928
0.999707
0.998822
0.995365
0.982218
0.933812
0.77065
0.537097
0.350812
0.215345
0.124398
0.0677214
0.034789
0.0168829
0.00774708
0.00336435
0.00138367
0.000539698
0.000199607
6.94599e-05
2.26882e-05
6.9595e-06
2.00121e-06
5.37834e-07
1.34649e-07
3.11992e-08
6.62685e-09
1.27681e-09
2.20923e-10
3.40162e-11
4.62393e-12
5.5595e-13
5.76747e-14
4.99973e-15
3.46818e-16
1.79715e-17
6.19111e-19
1.03476e-20
1
1
1
1
1
1
1
1
1
1
1
1
1
1
1
1
1
1
1
1
1
1
1
1
1
1
1
1
1
1
1
1
1
1
1
1
1
1
1
1
1
1
1
1
1
1
1
1
1
1
1
1
1
1
1
1
1
1
1
0.999999
0.999997
0.999986
0.999944
0.999772
0.99909
0.996432
0.986328
0.94904
0.816882
0.582785
0.387555
0.242224
0.142521
0.0790365
0.0413506
0.0204243
0.00952766
0.0041971
0.0017453
0.000682812
0.000253022
8.91193e-05
2.96603e-05
9.29946e-06
2.74014e-06
7.5699e-07
1.95536e-07
4.73955e-08
1.06561e-08
2.19038e-09
4.06426e-10
6.71167e-11
9.67667e-12
1.22071e-12
1.33637e-13
1.23238e-14
9.18288e-16
5.1935e-17
1.97233e-18
3.95817e-20
1
1
1
1
1
1
1
1
1
1
1
1
1
1
1
1
1
1
1
1
1
1
1
1
1
1
1
1
1
1
1
1
1
1
1
1
1
1
1
1
1
1
1
1
1
1
1
1
1
1
1
1
1
1
1
1
1
1
1
0.999999
0.999997
0.999989
0.999956
0.999823
0.999298
0.997259
0.98952
0.960906
0.858436
0.629768
0.42647
0.271579
0.163009
0.0923457
0.049426
0.0250138
0.0119769
0.00542927
0.00233096
0.000950157
0.000366657
0.000133242
4.56154e-05
1.46978e-05
4.4285e-06
1.24022e-06
3.2055e-07
7.65623e-08
1.72886e-08
3.63519e-09
7.02234e-10
1.23001e-10
1.92574e-11
2.64321e-12
3.13043e-13
3.12965e-14
2.5456e-15
1.58037e-16
6.67732e-18
1.39743e-19
1
1
1
1
1
1
1
1
1
1
1
1
1
1
1
1
1
1
1
1
1
1
1
1
1
1
1
1
1
1
1
1
1
1
1
1
1
1
1
1
1
1
1
1
1
1
1
1
1
1
1
1
1
1
1
1
1
1
1
1
0.999998
0.999992
0.999966
0.999865
0.999466
0.99792
0.992049
0.970293
0.892041
0.681259
0.46759
0.302633
0.184749
0.106534
0.0580929
0.0299776
0.0146425
0.00676633
0.0029557
0.00121714
0.000471008
0.000173571
6.07006e-05
2.00845e-05
6.35262e-06
1.89904e-06
5.32503e-07
1.38206e-07
3.27334e-08
7.0779e-09
1.39107e-09
2.47599e-10
4.03881e-11
5.89668e-12
7.53706e-13
8.22877e-14
7.41836e-15
5.23858e-16
2.59e-17
7.67076e-19
1
1
1
1
1
1
1
1
1
1
1
1
1
1
1
1
1
1
1
1
1
1
1
1
1
1
1
1
1
1
1
1
1
1
1
1
1
1
1
1
1
1
1
1
1
1
1
1
1
1
1
1
1
1
1
1
1
1
1
1
0.999998
0.999994
0.999975
0.999899
0.9996
0.998446
0.994056
0.97774
0.918759
0.735723
0.512949
0.337631
0.209818
0.123253
0.0685344
0.0361188
0.0180615
0.00857737
0.00386936
0.0016574
0.000672804
0.000256383
9.14227e-05
3.03878e-05
9.45611e-06
2.8251e-06
8.03433e-07
2.153e-07
5.37031e-08
1.24291e-08
2.63038e-09
5.04363e-10
8.75468e-11
1.36609e-11
1.88834e-12
2.264e-13
2.28335e-14
1.84037e-15
1.07575e-16
3.38272e-18
1.32686e-111
3.87913e-109
5.68681e-107
5.50622e-105
3.96076e-103
2.25621e-101
1.05956e-99
4.21796e-98
1.45279e-96
4.39851e-95
1.18558e-93
2.87519e-92
6.33022e-91
1.27523e-89
2.36701e-88
4.07358e-87
6.53701e-86
9.83225e-85