/*--------------------------------*- C++ -*----------------------------------*\
| =========                 |                                                 |
| \\      /  F ield         | OpenFOAM: The Open Source CFD Toolbox           |
|  \\    /   O peration     | Version:  4.1                                   |
|   \\  /    A nd           | Web:      www.OpenFOAM.org                      |
|    \\/     M anipulation  |                                                 |
\*---------------------------------------------------------------------------*/
FoamFile
{
    version     2.0;
    format      ascii;
    class       volVectorField;
    location    "0.151";
    object      U;
}
// * * * * * * * * * * * * * * * * * * * * * * * * * * * * * * * * * * * * * //

dimensions      [0 1 -1 0 0 0 0];

internalField   nonuniform List<vector> 
43750
(
(9.99232 -0.00204666 0)
(9.99476 -0.00952972 0)
(9.96314 0.0135563 0)
(9.93555 0.030791 0)
(9.91234 0.0396417 0)
(9.90167 0.0288597 0)
(9.90598 0.0121613 0)
(9.91092 0.0121308 0)
(9.9003 0.0259764 0)
(9.87568 0.033207 0)
(9.84971 0.0245074 0)
(9.8321 0.0100135 0)
(9.82197 0.00640736 0)
(9.81035 0.0207671 0)
(9.78761 0.0440462 0)
(9.75115 0.0577219 0)
(9.70829 0.0484972 0)
(9.67111 0.0198192 0)
(9.64679 -0.00952594 0)
(9.63139 -0.0196245 0)
(9.61185 -0.0041913 0)
(9.57506 0.0258577 0)
(9.517 0.0513955 0)
(9.44494 0.0581269 0)
(9.37176 0.0441378 0)
(9.30881 0.0201073 0)
(9.26197 0.00230836 0)
(9.22985 0.00274671 0)
(9.20365 0.0220932 0)
(9.17079 0.0485592 0)
(9.12231 0.0646627 0)
(9.05896 0.0602938 0)
(8.99009 0.0409108 0)
(8.92507 0.0230632 0)
(8.86531 0.0206641 0)
(8.8043 0.0341193 0)
(8.73481 0.0519703 0)
(8.65531 0.0625035 0)
(8.56935 0.0630922 0)
(8.48047 0.0587379 0)
(8.38958 0.0536982 0)
(8.29722 0.0469565 0)
(8.20595 0.036346 0)
(8.11849 0.0249713 0)
(8.03363 0.0206526 0)
(7.94589 0.0282457 0)
(7.85053 0.0439828 0)
(7.74849 0.0590228 0)
(7.64473 0.0684864 0)
(7.54105 0.0754953 0)
(7.43185 0.0855669 0)
(7.30859 0.098346 0)
(7.169 0.106875 0)
(7.02096 0.105974 0)
(6.87537 0.100573 0)
(6.73441 0.103451 0)
(6.58647 0.123209 0)
(6.41359 0.154291 0)
(6.20571 0.179779 0)
(5.9693 0.185062 0)
(5.72289 0.168662 0)
(5.48519 0.140763 0)
(5.26669 0.113941 0)
(5.06872 0.0957013 0)
(4.88679 0.0869659 0)
(4.71431 0.0848375 0)
(4.54537 0.0860227 0)
(4.37601 0.0882065 0)
(4.20409 0.0902689 0)
(4.02877 0.0919059 0)
(3.8499 0.0931543 0)
(3.66768 0.0941066 0)
(3.48241 0.0947977 0)
(3.29445 0.0951969 0)
(3.10422 0.0952432 0)
(2.91217 0.0948593 0)
(2.71889 0.093961 0)
(2.52504 0.0924703 0)
(2.33139 0.0903104 0)
(2.13885 0.0874058 0)
(1.94842 0.0836906 0)
(1.76123 0.0791104 0)
(1.57849 0.0736353 0)
(1.40147 0.0672648 0)
(1.23149 0.0600268 0)
(1.06986 0.0519878 0)
(0.917822 0.0432532 0)
(0.776529 0.0339671 0)
(0.646953 0.0243069 0)
(0.529869 0.0144786 0)
(0.425793 0.00472835 0)
(0.334943 -0.00468571 0)
(0.257239 -0.0135355 0)
(0.192272 -0.0216233 0)
(0.139316 -0.0287716 0)
(0.097284 -0.0348538 0)
(0.0648635 -0.0397639 0)
(0.0402162 -0.0435353 0)
(0.0217081 -0.0462608 0)
(0.00676242 -0.0473906 0)
(9.98117 0.0154669 0)
(9.97887 0.0462087 0)
(9.97071 0.0366019 0)
(9.98282 0.0128514 0)
(9.98755 -0.00822819 0)
(9.9727 -0.0218172 0)
(9.95488 -0.0210796 0)
(9.95006 -0.00755322 0)
(9.95628 0.00835426 0)
(9.95755 0.017481 0)
(9.94408 0.0191376 0)
(9.92047 0.0172845 0)
(9.89838 0.0145541 0)
(9.88496 0.0126047 0)
(9.87853 0.0142339 0)
(9.87115 0.0213958 0)
(9.8542 0.0323161 0)
(9.82393 0.0425395 0)
(9.78381 0.0492527 0)
(9.74252 0.053662 0)
(9.70972 0.0591481 0)
(9.69098 0.0674825 0)
(9.68393 0.0776387 0)
(9.67799 0.0872035 0)
(9.65976 0.0931189 0)
(9.62031 0.0910495 0)
(9.56011 0.0776336 0)
(9.49031 0.0557495 0)
(9.42825 0.0361847 0)
(9.38726 0.0315596 0)
(9.36747 0.0460883 0)
(9.35406 0.0712951 0)
(9.32616 0.0926607 0)
(9.27257 0.10119 0)
(9.20116 0.0991097 0)
(9.13227 0.0951747 0)
(9.08227 0.0959281 0)
(9.05231 0.101989 0)
(9.03066 0.110705 0)
(9.00399 0.119874 0)
(8.96558 0.128578 0)
(8.91434 0.136157 0)
(8.84953 0.142114 0)
(8.76982 0.146814 0)
(8.67781 0.151023 0)
(8.58267 0.153994 0)
(8.49545 0.153054 0)
(8.42083 0.146685 0)
(8.35419 0.138341 0)
(8.28701 0.135741 0)
(8.21495 0.144617 0)
(8.13992 0.162603 0)
(8.06483 0.180011 0)
(7.98838 0.187773 0)
(7.90589 0.185608 0)
(7.8149 0.183403 0)
(7.71895 0.193901 0)
(7.62445 0.22212 0)
(7.53445 0.260672 0)
(7.44627 0.295144 0)
(7.35408 0.313971 0)
(7.25311 0.314377 0)
(7.14171 0.301446 0)
(7.02033 0.283363 0)
(6.89 0.267233 0)
(6.75185 0.256837 0)
(6.60684 0.252815 0)
(6.45556 0.253825 0)
(6.29853 0.257894 0)
(6.13627 0.263336 0)
(5.96921 0.269085 0)
(5.7977 0.274622 0)
(5.62194 0.279749 0)
(5.44208 0.284397 0)
(5.25821 0.288512 0)
(5.07038 0.292012 0)
(4.87868 0.294784 0)
(4.68319 0.296693 0)
(4.48404 0.297591 0)
(4.28138 0.297322 0)
(4.07542 0.295728 0)
(3.86643 0.292664 0)
(3.65473 0.287999 0)
(3.44068 0.281633 0)
(3.22474 0.27351 0)
(3.00737 0.263626 0)
(2.78912 0.252035 0)
(2.57053 0.238856 0)
(2.35218 0.224278 0)
(2.13467 0.208549 0)
(1.91858 0.191969 0)
(1.70442 0.174888 0)
(1.49266 0.157717 0)
(1.28372 0.140911 0)
(1.07793 0.124967 0)
(0.875515 0.110382 0)
(0.676487 0.0977317 0)
(0.480574 0.0875132 0)
(0.287342 0.0803684 0)
(0.0951071 0.0765158 0)
(9.9694 0.026915 0)
(9.9881 0.0123567 0)
(10.007 0.0109514 0)
(9.99027 0.025312 0)
(9.9494 0.0522889 0)
(9.92107 0.0570577 0)
(9.90022 0.033109 0)
(9.87828 0.0114355 0)
(9.86523 0.0191093 0)
(9.86883 0.0458611 0)
(9.882 0.0624881 0)
(9.88998 0.0570371 0)
(9.88068 0.0434852 0)
(9.85167 0.0424152 0)
(9.81148 0.0596115 0)
(9.77402 0.0826544 0)
(9.74887 0.0945877 0)
(9.73474 0.088789 0)
(9.72224 0.071898 0)
(9.7033 0.0561128 0)
(9.67744 0.0498947 0)
(9.64939 0.0544827 0)
(9.6232 0.0665577 0)
(9.59969 0.0824791 0)
(9.57716 0.100068 0)
(9.55208 0.117122 0)
(9.51926 0.129893 0)
(9.47291 0.133753 0)
(9.41147 0.12637 0)
(9.34224 0.111578 0)
(9.27769 0.100203 0)
(9.22585 0.10362 0)
(9.18371 0.123836 0)
(9.13972 0.149318 0)
(9.08365 0.162717 0)
(9.01473 0.155266 0)
(8.94106 0.134289 0)
(8.87248 0.116417 0)
(8.81395 0.11369 0)
(8.76425 0.125919 0)
(8.71889 0.144881 0)
(8.67364 0.163745 0)
(8.62579 0.181091 0)
(8.57371 0.196961 0)
(8.51618 0.208438 0)
(8.45158 0.2115 0)
(8.37717 0.20679 0)
(8.28988 0.201512 0)
(8.18962 0.204159 0)
(8.08222 0.217235 0)
(7.97837 0.235482 0)
(7.88761 0.25106 0)
(7.81141 0.260347 0)
(7.74093 0.266421 0)
(7.6626 0.275567 0)
(7.56832 0.291926 0)
(7.46161 0.314924 0)
(7.35516 0.339856 0)
(7.26164 0.359882 0)
(7.18555 0.369271 0)
(7.12211 0.367181 0)
(7.06166 0.358533 0)
(6.99451 0.350575 0)
(6.9142 0.34861 0)
(6.81837 0.354131 0)
(6.70793 0.365388 0)
(6.58557 0.379272 0)
(6.45446 0.393293 0)
(6.31732 0.4062 0)
(6.17598 0.417713 0)
(6.03141 0.428045 0)
(5.88403 0.437523 0)
(5.73394 0.446387 0)
(5.58116 0.454751 0)
(5.4256 0.462625 0)
(5.26718 0.46995 0)
(5.10577 0.476629 0)
(4.94122 0.482535 0)
(4.77334 0.487526 0)
(4.60192 0.491448 0)
(4.4267 0.494135 0)
(4.24741 0.495429 0)
(4.06378 0.495184 0)
(3.87549 0.493284 0)
(3.68225 0.489653 0)
(3.48376 0.484265 0)
(3.27975 0.477151 0)
(3.06999 0.468407 0)
(2.85429 0.458184 0)
(2.63252 0.446686 0)
(2.40464 0.434142 0)
(2.17073 0.42082 0)
(1.93099 0.407036 0)
(1.68577 0.393164 0)
(1.43554 0.37963 0)
(1.18086 0.366907 0)
(0.922446 0.355573 0)
(0.660957 0.346173 0)
(0.397468 0.339704 0)
(0.132051 0.335687 0)
(9.89504 0.0705539 0)
(9.88928 -0.00741246 0)
(9.92306 0.0312635 0)
(9.92966 0.0665807 0)
(9.92151 0.0547646 0)
(9.90816 0.0325274 0)
(9.89432 0.0267215 0)
(9.87848 0.0270687 0)
(9.86618 0.0163989 0)
(9.86264 -0.000352494 0)
(9.86465 -0.00353627 0)
(9.86233 0.0167329 0)
(9.84925 0.0508243 0)
(9.82998 0.0795586 0)
(9.81522 0.0899441 0)
(9.8095 0.0834202 0)
(9.80536 0.0724773 0)
(9.78957 0.0701548 0)
(9.75478 0.0803641 0)
(9.70605 0.096748 0)
(9.65668 0.110539 0)
(9.61771 0.118899 0)
(9.5903 0.125159 0)
(9.56704 0.132967 0)
(9.53989 0.142376 0)
(9.50668 0.151534 0)
(9.47009 0.159108 0)
(9.43283 0.164124 0)
(9.39415 0.165447 0)
(9.3509 0.163052 0)
(9.30217 0.160281 0)
(9.25177 0.163452 0)
(9.20546 0.177126 0)
(9.16533 0.199273 0)
(9.12689 0.22158 0)
(9.08205 0.234951 0)
(9.02515 0.235535 0)
(8.95644 0.226904 0)
(8.88036 0.217269 0)
(8.80143 0.213895 0)
(8.72241 0.218953 0)
(8.64531 0.229877 0)
(8.57224 0.243 0)
(8.50375 0.25696 0)
(8.43637 0.27299 0)
(8.36314 0.292414 0)
(8.27807 0.313906 0)
(8.18057 0.332969 0)
(8.07602 0.34417 0)
(7.97198 0.344758 0)
(7.87382 0.337126 0)
(7.78268 0.328319 0)
(7.69617 0.326593 0)
(7.61036 0.336928 0)
(7.52169 0.358316 0)
(7.42863 0.38447 0)
(7.33284 0.407859 0)
(7.23855 0.423902 0)
(7.1497 0.432152 0)
(7.06691 0.435001 0)
(6.98655 0.436086 0)
(6.90249 0.438951 0)
(6.80946 0.445973 0)
(6.70529 0.45789 0)
(6.59061 0.473693 0)
(6.46753 0.491385 0)
(6.33845 0.509021 0)
(6.2052 0.525385 0)
(6.06886 0.540069 0)
(5.92997 0.553226 0)
(5.78883 0.565235 0)
(5.6456 0.57645 0)
(5.5004 0.587106 0)
(5.35331 0.59732 0)
(5.20436 0.60712 0)
(5.05355 0.616486 0)
(4.90085 0.625364 0)
(4.74616 0.633676 0)
(4.58933 0.641335 0)
(4.43018 0.64824 0)
(4.26845 0.654286 0)
(4.10382 0.659371 0)
(3.93592 0.663396 0)
(3.76429 0.666283 0)
(3.58845 0.667977 0)
(3.40786 0.668455 0)
(3.22191 0.667732 0)
(3.03002 0.665855 0)
(2.83156 0.662908 0)
(2.62593 0.658999 0)
(2.4126 0.654274 0)
(2.19112 0.64889 0)
(1.96118 0.642985 0)
(1.72264 0.63672 0)
(1.47562 0.630302 0)
(1.22046 0.624 0)
(0.957954 0.61819 0)
(0.689004 0.613181 0)
(0.415408 0.609799 0)
(0.138227 0.606774 0)
(9.99517 0.00644292 0)
(9.95243 -0.0485171 0)
(9.98463 -0.0133721 0)
(10.0055 0.0412157 0)
(10.0021 0.0774091 0)
(9.98562 0.0799092 0)
(9.96986 0.0582261 0)
(9.95707 0.0379715 0)
(9.93986 0.0357649 0)
(9.91662 0.0487027 0)
(9.89463 0.0645159 0)
(9.88058 0.0748896 0)
(9.87302 0.0785708 0)
(9.86444 0.0788825 0)
(9.84733 0.0817135 0)
(9.81827 0.0929839 0)
(9.77995 0.114245 0)
(9.7404 0.139164 0)
(9.70742 0.155994 0)
(9.68199 0.155817 0)
(9.65726 0.140596 0)
(9.62509 0.123428 0)
(9.58386 0.119238 0)
(9.53981 0.133492 0)
(9.50116 0.159397 0)
(9.47166 0.184924 0)
(9.44863 0.201895 0)
(9.42502 0.209164 0)
(9.39341 0.209337 0)
(9.3501 0.205512 0)
(9.29692 0.201397 0)
(9.23989 0.202129 0)
(9.18553 0.211971 0)
(9.13682 0.22986 0)
(9.09201 0.248484 0)
(9.04651 0.259872 0)
(8.9956 0.262696 0)
(8.93576 0.263548 0)
(8.86493 0.270365 0)
(8.78324 0.2847 0)
(8.69423 0.300986 0)
(8.60482 0.313254 0)
(8.52259 0.321704 0)
(8.45176 0.331995 0)
(8.39073 0.348555 0)
(8.33322 0.369746 0)
(8.27224 0.389844 0)
(8.20328 0.404691 0)
(8.12452 0.414498 0)
(8.03558 0.421515 0)
(7.93725 0.426741 0)
(7.83241 0.430206 0)
(7.72617 0.433835 0)
(7.62382 0.442051 0)
(7.52779 0.458288 0)
(7.4363 0.481146 0)
(7.34505 0.504574 0)
(7.2504 0.521999 0)
(7.15145 0.530615 0)
(7.04927 0.532693 0)
(6.94479 0.533647 0)
(6.83736 0.538862 0)
(6.72514 0.551289 0)
(6.60642 0.570575 0)
(6.48071 0.594046 0)
(6.34875 0.618512 0)
(6.21197 0.641603 0)
(6.07177 0.662182 0)
(5.92909 0.680174 0)
(5.78445 0.696058 0)
(5.63802 0.710425 0)
(5.48985 0.723744 0)
(5.33996 0.73632 0)
(5.18841 0.748316 0)
(5.03521 0.759807 0)
(4.88042 0.770816 0)
(4.72404 0.781335 0)
(4.56608 0.791331 0)
(4.4065 0.800767 0)
(4.24523 0.809598 0)
(4.08214 0.817782 0)
(3.91706 0.825285 0)
(3.74976 0.83208 0)
(3.57993 0.838163 0)
(3.40721 0.843554 0)
(3.23115 0.848296 0)
(3.05127 0.852463 0)
(2.86699 0.85615 0)
(2.67769 0.859472 0)
(2.48272 0.862553 0)
(2.28141 0.865512 0)
(2.07309 0.868441 0)
(1.85719 0.871369 0)
(1.63324 0.874248 0)
(1.40101 0.876985 0)
(1.16049 0.879459 0)
(0.912222 0.881587 0)
(0.656942 0.883159 0)
(0.396476 0.884545 0)
(0.131974 0.883487 0)
(9.99709 -0.099305 0)
(9.94969 -0.0529499 0)
(9.92376 -0.00805072 0)
(9.90182 0.0487873 0)
(9.89908 0.0782758 0)
(9.91619 0.0733683 0)
(9.94232 0.0612305 0)
(9.95117 0.0583852 0)
(9.93695 0.0556035 0)
(9.91378 0.0428293 0)
(9.89514 0.0299619 0)
(9.88361 0.0355297 0)
(9.87299 0.064202 0)
(9.85517 0.103017 0)
(9.82635 0.134941 0)
(9.78976 0.1505 0)
(9.75315 0.150302 0)
(9.7236 0.14239 0)
(9.70315 0.1379 0)
(9.68772 0.145312 0)
(9.67007 0.165264 0)
(9.6453 0.189971 0)
(9.61377 0.208715 0)
(9.579 0.215248 0)
(9.54338 0.211463 0)
(9.50659 0.205732 0)
(9.46805 0.207273 0)
(9.4296 0.219917 0)
(9.39383 0.239662 0)
(9.35959 0.257979 0)
(9.32057 0.268744 0)
(9.26985 0.273281 0)
(9.20642 0.278734 0)
(9.13695 0.291089 0)
(9.07019 0.309695 0)
(9.00983 0.328693 0)
(8.95279 0.343426 0)
(8.8941 0.354861 0)
(8.83242 0.367471 0)
(8.77052 0.382956 0)
(8.71063 0.396798 0)
(8.65065 0.402087 0)
(8.58569 0.397373 0)
(8.51339 0.390307 0)
(8.43674 0.392649 0)
(8.36093 0.411224 0)
(8.28766 0.443238 0)
(8.21339 0.479305 0)
(8.13307 0.509968 0)
(8.045 0.529878 0)
(7.95206 0.538152 0)
(7.85886 0.537467 0)
(7.76794 0.533563 0)
(7.67856 0.533926 0)
(7.58813 0.544459 0)
(7.49421 0.565813 0)
(7.3955 0.592599 0)
(7.29179 0.616757 0)
(7.18377 0.632805 0)
(7.0723 0.641109 0)
(6.95775 0.647037 0)
(6.83964 0.657084 0)
(6.71702 0.674994 0)
(6.58918 0.700296 0)
(6.45599 0.729553 0)
(6.31794 0.758778 0)
(6.17591 0.785277 0)
(6.03081 0.808166 0)
(5.88333 0.827846 0)
(5.73386 0.845201 0)
(5.58253 0.861046 0)
(5.42938 0.875928 0)
(5.27439 0.890138 0)
(5.11756 0.903801 0)
(4.95888 0.916957 0)
(4.7984 0.929609 0)
(4.63613 0.941746 0)
(4.4721 0.953351 0)
(4.30634 0.964406 0)
(4.13883 0.974898 0)
(3.96957 0.984821 0)
(3.7985 0.994182 0)
(3.62553 1.00301 0)
(3.45054 1.01136 0)
(3.27337 1.01931 0)
(3.09378 1.02697 0)
(2.91151 1.03447 0)
(2.72622 1.04198 0)
(2.53751 1.04967 0)
(2.34493 1.0577 0)
(2.14798 1.06619 0)
(1.94613 1.07523 0)
(1.73884 1.08481 0)
(1.52559 1.09478 0)
(1.30607 1.10484 0)
(1.0801 1.11455 0)
(0.847958 1.12339 0)
(0.610099 1.13063 0)
(0.368003 1.13623 0)
(0.122425 1.13686 0)
(10.0155 -0.079395 0)
(10.024 -0.0064595 0)
(9.99842 0.0321862 0)
(9.97528 0.0679648 0)
(9.96009 0.0601738 0)
(9.95365 0.029129 0)
(9.95038 0.0195733 0)
(9.94875 0.0429163 0)
(9.94547 0.075228 0)
(9.93276 0.0937192 0)
(9.9042 0.097963 0)
(9.86295 0.100406 0)
(9.82204 0.110112 0)
(9.79527 0.12731 0)
(9.78644 0.147379 0)
(9.78666 0.166007 0)
(9.78183 0.180581 0)
(9.76322 0.189783 0)
(9.73231 0.192925 0)
(9.69761 0.190406 0)
(9.66733 0.184878 0)
(9.64444 0.181582 0)
(9.62643 0.186703 0)
(9.60757 0.20392 0)
(9.58134 0.230905 0)
(9.5432 0.258948 0)
(9.49367 0.277811 0)
(9.43929 0.283062 0)
(9.3891 0.279939 0)
(9.34775 0.280004 0)
(9.31117 0.292582 0)
(9.26951 0.317679 0)
(9.2153 0.346331 0)
(9.14979 0.367896 0)
(9.08125 0.37787 0)
(9.01752 0.379863 0)
(8.9602 0.381105 0)
(8.90533 0.386388 0)
(8.84886 0.395838 0)
(8.79071 0.407501 0)
(8.73349 0.420866 0)
(8.67747 0.437284 0)
(8.61794 0.457418 0)
(8.54823 0.479321 0)
(8.46593 0.500011 0)
(8.37558 0.518849 0)
(8.28475 0.538318 0)
(8.19746 0.560782 0)
(8.11209 0.584632 0)
(8.02504 0.604238 0)
(7.93564 0.614394 0)
(7.84669 0.615553 0)
(7.76062 0.615022 0)
(7.67558 0.622462 0)
(7.58579 0.643111 0)
(7.4859 0.674253 0)
(7.37523 0.707376 0)
(7.2582 0.733823 0)
(7.14092 0.749863 0)
(7.02722 0.758258 0)
(6.91684 0.765876 0)
(6.80649 0.779352 0)
(6.69227 0.801717 0)
(6.57165 0.831698 0)
(6.44394 0.865368 0)
(6.30973 0.898559 0)
(6.17011 0.928555 0)
(6.02613 0.954489 0)
(5.87858 0.976824 0)
(5.72803 0.996549 0)
(5.57483 1.01459 0)
(5.41922 1.03158 0)
(5.26131 1.04785 0)
(5.10117 1.06354 0)
(4.93884 1.07869 0)
(4.77436 1.09332 0)
(4.60775 1.10739 0)
(4.43902 1.12091 0)
(4.26821 1.13386 0)
(4.09533 1.14623 0)
(3.92039 1.15803 0)
(3.74341 1.16928 0)
(3.56439 1.18005 0)
(3.3833 1.1904 0)
(3.20013 1.20046 0)
(3.01483 1.21037 0)
(2.82733 1.22031 0)
(2.63752 1.2305 0)
(2.44528 1.24116 0)
(2.25042 1.2525 0)
(2.05273 1.26471 0)
(1.85195 1.27787 0)
(1.64781 1.29198 0)
(1.43998 1.30683 0)
(1.22824 1.32203 0)
(1.01238 1.33691 0)
(0.792573 1.35065 0)
(0.568991 1.36207 0)
(0.342689 1.37085 0)
(0.113883 1.37264 0)
(10.051 0.0997606 0)
(10.0529 0.00956142 0)
(10.0432 0.027692 0)
(10.0398 0.0836466 0)
(10.024 0.106029 0)
(10.0044 0.0899405 0)
(9.99251 0.0684219 0)
(9.98898 0.062096 0)
(9.98226 0.0683127 0)
(9.96178 0.079746 0)
(9.93109 0.0953342 0)
(9.90278 0.113771 0)
(9.88388 0.129077 0)
(9.87106 0.137624 0)
(9.85884 0.143958 0)
(9.84714 0.155626 0)
(9.83915 0.1736 0)
(9.83403 0.191127 0)
(9.82413 0.202378 0)
(9.80016 0.209015 0)
(9.75854 0.217096 0)
(9.70377 0.229711 0)
(9.64504 0.245 0)
(9.59141 0.260472 0)
(9.54861 0.276472 0)
(9.51699 0.294186 0)
(9.49083 0.311723 0)
(9.46082 0.324547 0)
(9.4197 0.330727 0)
(9.36709 0.334921 0)
(9.30899 0.34562 0)
(9.25239 0.367488 0)
(9.20026 0.396472 0)
(9.15138 0.422881 0)
(9.1034 0.439519 0)
(9.05492 0.447252 0)
(9.00456 0.453348 0)
(8.94908 0.464588 0)
(8.88401 0.481489 0)
(8.80739 0.498746 0)
(8.72293 0.51116 0)
(8.63875 0.519088 0)
(8.5618 0.528071 0)
(8.49271 0.543389 0)
(8.42602 0.565682 0)
(8.35542 0.592104 0)
(8.27886 0.620541 0)
(8.19872 0.650786 0)
(8.11793 0.681086 0)
(8.03676 0.705257 0)
(7.95343 0.715957 0)
(7.86672 0.712521 0)
(7.77711 0.705128 0)
(7.68508 0.709358 0)
(7.58916 0.73462 0)
(7.4864 0.776619 0)
(7.37552 0.820469 0)
(7.25916 0.851445 0)
(7.14266 0.864547 0)
(7.0304 0.866331 0)
(6.92286 0.869143 0)
(6.8167 0.883039 0)
(6.70702 0.911022 0)
(6.58997 0.949518 0)
(6.46411 0.992057 0)
(6.33007 1.03295 0)
(6.18949 1.06906 0)
(6.04403 1.09975 0)
(5.89487 1.12589 0)
(5.74274 1.1488 0)
(5.58798 1.16964 0)
(5.43076 1.18919 0)
(5.27116 1.20789 0)
(5.10918 1.22594 0)
(4.94482 1.24341 0)
(4.77808 1.26033 0)
(4.60894 1.2767 0)
(4.43741 1.29249 0)
(4.26347 1.3077 0)
(4.08713 1.32231 0)
(3.9084 1.33634 0)
(3.7273 1.3498 0)
(3.54385 1.36276 0)
(3.35808 1.37528 0)
(3.17005 1.38748 0)
(2.9798 1.39952 0)
(2.78738 1.41158 0)
(2.59287 1.42391 0)
(2.39633 1.43674 0)
(2.19781 1.45032 0)
(1.99736 1.46488 0)
(1.795 1.48054 0)
(1.59074 1.49731 0)
(1.38454 1.51496 0)
(1.17636 1.53307 0)
(0.966134 1.55085 0)
(0.753981 1.56734 0)
(0.539902 1.58113 0)
(0.324581 1.59174 0)
(0.107744 1.59399 0)
(9.96857 0.0486462 0)
(9.95331 0.00278745 0)
(9.96806 0.0261824 0)
(9.9853 0.0733174 0)
(10.0125 0.081187 0)
(10.0284 0.0510973 0)
(10.0248 0.032305 0)
(10.0059 0.0558792 0)
(9.97482 0.107419 0)
(9.93641 0.150074 0)
(9.90015 0.162178 0)
(9.87535 0.1524 0)
(9.8635 0.144568 0)
(9.85708 0.152333 0)
(9.8469 0.170021 0)
(9.83062 0.184825 0)
(9.8121 0.1938 0)
(9.79349 0.205596 0)
(9.77089 0.227774 0)
(9.73924 0.256843 0)
(9.69984 0.281896 0)
(9.66016 0.295538 0)
(9.62618 0.29936 0)
(9.59728 0.300413 0)
(9.569 0.30511 0)
(9.53836 0.316399 0)
(9.50457 0.333847 0)
(9.46569 0.354443 0)
(9.41804 0.374338 0)
(9.36032 0.391819 0)
(9.29727 0.408835 0)
(9.23727 0.428313 0)
(9.18554 0.449485 0)
(9.14007 0.467119 0)
(9.09406 0.476797 0)
(9.0419 0.480946 0)
(8.9828 0.488498 0)
(8.91971 0.507414 0)
(8.85598 0.536924 0)
(8.79326 0.567289 0)
(8.73156 0.58801 0)
(8.66983 0.597074 0)
(8.60651 0.602421 0)
(8.54002 0.614438 0)
(8.46938 0.637121 0)
(8.39481 0.666368 0)
(8.31824 0.695839 0)
(8.24263 0.722813 0)
(8.17006 0.747755 0)
(8.09959 0.769756 0)
(8.02666 0.785168 0)
(7.94514 0.792297 0)
(7.85098 0.796794 0)
(7.7448 0.810243 0)
(7.63134 0.841285 0)
(7.51636 0.887056 0)
(7.40392 0.9336 0)
(7.29548 0.965698 0)
(7.19046 0.977819 0)
(7.08702 0.977407 0)
(6.98259 0.978972 0)
(6.8743 0.994605 0)
(6.75955 1.02788 0)
(6.63656 1.07409 0)
(6.50497 1.12483 0)
(6.36578 1.17285 0)
(6.22076 1.21436 0)
(6.07163 1.24894 0)
(5.91963 1.27799 0)
(5.76536 1.30334 0)
(5.60902 1.32646 0)
(5.45057 1.3483 0)
(5.2899 1.36933 0)
(5.12689 1.38976 0)
(4.96145 1.40967 0)
(4.79352 1.42906 0)
(4.62305 1.44792 0)
(4.44999 1.46624 0)
(4.27432 1.48398 0)
(4.09603 1.50113 0)
(3.91509 1.51768 0)
(3.73152 1.53366 0)
(3.54535 1.54909 0)
(3.35661 1.56403 0)
(3.16536 1.57859 0)
(2.97169 1.5929 0)
(2.77572 1.60713 0)
(2.57761 1.62148 0)
(2.37752 1.63619 0)
(2.17568 1.65152 0)
(1.97231 1.66767 0)
(1.76763 1.6848 0)
(1.56189 1.70295 0)
(1.35527 1.72191 0)
(1.14796 1.74125 0)
(0.940028 1.76019 0)
(0.731662 1.77775 0)
(0.522776 1.79244 0)
(0.313792 1.80378 0)
(0.10407 1.80594 0)
(10.0068 0.0633834 0)
(10.0192 -0.00715365 0)
(9.99451 0.0298621 0)
(9.966 0.0670946 0)
(9.95077 0.0831589 0)
(9.9457 0.0842063 0)
(9.93247 0.0891059 0)
(9.91148 0.107869 0)
(9.89761 0.131929 0)
(9.89775 0.147482 0)
(9.90244 0.149993 0)
(9.89638 0.146012 0)
(9.8747 0.145694 0)
(9.8467 0.154866 0)
(9.82415 0.171941 0)
(9.80935 0.191549 0)
(9.79579 0.210785 0)
(9.77716 0.231596 0)
(9.75345 0.255767 0)
(9.72864 0.279432 0)
(9.70477 0.295714 0)
(9.67936 0.302936 0)
(9.64827 0.307466 0)
(9.60994 0.317358 0)
(9.56692 0.335219 0)
(9.52358 0.358432 0)
(9.48258 0.383994 0)
(9.4429 0.410282 0)
(9.40106 0.434877 0)
(9.35451 0.454141 0)
(9.30438 0.466917 0)
(9.25462 0.477303 0)
(9.20809 0.491597 0)
(9.16316 0.512196 0)
(9.11438 0.535624 0)
(9.0569 0.556899 0)
(8.99077 0.574754 0)
(8.92121 0.59157 0)
(8.85506 0.608824 0)
(8.79635 0.624486 0)
(8.74389 0.63609 0)
(8.69196 0.6455 0)
(8.63368 0.658808 0)
(8.56541 0.680873 0)
(8.48937 0.710656 0)
(8.4123 0.742481 0)
(8.34048 0.771566 0)
(8.27506 0.797599 0)
(8.21115 0.822765 0)
(8.14118 0.847437 0)
(8.05972 0.86928 0)
(7.96611 0.886997 0)
(7.86376 0.904117 0)
(7.75756 0.927715 0)
(7.65167 0.962207 0)
(7.54852 1.00386 0)
(7.44858 1.04184 0)
(7.35042 1.06582 0)
(7.25126 1.07401 0)
(7.14821 1.07501 0)
(7.03932 1.08231 0)
(6.92374 1.10618 0)
(6.80125 1.14865 0)
(6.67185 1.20387 0)
(6.53584 1.26257 0)
(6.39395 1.31691 0)
(6.24732 1.363 0)
(6.09714 1.40073 0)
(5.94433 1.43205 0)
(5.78939 1.45933 0)
(5.63244 1.48437 0)
(5.47344 1.50827 0)
(5.31223 1.53153 0)
(5.14868 1.55434 0)
(4.98266 1.57673 0)
(4.81408 1.59868 0)
(4.64287 1.62016 0)
(4.46898 1.64114 0)
(4.29235 1.66158 0)
(4.11296 1.68145 0)
(3.93078 1.70073 0)
(3.74582 1.71943 0)
(3.55807 1.73755 0)
(3.36757 1.75514 0)
(3.17439 1.77226 0)
(2.97862 1.78902 0)
(2.7804 1.80554 0)
(2.5799 1.82199 0)
(2.37736 1.83857 0)
(2.17305 1.85549 0)
(1.96731 1.87293 0)
(1.76048 1.89104 0)
(1.55294 1.90986 0)
(1.34505 1.92922 0)
(1.13715 1.94875 0)
(0.929443 1.96772 0)
(0.722175 1.98522 0)
(0.515256 1.99979 0)
(0.308952 2.01111 0)
(0.102409 2.01277 0)
(9.97979 0.043416 0)
(9.89952 0.00365531 0)
(9.92867 0.0350016 0)
(9.94539 0.0722023 0)
(9.97177 0.0770047 0)
(9.98391 0.0657318 0)
(9.97593 0.0703847 0)
(9.96008 0.0969104 0)
(9.94834 0.128583 0)
(9.94109 0.152784 0)
(9.92903 0.170051 0)
(9.90495 0.184285 0)
(9.87057 0.195245 0)
(9.83412 0.201654 0)
(9.80366 0.205628 0)
(9.78146 0.212217 0)
(9.76388 0.22612 0)
(9.74741 0.248686 0)
(9.73253 0.27709 0)
(9.72037 0.306158 0)
(9.70697 0.331765 0)
(9.68379 0.352723 0)
(9.64526 0.369556 0)
(9.59479 0.382535 0)
(9.54196 0.392188 0)
(9.49455 0.40145 0)
(9.45404 0.415358 0)
(9.41738 0.437023 0)
(9.38079 0.464052 0)
(9.34135 0.490101 0)
(9.297 0.510603 0)
(9.24718 0.526665 0)
(9.19384 0.543044 0)
(9.1409 0.562776 0)
(9.0917 0.584568 0)
(9.04684 0.605373 0)
(9.00405 0.624266 0)
(8.95979 0.642607 0)
(8.91104 0.660854 0)
(8.85659 0.677253 0)
(8.79736 0.691061 0)
(8.73554 0.70601 0)
(8.67243 0.728056 0)
(8.60695 0.758488 0)
(8.53662 0.790781 0)
(8.46059 0.816517 0)
(8.38125 0.834733 0)
(8.30206 0.853858 0)
(8.22373 0.883127 0)
(8.14279 0.9223 0)
(8.05453 0.96099 0)
(7.95758 0.988782 0)
(7.8554 1.00576 0)
(7.75367 1.02264 0)
(7.65634 1.05039 0)
(7.56359 1.08992 0)
(7.47253 1.1313 0)
(7.37926 1.16259 0)
(7.28062 1.17958 0)
(7.17496 1.18885 0)
(7.06203 1.20292 0)
(6.94248 1.23216 0)
(6.81714 1.27928 0)
(6.68664 1.33904 0)
(6.55126 1.40231 0)
(6.41122 1.461 0)
(6.2669 1.51088 0)
(6.11881 1.55172 0)
(5.96754 1.5856 0)
(5.81352 1.61513 0)
(5.65701 1.64235 0)
(5.4981 1.66847 0)
(5.33676 1.69406 0)
(5.17296 1.71931 0)
(5.0066 1.74425 0)
(4.83762 1.76883 0)
(4.66594 1.793 0)
(4.49151 1.81673 0)
(4.31428 1.83996 0)
(4.1342 1.86265 0)
(3.95125 1.88478 0)
(3.76543 1.90632 0)
(3.57673 1.92726 0)
(3.38518 1.94763 0)
(3.19084 1.96746 0)
(2.9938 1.9868 0)
(2.79419 2.00575 0)
(2.5922 2.02441 0)
(2.38805 2.04294 0)
(2.18206 2.06148 0)
(1.97457 2.08018 0)
(1.76599 2.09913 0)
(1.55677 2.11836 0)
(1.34734 2.13774 0)
(1.13813 2.15695 0)
(0.929447 2.17535 0)
(0.721583 2.19216 0)
(0.514475 2.20603 0)
(0.308322 2.21686 0)
(0.102178 2.21779 0)
(9.95621 -0.1502 0)
(9.94646 -0.048608 0)
(9.95732 0.0323006 0)
(9.96574 0.0649394 0)
(9.97005 0.073008 0)
(9.96616 0.0859912 0)
(9.95704 0.107687 0)
(9.94386 0.12749 0)
(9.92667 0.142834 0)
(9.90781 0.159347 0)
(9.89279 0.180025 0)
(9.8855 0.201104 0)
(9.88427 0.216379 0)
(9.88284 0.223473 0)
(9.87353 0.226548 0)
(9.85062 0.232509 0)
(9.8128 0.24495 0)
(9.76435 0.262379 0)
(9.71396 0.282027 0)
(9.67078 0.304158 0)
(9.6398 0.331325 0)
(9.62028 0.363435 0)
(9.60755 0.395094 0)
(9.59548 0.419401 0)
(9.57792 0.4345 0)
(9.55026 0.445635 0)
(9.5119 0.460472 0)
(9.4672 0.482643 0)
(9.42276 0.509673 0)
(9.38235 0.536318 0)
(9.34455 0.559192 0)
(9.30502 0.578455 0)
(9.26085 0.595983 0)
(9.21224 0.612802 0)
(9.16091 0.628698 0)
(9.10794 0.6442 0)
(9.05355 0.662064 0)
(8.99794 0.685344 0)
(8.94098 0.713188 0)
(8.88124 0.739614 0)
(8.81663 0.75866 0)
(8.74666 0.771648 0)
(8.6737 0.787934 0)
(8.60079 0.8164 0)
(8.52825 0.856028 0)
(8.45309 0.896452 0)
(8.37233 0.928582 0)
(8.28646 0.953673 0)
(8.19932 0.980768 0)
(8.1144 1.01561 0)
(8.03148 1.05382 0)
(7.94685 1.08597 0)
(7.85655 1.1084 0)
(7.75952 1.12749 0)
(7.65824 1.15306 0)
(7.55678 1.18826 0)
(7.45805 1.22648 0)
(7.36241 1.25785 0)
(7.26785 1.27842 0)
(7.17095 1.29384 0)
(7.0681 1.31523 0)
(6.95683 1.35171 0)
(6.83662 1.40523 0)
(6.7085 1.47048 0)
(6.57404 1.53861 0)
(6.43458 1.60175 0)
(6.29098 1.65574 0)
(6.14376 1.70029 0)
(5.99328 1.73746 0)
(5.83986 1.76993 0)
(5.68369 1.79984 0)
(5.5249 1.82854 0)
(5.36352 1.85668 0)
(5.19957 1.8845 0)
(5.03297 1.91207 0)
(4.86369 1.93934 0)
(4.69165 1.96628 0)
(4.5168 1.99281 0)
(4.33909 2.01889 0)
(4.15849 2.04447 0)
(3.97497 2.0695 0)
(3.78851 2.09395 0)
(3.59913 2.11779 0)
(3.40684 2.14101 0)
(3.2117 2.16362 0)
(3.0138 2.18564 0)
(2.81326 2.20711 0)
(2.61026 2.22809 0)
(2.40502 2.24866 0)
(2.19783 2.26892 0)
(1.98904 2.28894 0)
(1.77904 2.30879 0)
(1.5683 2.32847 0)
(1.35727 2.34783 0)
(1.14643 2.36661 0)
(0.936107 2.38428 0)
(0.726644 2.4002 0)
(0.518011 2.41317 0)
(0.310406 2.42333 0)
(0.102872 2.42346 0)
(10.0528 -0.0878497 0)
(10.0032 -0.0465536 0)
(9.99301 -0.00415426 0)
(10.0043 0.0368039 0)
(10.0001 0.0585413 0)
(9.97154 0.0740603 0)
(9.94895 0.0994449 0)
(9.94639 0.137129 0)
(9.94929 0.173505 0)
(9.94015 0.194209 0)
(9.91609 0.198022 0)
(9.8861 0.195296 0)
(9.8596 0.197385 0)
(9.84073 0.210403 0)
(9.8286 0.235697 0)
(9.81812 0.271474 0)
(9.80206 0.312019 0)
(9.77571 0.348126 0)
(9.74018 0.371828 0)
(9.70056 0.381797 0)
(9.66106 0.383919 0)
(9.62263 0.386645 0)
(9.58508 0.39582 0)
(9.54985 0.413198 0)
(9.51943 0.437894 0)
(9.49366 0.467566 0)
(9.46787 0.498495 0)
(9.4357 0.526583 0)
(9.39433 0.549819 0)
(9.34687 0.569663 0)
(9.29961 0.589523 0)
(9.25681 0.611931 0)
(9.21796 0.637117 0)
(9.17918 0.663546 0)
(9.13647 0.689174 0)
(9.08813 0.712511 0)
(9.03509 0.733549 0)
(8.97988 0.754029 0)
(8.92489 0.776051 0)
(8.87038 0.799943 0)
(8.81345 0.824191 0)
(8.74948 0.848139 0)
(8.67573 0.874007 0)
(8.59409 0.904754 0)
(8.51029 0.939696 0)
(8.42987 0.973785 0)
(8.35437 1.00272 0)
(8.28104 1.02822 0)
(8.20575 1.05647 0)
(8.1265 1.09117 0)
(8.04423 1.12915 0)
(7.96073 1.16391 0)
(7.87605 1.19306 0)
(7.78792 1.22096 0)
(7.69354 1.25343 0)
(7.5923 1.29075 0)
(7.48684 1.32644 0)
(7.38158 1.35339 0)
(7.27986 1.37129 0)
(7.18163 1.38844 0)
(7.08322 1.41647 0)
(6.97935 1.46284 0)
(6.866 1.52682 0)
(6.74205 1.60104 0)
(6.60887 1.67592 0)
(6.46879 1.74398 0)
(6.32384 1.80175 0)
(6.17533 1.84951 0)
(6.02392 1.8896 0)
(5.86991 1.92481 0)
(5.71339 1.95737 0)
(5.55438 1.98868 0)
(5.39283 2.01942 0)
(5.22869 2.04988 0)
(5.06189 2.08014 0)
(4.89234 2.11016 0)
(4.71999 2.13991 0)
(4.54477 2.1693 0)
(4.36664 2.19829 0)
(4.18557 2.2268 0)
(4.00152 2.25479 0)
(3.8145 2.28219 0)
(3.6245 2.30897 0)
(3.43157 2.33509 0)
(3.23575 2.36053 0)
(3.03712 2.38527 0)
(2.83582 2.40931 0)
(2.63199 2.43268 0)
(2.42585 2.45539 0)
(2.21767 2.47747 0)
(2.00776 2.49896 0)
(1.7965 2.51985 0)
(1.58433 2.5401 0)
(1.37168 2.5596 0)
(1.15901 2.57809 0)
(0.946693 2.59513 0)
(0.735057 2.61023 0)
(0.52412 2.62234 0)
(0.314113 2.63188 0)
(0.104119 2.63121 0)
(10.0894 0.160892 0)
(10.0666 0.0763704 0)
(9.99177 0.0569571 0)
(9.95317 0.0930068 0)
(9.95066 0.126383 0)
(9.94586 0.135232 0)
(9.92643 0.123018 0)
(9.91025 0.117538 0)
(9.90953 0.140576 0)
(9.91712 0.185244 0)
(9.91836 0.228995 0)
(9.9061 0.255802 0)
(9.88382 0.262815 0)
(9.85803 0.2569 0)
(9.8325 0.251463 0)
(9.80994 0.260261 0)
(9.7929 0.287312 0)
(9.78029 0.323387 0)
(9.76556 0.355862 0)
(9.74072 0.381667 0)
(9.70299 0.40751 0)
(9.6569 0.437861 0)
(9.61015 0.466844 0)
(9.56797 0.484708 0)
(9.53143 0.49091 0)
(9.49935 0.497604 0)
(9.4701 0.51863 0)
(9.44124 0.555914 0)
(9.40962 0.597754 0)
(9.37339 0.630018 0)
(9.33385 0.648224 0)
(9.29422 0.659264 0)
(9.25631 0.673146 0)
(9.2185 0.6943 0)
(9.17711 0.720219 0)
(9.12925 0.746506 0)
(9.07399 0.771686 0)
(9.01174 0.797281 0)
(8.94367 0.824576 0)
(8.8721 0.852744 0)
(8.8005 0.880637 0)
(8.73172 0.909589 0)
(8.66588 0.942771 0)
(8.60045 0.980829 0)
(8.53279 1.01913 0)
(8.4625 1.0513 0)
(8.39096 1.07641 0)
(8.31867 1.10139 0)
(8.24347 1.13458 0)
(8.16215 1.17668 0)
(8.07384 1.21938 0)
(7.98166 1.25394 0)
(7.89017 1.28073 0)
(7.80102 1.30911 0)
(7.711 1.34749 0)
(7.61466 1.39384 0)
(7.50945 1.43649 0)
(7.39835 1.46461 0)
(7.28788 1.47848 0)
(7.18317 1.49066 0)
(7.08422 1.51755 0)
(6.98589 1.56871 0)
(6.88139 1.64204 0)
(6.76604 1.72699 0)
(6.63892 1.81128 0)
(6.50192 1.88632 0)
(6.35783 1.94889 0)
(6.20905 2.00002 0)
(6.05704 2.04277 0)
(5.90249 2.08039 0)
(5.74561 2.11534 0)
(5.58638 2.14908 0)
(5.42468 2.18236 0)
(5.26041 2.21546 0)
(5.09344 2.24843 0)
(4.92369 2.28125 0)
(4.75107 2.31386 0)
(4.57552 2.34618 0)
(4.39699 2.37812 0)
(4.21546 2.40962 0)
(4.0309 2.44061 0)
(3.8433 2.47101 0)
(3.65269 2.50077 0)
(3.4591 2.52982 0)
(3.26257 2.55812 0)
(3.06321 2.58563 0)
(2.86112 2.61229 0)
(2.65645 2.6381 0)
(2.4494 2.66303 0)
(2.24022 2.68705 0)
(2.0292 2.71013 0)
(1.81667 2.73223 0)
(1.60303 2.75328 0)
(1.38868 2.77313 0)
(1.17405 2.79158 0)
(0.95949 2.80824 0)
(0.745347 2.82274 0)
(0.531666 2.83418 0)
(0.318725 2.84321 0)
(0.105674 2.84182 0)
(9.96289 0.0618846 0)