/*--------------------------------*- C++ -*----------------------------------*\
| =========                 |                                                 |
| \\      /  F ield         | OpenFOAM: The Open Source CFD Toolbox           |
|  \\    /   O peration     | Version:  4.1                                   |
|   \\  /    A nd           | Web:      www.OpenFOAM.org                      |
|    \\/     M anipulation  |                                                 |
\*---------------------------------------------------------------------------*/
FoamFile
{
    version     2.0;
    format      ascii;
    class       volVectorField;
    location    "0.151";
    object      U_0;
}
// * * * * * * * * * * * * * * * * * * * * * * * * * * * * * * * * * * * * * //

dimensions      [0 1 -1 0 0 0 0];

internalField   nonuniform List<vector> 
43750
(
(9.96694 -0.0339776 0)
(9.9569 -0.025074 0)
(9.94572 0.0052973 0)
(9.92992 0.0263078 0)
(9.91354 0.037123 0)
(9.90702 0.027277 0)
(9.91388 0.0111511 0)
(9.92039 0.01154 0)
(9.91073 0.0256152 0)
(9.88676 0.0329416 0)
(9.86121 0.0242973 0)
(9.84385 0.00989724 0)
(9.83382 0.00642506 0)
(9.82212 0.0209003 0)
(9.7992 0.0442161 0)
(9.7625 0.0578413 0)
(9.71941 0.0485331 0)
(9.682 0.0198198 0)
(9.65743 -0.00947156 0)
(9.64173 -0.0194558 0)
(9.62182 -0.0039226 0)
(9.58461 0.0261522 0)
(9.52613 0.0516348 0)
(9.45371 0.0582732 0)
(9.38023 0.0442114 0)
(9.31701 0.0201719 0)
(9.26992 0.00242839 0)
(9.23754 0.00294828 0)
(9.21104 0.0223482 0)
(9.17785 0.0487983 0)
(9.12901 0.0648222 0)
(9.06535 0.0603653 0)
(8.99622 0.0409475 0)
(8.93097 0.0231359 0)
(8.87098 0.0208046 0)
(8.80972 0.0343007 0)
(8.73997 0.0521387 0)
(8.66022 0.0626268 0)
(8.57404 0.0631772 0)
(8.48496 0.0588074 0)
(8.39389 0.053761 0)
(8.30135 0.0470054 0)
(8.20992 0.0363817 0)
(8.12231 0.0250157 0)
(8.0373 0.0207321 0)
(7.9494 0.0283632 0)
(7.85387 0.0441126 0)
(7.75168 0.0591357 0)
(7.64779 0.0685771 0)
(7.54398 0.0755802 0)
(7.43464 0.0856573 0)
(7.31122 0.0984306 0)
(7.17149 0.106933 0)
(7.02335 0.106004 0)
(6.87768 0.100606 0)
(6.73664 0.103521 0)
(6.58859 0.12332 0)
(6.41553 0.154405 0)
(6.20749 0.179847 0)
(5.97097 0.185065 0)
(5.7245 0.16862 0)
(5.48679 0.140713 0)
(5.26829 0.11391 0)
(5.07031 0.0956985 0)
(4.88836 0.0869844 0)
(4.71584 0.0848668 0)
(4.54686 0.086055 0)
(4.37744 0.0882376 0)
(4.20547 0.0902976 0)
(4.03009 0.0919325 0)
(3.85117 0.0931792 0)
(3.6689 0.0941304 0)
(3.48358 0.0948204 0)
(3.29558 0.0952188 0)
(3.1053 0.0952643 0)
(2.91321 0.0948796 0)
(2.71989 0.0939808 0)
(2.526 0.0924897 0)
(2.33232 0.0903294 0)
(2.13974 0.0874247 0)
(1.94928 0.0837095 0)
(1.76206 0.0791296 0)
(1.57928 0.0736549 0)
(1.40222 0.0672851 0)
(1.23221 0.0600478 0)
(1.07054 0.0520098 0)
(0.918468 0.0432763 0)
(0.777137 0.0339914 0)
(0.647521 0.0243323 0)
(0.530396 0.0145052 0)
(0.426276 0.00475598 0)
(0.335381 -0.00465725 0)
(0.25763 -0.0135064 0)
(0.192615 -0.0215935 0)
(0.139609 -0.0287415 0)
(0.0975258 -0.0348233 0)
(0.065053 -0.0397332 0)
(0.0403523 -0.0435044 0)
(0.02179 -0.0462297 0)
(0.00678976 -0.0473595 0)
(9.97173 -0.0491343 0)
(9.9642 0.0105364 0)
(9.96452 0.0174418 0)
(9.98319 0.00190469 0)
(9.99185 -0.014927 0)
(9.97953 -0.0260426 0)
(9.96358 -0.0237826 0)
(9.96008 -0.00930501 0)
(9.96716 0.00723043 0)
(9.96896 0.0167658 0)
(9.95576 0.0187191 0)
(9.9323 0.0170975 0)
(9.91027 0.0145487 0)
(9.89682 0.0127476 0)
(9.89026 0.0145048 0)
(9.88264 0.0217713 0)
(9.86539 0.0327614 0)
(9.83478 0.0430184 0)
(9.79432 0.0497455 0)
(9.75273 0.0541685 0)
(9.71965 0.0596737 0)
(9.70063 0.0680239 0)
(9.69327 0.0781836 0)
(9.68697 0.0877365 0)
(9.66833 0.0936203 0)
(9.62846 0.0914972 0)
(9.56787 0.0780216 0)
(9.49776 0.0561072 0)
(9.43547 0.0365664 0)
(9.39429 0.0320066 0)
(9.37428 0.0465925 0)
(9.36057 0.0718024 0)
(9.33231 0.0931144 0)
(9.27838 0.101573 0)
(9.20668 0.0994472 0)
(9.13761 0.0955032 0)
(9.08748 0.0962648 0)
(9.05737 0.10233 0)
(9.03552 0.111039 0)
(9.00861 0.120194 0)
(8.96996 0.128883 0)
(8.91849 0.136444 0)
(8.85344 0.142383 0)
(8.77352 0.147068 0)
(8.68132 0.151263 0)
(8.58604 0.154211 0)
(8.49872 0.153241 0)
(8.42402 0.146845 0)
(8.35726 0.138499 0)
(8.28994 0.135924 0)
(8.21775 0.144832 0)
(8.1426 0.162825 0)
(8.0674 0.180203 0)
(7.99084 0.187918 0)
(7.90822 0.185722 0)
(7.81712 0.18353 0)
(7.72107 0.194072 0)
(7.62649 0.222332 0)
(7.53643 0.260886 0)
(7.44817 0.295319 0)
(7.35589 0.314086 0)
(7.25484 0.31444 0)
(7.14335 0.30148 0)
(7.02189 0.283393 0)
(6.89147 0.267274 0)
(6.75325 0.256894 0)
(6.60817 0.252886 0)
(6.45681 0.253905 0)
(6.29972 0.257976 0)
(6.13739 0.263417 0)
(5.97029 0.269162 0)
(5.79872 0.274695 0)
(5.62292 0.279819 0)
(5.44301 0.284463 0)
(5.25909 0.288574 0)
(5.07122 0.292072 0)
(4.87948 0.294841 0)
(4.68395 0.296748 0)
(4.48476 0.297644 0)
(4.28207 0.297373 0)
(4.07608 0.295779 0)
(3.86706 0.292714 0)
(3.65532 0.288048 0)
(3.44125 0.281683 0)
(3.22527 0.27356 0)
(3.00788 0.263677 0)
(2.78959 0.252087 0)
(2.57097 0.23891 0)
(2.35259 0.224334 0)
(2.13505 0.208608 0)
(1.91893 0.19203 0)
(1.70474 0.174952 0)
(1.49295 0.157783 0)
(1.28397 0.14098 0)
(1.07815 0.125038 0)
(0.875695 0.110455 0)
(0.676629 0.0978073 0)
(0.480677 0.0875906 0)
(0.287404 0.080447 0)
(0.0951278 0.076595 0)
(9.97236 -0.0415194 0)
(9.99585 -0.02724 0)
(10.0147 -0.0124592 0)
(9.99706 0.0112773 0)
(9.95714 0.0435134 0)
(9.93018 0.0511904 0)
(9.91035 0.0290556 0)
(9.88921 0.00871869 0)
(9.8768 0.017437 0)
(9.88082 0.044875 0)
(9.89422 0.0619096 0)
(9.90221 0.0567525 0)
(9.89279 0.0435 0)
(9.86358 0.0427342 0)
(9.82318 0.0601654 0)
(9.78552 0.0833228 0)
(9.76016 0.0952753 0)
(9.74577 0.0894692 0)
(9.73293 0.0726003 0)
(9.71362 0.0568745 0)
(9.68739 0.0507273 0)
(9.659 0.0553678 0)
(9.63247 0.0674675 0)
(9.60863 0.0833916 0)
(9.58577 0.100969 0)
(9.56033 0.117995 0)
(9.52715 0.130715 0)
(9.48042 0.134506 0)
(9.41862 0.127056 0)
(9.3491 0.11223 0)
(9.28431 0.100873 0)
(9.23225 0.104339 0)
(9.18986 0.124583 0)
(9.14559 0.150025 0)
(9.08923 0.163323 0)
(9.02003 0.155765 0)
(8.94614 0.13474 0)
(8.87738 0.116887 0)
(8.81869 0.114207 0)
(8.76882 0.126464 0)
(8.72328 0.145419 0)
(8.67785 0.164255 0)
(8.62981 0.181574 0)
(8.57754 0.197412 0)
(8.51983 0.208843 0)
(8.45506 0.211852 0)
(8.38045 0.207107 0)
(8.29298 0.20183 0)
(8.19254 0.204502 0)
(8.08501 0.217596 0)
(7.98107 0.235831 0)
(7.89025 0.251373 0)
(7.81399 0.260623 0)
(7.7434 0.266683 0)
(7.66493 0.275836 0)
(7.57049 0.292209 0)
(7.46366 0.31521 0)
(7.35715 0.340121 0)
(7.26359 0.360104 0)
(7.18747 0.369443 0)
(7.12398 0.367315 0)
(7.06345 0.358654 0)
(6.9962 0.350706 0)
(6.91577 0.348762 0)
(6.81984 0.3543 0)
(6.70929 0.365565 0)
(6.58684 0.379445 0)
(6.45565 0.393457 0)
(6.31844 0.406353 0)
(6.17704 0.417855 0)
(6.03241 0.428178 0)
(5.88497 0.437648 0)
(5.73483 0.446506 0)
(5.582 0.454864 0)
(5.42639 0.462732 0)
(5.26793 0.470053 0)
(5.10647 0.476727 0)
(4.94188 0.482629 0)
(4.77396 0.487617 0)
(4.60249 0.491535 0)
(4.42724 0.49422 0)
(4.24792 0.495512 0)
(4.06425 0.495265 0)
(3.87593 0.493364 0)
(3.68266 0.489733 0)
(3.48413 0.484345 0)
(3.28009 0.477232 0)
(3.0703 0.46849 0)
(2.85457 0.458269 0)
(2.63278 0.446772 0)
(2.40488 0.434231 0)
(2.17094 0.420912 0)
(1.93118 0.407131 0)
(1.68593 0.393262 0)
(1.43567 0.379731 0)
(1.18098 0.367011 0)
(0.922534 0.35568 0)
(0.66102 0.346283 0)
(0.397506 0.339815 0)
(0.132064 0.335799 0)
(9.9146 0.0184967 0)
(9.91983 -0.0371732 0)
(9.94242 0.0123291 0)
(9.94456 0.053661 0)
(9.93409 0.0457048 0)
(9.91994 0.0261302 0)
(9.90615 0.0222426 0)
(9.89059 0.0239454 0)
(9.87858 0.0142419 0)
(9.87524 -0.00170284 0)
(9.87732 -0.00417375 0)
(9.87492 0.0166749 0)
(9.86166 0.0511632 0)
(9.8422 0.0801248 0)
(9.82725 0.0906391 0)
(9.82128 0.0842264 0)
(9.8168 0.0734169 0)
(9.8006 0.0712379 0)
(9.76539 0.0815568 0)
(9.71626 0.0979877 0)
(9.66656 0.111776 0)
(9.62729 0.120122 0)
(9.59958 0.126376 0)
(9.57597 0.134181 0)
(9.54846 0.143574 0)
(9.51488 0.152703 0)
(9.47796 0.160238 0)
(9.44039 0.165207 0)
(9.40139 0.166479 0)
(9.35783 0.164039 0)
(9.30879 0.161245 0)
(9.25813 0.164419 0)
(9.21159 0.178103 0)
(9.17123 0.200235 0)
(9.13254 0.222486 0)
(9.08742 0.235773 0)
(9.03025 0.236273 0)
(8.96129 0.227587 0)
(8.88498 0.217935 0)
(8.80585 0.214565 0)
(8.72664 0.219626 0)
(8.64938 0.230538 0)
(8.57616 0.243638 0)
(8.50752 0.257575 0)
(8.43998 0.27359 0)
(8.36657 0.293001 0)
(8.2813 0.314471 0)
(8.18363 0.333491 0)
(8.07894 0.344631 0)
(7.9748 0.345158 0)
(7.87655 0.337486 0)
(7.78532 0.328669 0)
(7.69871 0.326962 0)
(7.61279 0.337325 0)
(7.52401 0.358726 0)
(7.43084 0.384866 0)
(7.33496 0.408218 0)
(7.2406 0.424216 0)
(7.15168 0.432427 0)
(7.06882 0.43525 0)
(6.98838 0.436326 0)
(6.90422 0.439194 0)
(6.81108 0.446225 0)
(6.70681 0.458151 0)
(6.59203 0.473956 0)
(6.46887 0.491641 0)
(6.33971 0.509265 0)
(6.20639 0.525615 0)
(6.06998 0.540283 0)
(5.93103 0.553427 0)
(5.78983 0.565425 0)
(5.64655 0.57663 0)
(5.50129 0.587278 0)
(5.35415 0.597483 0)
(5.20515 0.607277 0)
(5.05429 0.616636 0)
(4.90154 0.625508 0)
(4.7468 0.633815 0)
(4.58993 0.641468 0)
(4.43074 0.648368 0)
(4.26897 0.654411 0)
(4.1043 0.659492 0)
(3.93636 0.663514 0)
(3.7647 0.666398 0)
(3.58882 0.668091 0)
(3.40819 0.668568 0)
(3.22221 0.667843 0)
(3.03029 0.665967 0)
(2.8318 0.66302 0)
(2.62614 0.659112 0)
(2.41278 0.654388 0)
(2.19128 0.649005 0)
(1.96132 0.643102 0)
(1.72275 0.636839 0)
(1.47571 0.630423 0)
(1.22053 0.624123 0)
(0.958011 0.618316 0)
(0.689044 0.613309 0)
(0.415431 0.609928 0)
(0.138235 0.606904 0)
(10.0212 0.00486041 0)
(9.99263 -0.0559073 0)
(10.0091 -0.0224538 0)
(10.0227 0.0327326 0)
(10.0166 0.0699788 0)
(9.99926 0.0738416 0)
(9.98324 0.0535688 0)
(9.9704 0.0346519 0)
(9.95317 0.0336028 0)
(9.92987 0.0474614 0)
(9.9078 0.0639693 0)
(9.89362 0.0748687 0)
(9.88584 0.0789616 0)
(9.87697 0.0796103 0)
(9.8595 0.0827277 0)
(9.83005 0.0942395 0)
(9.79135 0.115678 0)
(9.75145 0.140688 0)
(9.71814 0.157523 0)
(9.69236 0.157306 0)
(9.66724 0.142061 0)
(9.63467 0.124923 0)
(9.59304 0.120802 0)
(9.54864 0.135111 0)
(9.50968 0.161015 0)
(9.47988 0.186484 0)
(9.45654 0.20337 0)
(9.43259 0.210557 0)
(9.40063 0.21066 0)
(9.35698 0.206781 0)
(9.30348 0.202631 0)
(9.24618 0.20335 0)
(9.19157 0.213186 0)
(9.14263 0.23105 0)
(9.09759 0.249614 0)
(9.05185 0.260919 0)
(9.00068 0.263674 0)
(8.94059 0.264494 0)
(8.86951 0.271303 0)
(8.78759 0.285623 0)
(8.69838 0.301867 0)
(8.60882 0.314079 0)
(8.52646 0.322486 0)
(8.45552 0.332759 0)
(8.39436 0.349308 0)
(8.33671 0.370475 0)
(8.27557 0.390528 0)
(8.20644 0.405324 0)
(8.12751 0.415088 0)
(8.03842 0.42207 0)
(7.93994 0.427266 0)
(7.83497 0.430704 0)
(7.72863 0.434317 0)
(7.6262 0.442534 0)
(7.5301 0.458776 0)
(7.43853 0.481626 0)
(7.34718 0.505024 0)
(7.25243 0.522402 0)
(7.15338 0.530973 0)
(7.05111 0.533022 0)
(6.94654 0.533968 0)
(6.83903 0.539192 0)
(6.72671 0.551632 0)
(6.60791 0.570926 0)
(6.48211 0.594394 0)
(6.35008 0.618848 0)
(6.21323 0.64192 0)
(6.07296 0.66248 0)
(5.93022 0.680452 0)
(5.78552 0.69632 0)
(5.63903 0.710673 0)
(5.4908 0.72398 0)
(5.34087 0.736544 0)
(5.18926 0.748531 0)
(5.03601 0.760013 0)
(4.88117 0.771014 0)
(4.72475 0.781525 0)
(4.56674 0.791515 0)
(4.40712 0.800944 0)
(4.2458 0.809769 0)
(4.08267 0.817948 0)
(3.91756 0.825446 0)
(3.75021 0.832237 0)
(3.58035 0.838317 0)
(3.40758 0.843704 0)
(3.23149 0.848443 0)
(3.05157 0.852608 0)
(2.86726 0.856293 0)
(2.67793 0.859614 0)
(2.48293 0.862694 0)
(2.28159 0.865653 0)
(2.07325 0.868582 0)
(1.85732 0.87151 0)
(1.63335 0.874388 0)
(1.40109 0.877125 0)
(1.16055 0.8796 0)
(0.91227 0.881728 0)
(0.656974 0.883301 0)
(0.396495 0.884688 0)
(0.13198 0.883631 0)
(10.0109 -0.0671196 0)
(9.97189 -0.045039 0)
(9.94147 -0.00995654 0)
(9.91846 0.0429872 0)
(9.91446 0.0718674 0)
(9.93114 0.0676694 0)
(9.95708 0.056758 0)
(9.9657 0.0551793 0)
(9.95124 0.0534779 0)
(9.92785 0.0416041 0)
(9.90899 0.0295397 0)
(9.89718 0.0358216 0)
(9.88619 0.0650582 0)
(9.86796 0.104252 0)
(9.83871 0.136399 0)
(9.8017 0.152086 0)
(9.76471 0.15198 0)
(9.7348 0.144161 0)
(9.71399 0.139776 0)
(9.69816 0.147288 0)
(9.68009 0.167299 0)
(9.65491 0.192001 0)
(9.62298 0.210682 0)
(9.58784 0.217128 0)
(9.55186 0.213274 0)
(9.51472 0.207511 0)
(9.47585 0.209047 0)
(9.43708 0.221683 0)
(9.40101 0.241386 0)
(9.36647 0.259625 0)
(9.32713 0.270298 0)
(9.27608 0.274766 0)
(9.21235 0.280182 0)
(9.14262 0.292512 0)
(9.07564 0.311078 0)
(9.01507 0.330011 0)
(8.95782 0.344672 0)
(8.89891 0.356049 0)
(8.83703 0.368619 0)
(8.77494 0.384059 0)
(8.71488 0.397833 0)
(8.65471 0.403034 0)
(8.58956 0.39825 0)
(8.51708 0.391157 0)
(8.44027 0.393515 0)
(8.36432 0.412114 0)
(8.29091 0.444129 0)
(8.2165 0.480157 0)
(8.13602 0.510753 0)
(8.0478 0.530584 0)
(7.95474 0.538785 0)
(7.86144 0.538044 0)
(7.77043 0.534112 0)
(7.68095 0.534476 0)
(7.59041 0.545025 0)
(7.49639 0.566387 0)
(7.39757 0.593155 0)
(7.29376 0.617272 0)
(7.18564 0.633269 0)
(7.07408 0.641534 0)
(6.95945 0.647448 0)
(6.84126 0.6575 0)
(6.71856 0.675421 0)
(6.59064 0.700729 0)
(6.45738 0.729979 0)
(6.31926 0.759185 0)
(6.17715 0.78566 0)
(6.03199 0.808524 0)
(5.88446 0.828182 0)
(5.73493 0.845518 0)
(5.58355 0.861348 0)
(5.43034 0.876217 0)
(5.2753 0.890415 0)
(5.11842 0.904066 0)
(4.9597 0.917212 0)
(4.79916 0.929854 0)
(4.63685 0.941982 0)
(4.47278 0.953578 0)
(4.30697 0.964626 0)
(4.13942 0.975111 0)
(3.97012 0.985027 0)
(3.799 0.994383 0)
(3.626 1.00321 0)
(3.45097 1.01155 0)
(3.27376 1.0195 0)
(3.09414 1.02715 0)
(2.91184 1.03465 0)
(2.72651 1.04216 0)
(2.53776 1.04985 0)
(2.34515 1.05787 0)
(2.14817 1.06636 0)
(1.9463 1.0754 0)
(1.73898 1.08498 0)
(1.52571 1.09494 0)
(1.30616 1.10501 0)
(1.08017 1.11471 0)
(0.848009 1.12355 0)
(0.610134 1.13078 0)
(0.368023 1.13638 0)
(0.122431 1.13702 0)
(10.0154 -0.0442424 0)
(10.0296 0.000395476 0)
(10.009 0.0294794 0)
(9.988 0.0616056 0)
(9.97501 0.0533566 0)
(9.9694 0.0233065 0)
(9.96628 0.0152593 0)
(9.96448 0.0400546 0)
(9.96087 0.0735319 0)
(9.94772 0.0929342 0)
(9.91866 0.0979375 0)
(9.87692 0.101033 0)
(9.83558 0.111277 0)
(9.80842 0.128883 0)
(9.7992 0.149242 0)
(9.79896 0.168067 0)
(9.79364 0.182767 0)
(9.77451 0.192042 0)
(9.74313 0.195217 0)
(9.708 0.192705 0)
(9.67733 0.187179 0)
(9.65407 0.183892 0)
(9.63568 0.189033 0)
(9.61642 0.206262 0)
(9.58978 0.233225 0)
(9.55124 0.261193 0)
(9.50133 0.279939 0)
(9.44664 0.285069 0)
(9.39617 0.281863 0)
(9.35455 0.281896 0)
(9.3177 0.294464 0)
(9.27572 0.319533 0)
(9.2212 0.34811 0)
(9.15541 0.369564 0)
(9.08663 0.379425 0)
(9.0227 0.381331 0)
(8.96519 0.382517 0)
(8.91011 0.387758 0)
(8.85343 0.397163 0)
(8.7951 0.408778 0)
(8.73769 0.422097 0)
(8.68149 0.438476 0)
(8.62177 0.458573 0)
(8.55186 0.480431 0)
(8.46936 0.501069 0)
(8.37886 0.519858 0)
(8.28789 0.539289 0)
(8.20049 0.56172 0)
(8.11499 0.585523 0)
(8.02782 0.605062 0)
(7.9383 0.615143 0)
(7.84925 0.616244 0)
(7.76309 0.61569 0)
(7.67794 0.62314 0)
(7.58803 0.643808 0)
(7.48801 0.674949 0)
(7.37722 0.708037 0)
(7.26009 0.734427 0)
(7.14274 0.750406 0)
(7.02898 0.758759 0)
(6.91854 0.766362 0)
(6.80812 0.779844 0)
(6.69382 0.80222 0)
(6.57312 0.832204 0)
(6.44533 0.865863 0)
(6.31105 0.899032 0)
(6.17136 0.929 0)
(6.02731 0.954907 0)
(5.8797 0.977218 0)
(5.72909 0.996922 0)
(5.57584 1.01495 0)
(5.42018 1.03192 0)
(5.26221 1.04818 0)
(5.10202 1.06385 0)
(4.93965 1.07899 0)
(4.77513 1.09361 0)
(4.60847 1.10767 0)
(4.4397 1.12118 0)
(4.26885 1.13412 0)
(4.09593 1.14648 0)
(3.92095 1.15828 0)
(3.74393 1.16952 0)
(3.56487 1.18028 0)
(3.38375 1.19063 0)
(3.20054 1.20068 0)
(3.01521 1.21059 0)
(2.82767 1.22052 0)
(2.63783 1.23071 0)
(2.44555 1.24136 0)
(2.25066 1.2527 0)
(2.05294 1.26491 0)
(1.85214 1.27807 0)
(1.64797 1.29217 0)
(1.44011 1.30702 0)
(1.22834 1.32221 0)
(1.01246 1.33709 0)
(0.792634 1.35082 0)
(0.569033 1.36225 0)
(0.342714 1.37102 0)
(0.113891 1.37281 0)
(10.0355 0.0760915 0)
(10.0377 -0.00682637 0)
(10.0479 0.0139864 0)
(10.0526 0.0728347 0)
(10.04 0.0977009 0)
(10.0215 0.0837411 0)
(10.0098 0.0641268 0)
(10.006 0.059449 0)
(9.99875 0.0669979 0)
(9.97762 0.079487 0)
(9.9463 0.0959113 0)
(9.91742 0.114988 0)
(9.89797 0.13076 0)
(9.88459 0.139655 0)
(9.87181 0.146271 0)
(9.85958 0.158168 0)
(9.85109 0.176294 0)
(9.84548 0.19389 0)
(9.83506 0.205157 0)
(9.81055 0.211802 0)
(9.76842 0.219888 0)
(9.71319 0.232494 0)
(9.65405 0.247744 0)
(9.60008 0.263159 0)
(9.55697 0.279097 0)
(9.52503 0.296742 0)
(9.49854 0.314191 0)
(9.46817 0.326909 0)
(9.42669 0.332987 0)
(9.37374 0.337111 0)
(9.31535 0.347771 0)
(9.25849 0.369601 0)
(9.20612 0.398514 0)
(9.15701 0.424815 0)
(9.1088 0.441331 0)
(9.06009 0.448963 0)
(9.00949 0.454995 0)
(8.95377 0.466192 0)
(8.88846 0.483042 0)
(8.81161 0.500224 0)
(8.72695 0.512553 0)
(8.64261 0.52041 0)
(8.56554 0.529346 0)
(8.49632 0.544636 0)
(8.42948 0.566897 0)
(8.35872 0.593281 0)
(8.28201 0.621676 0)
(8.20173 0.651877 0)
(8.12082 0.68212 0)
(8.03954 0.706206 0)
(7.95608 0.716808 0)
(7.86926 0.713294 0)
(7.77954 0.705877 0)
(7.6874 0.710135 0)
(7.59136 0.735438 0)
(7.48848 0.777443 0)
(7.37749 0.821242 0)
(7.26104 0.852128 0)
(7.14448 0.865144 0)
(7.03216 0.866879 0)
(6.92457 0.869686 0)
(6.81834 0.883602 0)
(6.70858 0.911608 0)
(6.59144 0.95011 0)
(6.4655 0.992635 0)
(6.33138 1.0335 0)
(6.19073 1.06957 0)
(6.0452 1.10023 0)
(5.89598 1.12634 0)
(5.74379 1.14923 0)
(5.58898 1.17005 0)
(5.43171 1.18958 0)
(5.27205 1.20826 0)
(5.11003 1.2263 0)
(4.94562 1.24376 0)
(4.77884 1.26067 0)
(4.60966 1.27702 0)
(4.43808 1.2928 0)
(4.2641 1.308 0)
(4.08772 1.32261 0)
(3.90895 1.33663 0)
(3.72782 1.35008 0)
(3.54433 1.36303 0)
(3.35853 1.37554 0)
(3.17047 1.38773 0)
(2.98018 1.39977 0)
(2.78773 1.41183 0)
(2.59319 1.42415 0)
(2.39662 1.43697 0)
(2.19807 1.45055 0)
(1.99759 1.46511 0)
(1.7952 1.48077 0)
(1.59091 1.49753 0)
(1.38468 1.51518 0)
(1.17648 1.53328 0)
(0.966229 1.55105 0)
(0.754053 1.56754 0)
(0.539952 1.58132 0)
(0.324611 1.59193 0)
(0.107754 1.59418 0)
(9.9782 0.00900478 0)
(9.96929 -0.0260527 0)
(9.98385 0.00677903 0)
(10.0038 0.0601903 0)
(10.0325 0.071905 0)
(10.0483 0.0448006 0)
(10.0441 0.0284942 0)
(10.0244 0.0540446 0)
(9.9924 0.107008 0)
(9.95313 0.150611 0)
(9.91608 0.163379 0)
(9.89056 0.15416 0)
(9.87803 0.146835 0)
(9.87093 0.155009 0)
(9.86008 0.172962 0)
(9.84317 0.187911 0)
(9.82408 0.196983 0)
(9.80493 0.208872 0)
(9.78178 0.231118 0)
(9.7496 0.260189 0)
(9.70972 0.285173 0)
(9.66962 0.298709 0)
(9.63526 0.302434 0)
(9.60598 0.303415 0)
(9.57732 0.308055 0)
(9.54631 0.319287 0)
(9.51215 0.336665 0)
(9.47291 0.357174 0)
(9.42491 0.376967 0)
(9.36685 0.394346 0)
(9.30352 0.411271 0)
(9.24327 0.430665 0)
(9.19133 0.451739 0)
(9.14563 0.469255 0)
(9.09937 0.478813 0)
(9.04695 0.482871 0)
(8.98761 0.490375 0)
(8.92431 0.509262 0)
(8.86038 0.538722 0)
(8.79749 0.568991 0)
(8.73562 0.589591 0)
(8.67373 0.598549 0)
(8.61024 0.603835 0)
(8.54358 0.615828 0)
(8.47277 0.638488 0)
(8.39806 0.667691 0)
(8.32135 0.697098 0)
(8.24563 0.724006 0)
(8.17295 0.748883 0)
(8.10237 0.770816 0)
(8.02931 0.786152 0)
(7.94764 0.793216 0)
(7.85333 0.797685 0)
(7.74701 0.811148 0)
(7.63344 0.842215 0)
(7.51839 0.887979 0)
(7.40588 0.934459 0)
(7.29737 0.966455 0)
(7.1923 0.97848 0)
(7.0888 0.978015 0)
(6.98428 0.979582 0)
(6.87592 0.995245 0)
(6.76107 1.02855 0)
(6.638 1.07477 0)
(6.50632 1.1255 0)
(6.36705 1.17347 0)
(6.22196 1.21495 0)
(6.07277 1.24949 0)
(5.92071 1.2785 0)
(5.76639 1.30382 0)
(5.61 1.32692 0)
(5.4515 1.34874 0)
(5.29078 1.36975 0)
(5.12772 1.39017 0)
(4.96224 1.41006 0)
(4.79427 1.42944 0)
(4.62375 1.44829 0)
(4.45066 1.46659 0)
(4.27495 1.48432 0)
(4.09661 1.50146 0)
(3.91564 1.51801 0)
(3.73204 1.53397 0)
(3.54583 1.54939 0)
(3.35705 1.56433 0)
(3.16577 1.57888 0)
(2.97207 1.59319 0)
(2.77607 1.6074 0)
(2.57793 1.62175 0)
(2.37782 1.63646 0)
(2.17595 1.65178 0)
(1.97254 1.66793 0)
(1.76784 1.68506 0)
(1.56207 1.70319 0)
(1.35542 1.72215 0)
(1.14809 1.74148 0)
(0.940133 1.76042 0)
(0.731742 1.77797 0)
(0.522833 1.79265 0)
(0.313826 1.80399 0)
(0.104081 1.80615 0)
(10.0027 0.0045255 0)
(10.0242 -0.047041 0)
(10.0146 0.00356591 0)
(9.98913 0.0511862 0)
(9.97392 0.0736947 0)
(9.96828 0.0787577 0)
(9.95387 0.0863621 0)
(9.93159 0.107026 0)
(9.91654 0.132412 0)
(9.91559 0.148891 0)
(9.91922 0.152082 0)
(9.91214 0.148636 0)
(9.88953 0.148752 0)
(9.86074 0.158253 0)
(9.8375 0.17555 0)
(9.82205 0.195287 0)
(9.80785 0.214594 0)
(9.78862 0.235443 0)
(9.76434 0.259613 0)
(9.73903 0.283222 0)
(9.71468 0.299404 0)
(9.68881 0.306522 0)
(9.65726 0.310972 0)
(9.6185 0.320803 0)
(9.57508 0.338597 0)
(9.53138 0.361723 0)
(9.49005 0.387181 0)
(9.45004 0.413357 0)
(9.40786 0.437825 0)
(9.361 0.45695 0)
(9.31059 0.469595 0)
(9.26057 0.479876 0)
(9.21379 0.49409 0)
(9.16862 0.514609 0)
(9.11957 0.537941 0)
(9.06184 0.559109 0)
(8.99547 0.57686 0)
(8.92571 0.593584 0)
(8.8594 0.610747 0)
(8.80054 0.62631 0)
(8.74792 0.637817 0)
(8.69582 0.647152 0)
(8.63735 0.660415 0)
(8.56888 0.682448 0)
(8.49268 0.712186 0)
(8.41548 0.743942 0)
(8.34356 0.772948 0)
(8.27803 0.798909 0)
(8.21399 0.824015 0)
(8.14388 0.848629 0)
(8.06226 0.870408 0)
(7.9685 0.888068 0)
(7.86603 0.905152 0)
(7.75973 0.928737 0)
(7.65376 0.963219 0)
(7.55054 1.00484 0)
(7.45054 1.04274 0)
(7.35231 1.06662 0)
(7.25307 1.07474 0)
(7.14994 1.0757 0)
(7.04096 1.08301 0)
(6.92529 1.10692 0)
(6.80271 1.14941 0)
(6.67323 1.20464 0)
(6.53714 1.26331 0)
(6.39518 1.31761 0)
(6.24849 1.36365 0)
(6.09825 1.40133 0)
(5.94539 1.43261 0)
(5.79039 1.45986 0)
(5.6334 1.48488 0)
(5.47435 1.50876 0)
(5.3131 1.532 0)
(5.1495 1.55479 0)
(4.98344 1.57716 0)
(4.81482 1.5991 0)
(4.64357 1.62057 0)
(4.46963 1.64153 0)
(4.29297 1.66196 0)
(4.11354 1.68181 0)
(3.93133 1.70109 0)
(3.74633 1.71977 0)
(3.55854 1.73789 0)
(3.36802 1.75547 0)
(3.17481 1.77258 0)
(2.97901 1.78933 0)
(2.78075 1.80584 0)
(2.58022 1.82229 0)
(2.37765 1.83887 0)
(2.17332 1.85578 0)
(1.96755 1.87322 0)
(1.76069 1.89132 0)
(1.55313 1.91013 0)
(1.34521 1.92948 0)
(1.13728 1.94901 0)
(0.929555 1.96797 0)
(0.722261 1.98546 0)
(0.515317 2.00003 0)
(0.308989 2.01134 0)
(0.102422 2.013 0)
(10.0091 -0.0484049 0)
(9.9478 -0.0412999 0)
(9.96822 0.0123952 0)
(9.98088 0.0595292 0)
(10.0024 0.0700145 0)
(10.0105 0.0623262 0)
(9.99973 0.0694389 0)
(9.98179 0.097662 0)
(9.96837 0.13048 0)
(9.95967 0.155472 0)
(9.9463 0.173314 0)
(9.92105 0.187966 0)
(9.88565 0.199209 0)
(9.84832 0.205802 0)
(9.8171 0.209902 0)
(9.7942 0.21658 0)
(9.77597 0.230541 0)
(9.75888 0.253124 0)
(9.74344 0.281496 0)
(9.73075 0.310485 0)
(9.71683 0.335983 0)
(9.69312 0.356819 0)
(9.65409 0.373523 0)
(9.60318 0.386367 0)
(9.54997 0.395887 0)
(9.50223 0.405031 0)
(9.4614 0.41884 0)
(9.42442 0.440409 0)
(9.38751 0.467322 0)
(9.34776 0.493231 0)
(9.30311 0.513585 0)
(9.253 0.529517 0)
(9.19941 0.545788 0)
(9.14623 0.565418 0)
(9.09682 0.587102 0)
(9.05176 0.60779 0)
(9.00877 0.626573 0)
(8.9643 0.644813 0)
(8.91534 0.662961 0)
(8.86069 0.679259 0)
(8.80128 0.692974 0)
(8.73928 0.707856 0)
(8.67601 0.729854 0)
(8.61036 0.760232 0)
(8.53987 0.79244 0)
(8.46369 0.818073 0)
(8.38421 0.836202 0)
(8.3049 0.855283 0)
(8.22645 0.884532 0)
(8.14537 0.923667 0)
(8.05698 0.962279 0)
(7.9599 0.989972 0)
(7.85762 1.00688 0)
(7.75582 1.02372 0)
(7.65842 1.05146 0)
(7.5656 1.09097 0)
(7.47446 1.13229 0)
(7.3811 1.1635 0)
(7.28237 1.18041 0)
(7.17661 1.18964 0)
(7.0636 1.20371 0)
(6.94397 1.23298 0)
(6.81856 1.28012 0)
(6.68798 1.33988 0)
(6.55253 1.40312 0)
(6.41243 1.46176 0)
(6.26804 1.51159 0)
(6.1199 1.55238 0)
(5.96858 1.58622 0)
(5.81451 1.61572 0)
(5.65795 1.64291 0)
(5.49899 1.66901 0)
(5.33761 1.69458 0)
(5.17376 1.71981 0)
(5.00736 1.74472 0)
(4.83834 1.76929 0)
(4.66662 1.79345 0)
(4.49215 1.81716 0)
(4.31488 1.84037 0)
(4.13477 1.86305 0)
(3.95179 1.88517 0)
(3.76593 1.9067 0)
(3.5772 1.92763 0)
(3.38561 1.94799 0)
(3.19124 1.96781 0)
(2.99417 1.98715 0)
(2.79454 2.00609 0)
(2.59252 2.02474 0)
(2.38835 2.04327 0)
(2.18232 2.0618 0)
(1.97481 2.08049 0)
(1.76621 2.09943 0)
(1.55696 2.11866 0)
(1.3475 2.13804 0)
(1.13827 2.15724 0)
(0.929561 2.17563 0)
(0.721672 2.19243 0)
(0.514538 2.2063 0)
(0.30836 2.21712 0)
(0.102191 2.21805 0)
(10 -0.181974 0)
(10.0207 -0.0660207 0)
(10.0097 0.0227335 0)
(10.0048 0.0598116 0)
(10.0027 0.0708929 0)
(9.99469 0.0860258 0)
(9.98246 0.10931 0)
(9.96676 0.130224 0)
(9.94753 0.146368 0)
(9.92698 0.163474 0)
(9.91054 0.184571 0)
(9.90204 0.205913 0)
(9.89973 0.22133 0)
(9.89731 0.228493 0)
(9.88709 0.231607 0)
(9.86332 0.237587 0)
(9.82474 0.250017 0)
(9.7756 0.267394 0)
(9.72463 0.286958 0)
(9.68094 0.308993 0)
(9.64951 0.336059 0)
(9.62956 0.368046 0)
(9.61641 0.399546 0)
(9.60391 0.423667 0)
(9.58592 0.438587 0)
(9.55786 0.449575 0)
(9.5191 0.464295 0)
(9.47406 0.486351 0)
(9.42932 0.513248 0)
(9.38865 0.53974 0)
(9.35057 0.562458 0)
(9.31076 0.581574 0)
(9.26632 0.598966 0)
(9.21746 0.615656 0)
(9.1659 0.631426 0)
(9.11271 0.646814 0)
(9.05811 0.664581 0)
(9.0023 0.687776 0)
(8.94514 0.715522 0)
(8.88521 0.741829 0)
(8.82041 0.760747 0)
(8.75027 0.773634 0)
(8.67714 0.789864 0)
(8.60409 0.818296 0)
(8.5314 0.857869 0)
(8.4561 0.898199 0)
(8.37519 0.930221 0)
(8.28919 0.955229 0)
(8.20195 0.982274 0)
(8.11693 1.01707 0)
(8.0339 1.05521 0)
(7.94917 1.08727 0)
(7.85876 1.10961 0)
(7.76162 1.12866 0)
(7.66025 1.15421 0)
(7.55871 1.18938 0)
(7.45991 1.22755 0)
(7.3642 1.25884 0)
(7.26958 1.27933 0)
(7.1726 1.2947 0)
(7.06966 1.3161 0)
(6.95831 1.3526 0)
(6.83802 1.40614 0)
(6.70982 1.47139 0)
(6.57529 1.53949 0)
(6.43577 1.60257 0)
(6.29211 1.6565 0)
(6.14482 1.701 0)
(5.9943 1.73813 0)
(5.84082 1.77056 0)
(5.6846 1.80044 0)
(5.52577 1.82912 0)
(5.36435 1.85723 0)
(5.20035 1.88504 0)
(5.03372 1.91258 0)
(4.86439 1.93984 0)
(4.69232 1.96676 0)
(4.51743 1.99328 0)
(4.33969 2.01934 0)
(4.15905 2.04491 0)
(3.97549 2.06993 0)
(3.789 2.09436 0)
(3.59958 2.11819 0)
(3.40726 2.14141 0)
(3.2121 2.16401 0)
(3.01417 2.18602 0)
(2.81361 2.20747 0)
(2.61058 2.22845 0)
(2.40531 2.24901 0)
(2.19809 2.26926 0)
(1.98927 2.28928 0)
(1.77925 2.30912 0)
(1.56849 2.32879 0)
(1.35744 2.34815 0)
(1.14656 2.36692 0)
(0.936221 2.38458 0)
(0.726734 2.40049 0)
(0.518075 2.41346 0)
(0.310445 2.42362 0)
(0.102885 2.42374 0)
(10.0923 -0.0546206 0)
(10.0724 -0.0346537 0)
(10.0453 0.000933078 0)
(10.0474 0.0400678 0)
(10.0357 0.0616929 0)
(10.0017 0.0779354 0)
(9.97544 0.104059 0)
(9.97012 0.142315 0)
(9.97075 0.179042 0)
(9.95967 0.199932 0)
(9.934 0.203855 0)
(9.90266 0.201215 0)
(9.87502 0.203373 0)
(9.85517 0.216431 0)
(9.84215 0.241723 0)
(9.83085 0.277451 0)
(9.81401 0.317888 0)
(9.78694 0.353823 0)
(9.75078 0.377317 0)
(9.71059 0.387076 0)
(9.67057 0.389017 0)
(9.63167 0.391592 0)
(9.59367 0.400633 0)
(9.55804 0.417875 0)
(9.52724 0.442429 0)
(9.50112 0.471946 0)
(9.47497 0.502704 0)
(9.44245 0.53061 0)
(9.40073 0.553665 0)
(9.35297 0.573344 0)
(9.30545 0.593056 0)
(9.2624 0.615327 0)
(9.22332 0.640378 0)
(9.1843 0.666671 0)
(9.14135 0.692159 0)
(9.09278 0.715358 0)
(9.03953 0.736266 0)
(8.98412 0.756628 0)
(8.92895 0.778542 0)
(8.87427 0.802329 0)
(8.81715 0.826472 0)
(8.753 0.850324 0)
(8.67906 0.876112 0)
(8.59726 0.906788 0)
(8.51333 0.941648 0)
(8.4328 0.975634 0)
(8.3572 1.00447 0)
(8.28376 1.02988 0)
(8.20836 1.05808 0)
(8.12899 1.09273 0)
(8.04661 1.13064 0)
(7.96301 1.16531 0)
(7.87823 1.19439 0)
(7.79 1.22224 0)
(7.69552 1.25467 0)
(7.59418 1.29195 0)
(7.48863 1.32757 0)
(7.3833 1.35443 0)
(7.28153 1.37226 0)
(7.18324 1.38938 0)
(7.08476 1.41743 0)
(6.98081 1.46382 0)
(6.86737 1.52782 0)
(6.74334 1.60202 0)
(6.61009 1.67687 0)
(6.46995 1.74486 0)
(6.32494 1.80257 0)
(6.17637 1.85027 0)
(6.02491 1.89032 0)
(5.87085 1.92549 0)
(5.71428 1.95802 0)
(5.55523 1.9893 0)
(5.39364 2.02002 0)
(5.22946 2.05046 0)
(5.06261 2.0807 0)
(4.89302 2.1107 0)
(4.72063 2.14043 0)
(4.54538 2.16981 0)
(4.36722 2.19878 0)
(4.18611 2.22727 0)
(4.00203 2.25524 0)
(3.81497 2.28264 0)
(3.62495 2.3094 0)
(3.43199 2.33551 0)
(3.23614 2.36094 0)
(3.03748 2.38567 0)
(2.83615 2.4097 0)
(2.6323 2.43306 0)
(2.42613 2.45576 0)
(2.21792 2.47784 0)
(2.00799 2.49932 0)
(1.79671 2.5202 0)
(1.58451 2.54045 0)
(1.37184 2.55994 0)
(1.15915 2.57842 0)
(0.946805 2.59546 0)
(0.735145 2.61055 0)
(0.524184 2.62266 0)
(0.314151 2.63219 0)
(0.104132 2.63152 0)
(10.1107 0.187105 0)
(10.1123 0.0907029 0)
(10.0352 0.0678281 0)
(9.99033 0.101819 0)
(9.98394 0.134447 0)
(9.97576 0.142889 0)
(9.95303 0.130512 0)
(9.93413 0.125064 0)
(9.93117 0.148186 0)
(9.93684 0.192849 0)
(9.93641 0.236469 0)
(9.92269 0.263074 0)
(9.89918 0.269875 0)
(9.87233 0.263778 0)
(9.84587 0.258213 0)
(9.82249 0.266916 0)
(9.80473 0.29385 0)
(9.79145 0.329743 0)
(9.77606 0.361992 0)
(9.7506 0.387577 0)
(9.71229 0.413231 0)
(9.6657 0.443391 0)
(9.61852 0.472144 0)
(9.57596 0.489749 0)
(9.53905 0.495722 0)
(9.50663 0.502255 0)
(9.47704 0.523168 0)
(9.44785 0.56032 0)
(9.41591 0.601971 0)
(9.37938 0.634003 0)
(9.33956 0.651989 0)
(9.29969 0.662854 0)
(9.26155 0.676603 0)
(9.2235 0.697635 0)
(9.18187 0.723422 0)
(9.13377 0.749568 0)
(9.07828 0.774613 0)
(9.01582 0.800086 0)
(8.94755 0.827265 0)
(8.8758 0.855315 0)
(8.80405 0.883095 0)
(8.73513 0.911946 0)
(8.66916 0.945042 0)
(8.6036 0.983012 0)
(8.5358 1.0212 0)
(8.46538 1.05325 0)
(8.39373 1.07826 0)
(8.32131 1.10317 0)
(8.24599 1.13632 0)
(8.16454 1.17837 0)
(8.07612 1.22098 0)
(7.98384 1.25544 0)
(7.89226 1.28215 0)
(7.80304 1.31048 0)
(7.71292 1.34884 0)
(7.61649 1.39514 0)
(7.51118 1.43771 0)
(7.4 1.46573 0)
(7.28948 1.47951 0)
(7.18472 1.49165 0)
(7.08572 1.51857 0)
(6.98733 1.56976 0)
(6.88275 1.64312 0)
(6.76732 1.72805 0)
(6.64012 1.8123 0)
(6.50304 1.88727 0)
(6.3589 1.94977 0)
(6.21006 2.00084 0)
(6.05799 2.04354 0)
(5.9034 2.08112 0)
(5.74647 2.11603 0)
(5.5872 2.14975 0)
(5.42547 2.183 0)
(5.26115 2.21608 0)
(5.09415 2.24903 0)
(4.92435 2.28183 0)
(4.75169 2.31442 0)
(4.57611 2.34672 0)
(4.39755 2.37864 0)
(4.21599 2.41013 0)
(4.03139 2.4411 0)
(3.84377 2.47149 0)
(3.65313 2.50123 0)
(3.4595 2.53027 0)
(3.26295 2.55856 0)
(3.06356 2.58605 0)
(2.86144 2.61271 0)
(2.65675 2.63851 0)
(2.44968 2.66343 0)
(2.24047 2.68744 0)
(2.02942 2.71052 0)
(1.81687 2.73261 0)
(1.6032 2.75365 0)
(1.38883 2.7735 0)
(1.17418 2.79194 0)
(0.9596 2.80859 0)
(0.745433 2.82309 0)
(0.531728 2.83452 0)
(0.318762 2.84355 0)
(0.105687 2.84215 0)