/*--------------------------------*- C++ -*----------------------------------*\
| =========                 |                                                 |
| \\      /  F ield         | OpenFOAM: The Open Source CFD Toolbox           |
|  \\    /   O peration     | Version:  4.1                                   |
|   \\  /    A nd           | Web:      www.OpenFOAM.org                      |
|    \\/     M anipulation  |                                                 |
\*---------------------------------------------------------------------------*/
FoamFile
{
    version     2.0;
    format      ascii;
    class       volVectorField;
    location    "0.151";
    object      UMean;
}
// * * * * * * * * * * * * * * * * * * * * * * * * * * * * * * * * * * * * * //

dimensions      [0 1 -1 0 0 0 0];

internalField   nonuniform List<vector> 
43750
(
(9.94838 0.00342397 0)
(9.99633 0.00571592 0)
(9.96183 0.00636379 0)
(9.95994 0.0069431 0)
(9.95145 0.00775478 0)
(9.93844 0.00876936 0)
(9.92368 0.0100345 0)
(9.90725 0.011376 0)
(9.88881 0.0125239 0)
(9.86831 0.0134751 0)
(9.84582 0.0144688 0)
(9.82126 0.0156905 0)
(9.79454 0.0170836 0)
(9.76559 0.0183975 0)
(9.73449 0.0194011 0)
(9.70142 0.0200976 0)
(9.66651 0.0207568 0)
(9.62975 0.0217335 0)
(9.59094 0.0231976 0)
(9.54988 0.0249943 0)
(9.50647 0.0267484 0)
(9.46088 0.0281306 0)
(9.41339 0.0290636 0)
(9.36425 0.0297471 0)
(9.31355 0.0305137 0)
(9.26118 0.031628 0)
(9.20688 0.0331346 0)
(9.15033 0.0348373 0)
(9.09131 0.0364221 0)
(9.02978 0.0376536 0)
(8.96588 0.0385425 0)
(8.89982 0.0393493 0)
(8.83173 0.0403875 0)
(8.76154 0.0417816 0)
(8.68909 0.0433793 0)
(8.61429 0.0449009 0)
(8.53714 0.0461721 0)
(8.45777 0.047232 0)
(8.37622 0.0482437 0)
(8.29252 0.0493303 0)
(8.20664 0.0505207 0)
(8.11851 0.0518269 0)
(8.0281 0.0533157 0)
(7.93526 0.0550576 0)
(7.83982 0.0570126 0)
(7.74168 0.0589999 0)
(7.64086 0.0608219 0)
(7.53738 0.0624192 0)
(7.43122 0.0638737 0)
(7.32226 0.0652681 0)
(7.21043 0.0665665 0)
(7.09581 0.0676647 0)
(6.97863 0.0685526 0)
(6.85905 0.0693893 0)
(6.73703 0.0703616 0)
(6.61236 0.0714358 0)
(6.48497 0.0722871 0)
(6.35514 0.0725067 0)
(6.22355 0.0719483 0)
(6.09097 0.0708815 0)
(5.95793 0.0698254 0)
(5.82447 0.0692295 0)
(5.69026 0.0692746 0)
(5.55483 0.0698813 0)
(5.41768 0.070848 0)
(5.27849 0.0719813 0)
(5.13701 0.0731511 0)
(4.99316 0.0742886 0)
(4.84692 0.075365 0)
(4.69831 0.0763691 0)
(4.54739 0.077293 0)
(4.39423 0.078126 0)
(4.23893 0.0788551 0)
(4.0816 0.0794629 0)
(3.92236 0.079934 0)
(3.76138 0.0802498 0)
(3.59883 0.0803911 0)
(3.43494 0.0803387 0)
(3.26994 0.0800738 0)
(3.10411 0.0795787 0)
(2.93773 0.0788383 0)
(2.77113 0.0778412 0)
(2.60468 0.0765799 0)
(2.43872 0.0750529 0)
(2.27364 0.0732658 0)
(2.10981 0.0712336 0)
(1.94761 0.0689802 0)
(1.78737 0.0665391 0)
(1.62943 0.0639528 0)
(1.47404 0.0612734 0)
(1.32141 0.0585605 0)
(1.17167 0.0558794 0)
(1.02489 0.0532974 0)
(0.881014 0.0508807 0)
(0.739936 0.048694 0)
(0.601426 0.0467911 0)
(0.465185 0.0452207 0)
(0.33079 0.0439976 0)
(0.19787 0.0430964 0)
(0.0657668 0.0427428 0)
(9.97766 0.007133 0)
(10.0298 0.00794474 0)
(9.99989 0.00925962 0)
(10.0029 0.0113833 0)
(9.99857 0.0140574 0)
(9.98933 0.0171119 0)
(9.97868 0.0203435 0)
(9.96704 0.0235258 0)
(9.95383 0.0265512 0)
(9.93872 0.0294633 0)
(9.92181 0.0323675 0)
(9.90332 0.0353244 0)
(9.88335 0.0383505 0)
(9.86184 0.0414455 0)
(9.83862 0.0445807 0)
(9.81363 0.0476843 0)
(9.78689 0.0506863 0)
(9.75857 0.0535716 0)
(9.72883 0.0563864 0)
(9.69775 0.0591802 0)
(9.66526 0.0619534 0)
(9.63115 0.064666 0)
(9.59517 0.0672784 0)
(9.55716 0.0697845 0)
(9.51718 0.0722185 0)
(9.47547 0.0746714 0)
(9.43232 0.0773005 0)
(9.38798 0.0802756 0)
(9.34243 0.0836577 0)
(9.29543 0.087308 0)
(9.24657 0.0909424 0)
(9.19556 0.0943183 0)
(9.14243 0.0973979 0)
(9.08745 0.100342 0)
(9.03098 0.103354 0)
(8.97308 0.106529 0)
(8.9135 0.109827 0)
(8.85186 0.113157 0)
(8.78785 0.11646 0)
(8.72141 0.119723 0)
(8.65263 0.12295 0)
(8.58162 0.126157 0)
(8.50852 0.129377 0)
(8.43351 0.132641 0)
(8.35676 0.135968 0)
(8.27833 0.139367 0)
(8.19814 0.142878 0)
(8.11591 0.146593 0)
(8.03136 0.150598 0)
(7.94438 0.154876 0)
(7.85491 0.15926 0)
(7.76294 0.163539 0)
(7.66835 0.167619 0)
(7.57104 0.171599 0)
(7.47097 0.175688 0)
(7.3682 0.179993 0)
(7.26277 0.18436 0)
(7.15457 0.18842 0)
(7.04336 0.191816 0)
(6.9289 0.194431 0)
(6.81108 0.196463 0)
(6.68992 0.198291 0)
(6.56558 0.200293 0)
(6.43818 0.202705 0)
(6.30789 0.205589 0)
(6.17477 0.208882 0)
(6.03886 0.212453 0)
(5.90018 0.216178 0)
(5.75873 0.219952 0)
(5.61448 0.223711 0)
(5.46742 0.227415 0)
(5.31752 0.231041 0)
(5.16474 0.234563 0)
(5.00906 0.23796 0)
(4.85046 0.241203 0)
(4.68891 0.24426 0)
(4.5244 0.247095 0)
(4.35693 0.249671 0)
(4.18651 0.251948 0)
(4.01316 0.253885 0)
(3.83691 0.255442 0)
(3.65783 0.25658 0)
(3.47598 0.257267 0)
(3.29145 0.257474 0)
(3.10435 0.257182 0)
(2.9148 0.256384 0)
(2.72293 0.255086 0)
(2.52892 0.253307 0)
(2.33294 0.251086 0)
(2.13516 0.248478 0)
(1.93579 0.245553 0)
(1.73503 0.2424 0)
(1.53309 0.239121 0)
(1.33017 0.235829 0)
(1.12648 0.232649 0)
(0.922224 0.229707 0)
(0.71756 0.22714 0)
(0.512648 0.225056 0)
(0.307604 0.223629 0)
(0.102221 0.222602 0)
(9.95451 -0.000209713 0)
(10.0085 0.00700108 0)
(9.97813 0.0129673 0)
(9.97917 0.0181871 0)
(9.97326 0.0228496 0)
(9.96298 0.0272025 0)
(9.95133 0.0316933 0)
(9.93867 0.0365433 0)
(9.9245 0.041468 0)
(9.9083 0.0460721 0)
(9.88981 0.050324 0)
(9.86906 0.0545301 0)
(9.84626 0.0589484 0)
(9.82171 0.0635363 0)
(9.79564 0.0680434 0)
(9.76806 0.0722811 0)
(9.73883 0.0763023 0)
(9.70775 0.080338 0)
(9.67471 0.084608 0)
(9.63976 0.0891816 0)
(9.603 0.0939768 0)
(9.56446 0.0988478 0)
(9.52411 0.103672 0)
(9.4819 0.108372 0)
(9.43775 0.112911 0)
(9.39165 0.117272 0)
(9.34365 0.121485 0)
(9.29388 0.12565 0)
(9.24254 0.129931 0)
(9.1898 0.134493 0)
(9.13567 0.139387 0)
(9.07995 0.144474 0)
(9.02241 0.149484 0)
(8.96297 0.154227 0)
(8.90171 0.158762 0)
(8.83884 0.163385 0)
(8.77445 0.168397 0)
(8.70851 0.17388 0)
(8.64085 0.179677 0)
(8.57127 0.185531 0)
(8.49961 0.191281 0)
(8.42581 0.196899 0)
(8.34984 0.20241 0)
(8.2717 0.20783 0)
(8.19144 0.213192 0)
(8.1091 0.218608 0)
(8.02479 0.224236 0)
(7.93865 0.230171 0)
(7.85085 0.236357 0)
(7.76155 0.242632 0)
(7.67075 0.248855 0)
(7.57822 0.255005 0)
(7.48366 0.261169 0)
(7.38681 0.267435 0)
(7.28764 0.273797 0)
(7.18634 0.280147 0)
(7.08315 0.286338 0)
(6.97811 0.29225 0)
(6.87098 0.297866 0)
(6.76133 0.303301 0)
(6.64869 0.308765 0)
(6.53282 0.314466 0)
(6.41364 0.3205 0)
(6.29129 0.326837 0)
(6.16597 0.333363 0)
(6.03792 0.339956 0)
(5.90733 0.346537 0)
(5.77433 0.35307 0)
(5.63897 0.35956 0)
(5.5013 0.366016 0)
(5.36128 0.372445 0)
(5.21889 0.378846 0)
(5.0741 0.385205 0)
(4.92687 0.391503 0)
(4.77715 0.397712 0)
(4.62488 0.403802 0)
(4.47003 0.409735 0)
(4.31255 0.415473 0)
(4.15235 0.420973 0)
(3.98939 0.426193 0)
(3.82361 0.431085 0)
(3.65493 0.435607 0)
(3.48328 0.439716 0)
(3.3086 0.443376 0)
(3.13082 0.446558 0)
(2.94987 0.449239 0)
(2.76572 0.451409 0)
(2.57833 0.453068 0)
(2.38769 0.454232 0)
(2.1938 0.454928 0)
(1.99671 0.455194 0)
(1.79651 0.45508 0)
(1.5933 0.454646 0)
(1.38729 0.453964 0)
(1.17867 0.45311 0)
(0.967736 0.452173 0)
(0.754813 0.451251 0)
(0.540259 0.45042 0)
(0.324577 0.449939 0)
(0.107919 0.448995 0)
(9.96305 0.00394754 0)
(10.0098 0.0112824 0)
(9.97641 0.0184228 0)
(9.97739 0.0245489 0)
(9.97202 0.030495 0)
(9.96186 0.0368281 0)
(9.94999 0.0434306 0)
(9.937 0.0500817 0)
(9.9225 0.0568378 0)
(9.90613 0.0638708 0)
(9.88766 0.0711286 0)
(9.8671 0.0783137 0)
(9.84461 0.0851396 0)
(9.82034 0.0915508 0)
(9.79426 0.0977383 0)
(9.76624 0.103976 0)
(9.73614 0.110429 0)
(9.70403 0.117058 0)
(9.67011 0.123695 0)
(9.63463 0.1302 0)
(9.59767 0.136566 0)
(9.55911 0.142868 0)
(9.51875 0.149169 0)
(9.47645 0.155465 0)
(9.43219 0.161735 0)
(9.38603 0.167975 0)
(9.33802 0.174207 0)
(9.28813 0.180462 0)
(9.23633 0.186785 0)
(9.18265 0.19324 0)
(9.12713 0.199875 0)
(9.0698 0.206659 0)
(9.01061 0.213466 0)
(8.94943 0.22014 0)
(8.88614 0.226609 0)
(8.82072 0.232948 0)
(8.75331 0.23934 0)
(8.68406 0.245979 0)
(8.61306 0.252956 0)
(8.54035 0.260233 0)
(8.46591 0.267693 0)
(8.38967 0.275227 0)
(8.31153 0.282783 0)
(8.23137 0.290345 0)
(8.14908 0.297891 0)
(8.06464 0.305374 0)
(7.97817 0.31274 0)
(7.88983 0.319994 0)
(7.79976 0.327232 0)
(7.70798 0.334622 0)
(7.6144 0.342342 0)
(7.51885 0.35048 0)
(7.42119 0.358984 0)
(7.32133 0.367671 0)
(7.21921 0.376316 0)
(7.11487 0.384759 0)
(7.00834 0.392975 0)
(6.8996 0.401051 0)
(6.78853 0.409117 0)
(6.67491 0.417288 0)
(6.55857 0.425633 0)
(6.43942 0.434162 0)
(6.3175 0.442835 0)
(6.19292 0.451585 0)
(6.06585 0.460339 0)
(5.93641 0.46905 0)
(5.80469 0.4777 0)
(5.67073 0.486296 0)
(5.53456 0.494856 0)
(5.39619 0.503397 0)
(5.25561 0.511925 0)
(5.11282 0.520435 0)
(4.96781 0.528918 0)
(4.82058 0.537354 0)
(4.67111 0.545723 0)
(4.51939 0.553998 0)
(4.36542 0.562152 0)
(4.20914 0.570151 0)
(4.05056 0.577965 0)
(3.88963 0.585558 0)
(3.7263 0.592895 0)
(3.56054 0.599942 0)
(3.39227 0.606664 0)
(3.22143 0.613033 0)
(3.04794 0.619019 0)
(2.87172 0.624601 0)
(2.69269 0.629762 0)
(2.51076 0.634491 0)
(2.32586 0.638781 0)
(2.13792 0.642633 0)
(1.9469 0.646052 0)
(1.75279 0.649042 0)
(1.55562 0.651615 0)
(1.35548 0.653782 0)
(1.1525 0.655561 0)
(0.946925 0.656973 0)
(0.739058 0.658049 0)
(0.529242 0.658786 0)
(0.318074 0.659404 0)
(0.105781 0.658634 0)
(9.95575 0.00975476 0)
(10.0102 0.0154264 0)
(9.97992 0.0240595 0)
(9.98067 0.0326628 0)
(9.97415 0.0405104 0)
(9.96317 0.048055 0)
(9.95079 0.0559198 0)
(9.93721 0.0642635 0)
(9.92198 0.072852 0)
(9.90495 0.0813861 0)
(9.8861 0.089742 0)
(9.8654 0.0979655 0)
(9.84277 0.106156 0)
(9.81819 0.114391 0)
(9.7917 0.122687 0)
(9.76343 0.130972 0)
(9.73354 0.139113 0)
(9.70207 0.147002 0)
(9.66896 0.154671 0)
(9.63408 0.162313 0)
(9.59732 0.170189 0)
(9.55874 0.178443 0)
(9.51845 0.186992 0)
(9.47651 0.195592 0)
(9.43288 0.204014 0)
(9.3874 0.212184 0)
(9.33992 0.220188 0)
(9.29036 0.228171 0)
(9.23875 0.236261 0)
(9.18522 0.244544 0)
(9.1299 0.253066 0)
(9.07284 0.261809 0)
(9.01403 0.270666 0)
(8.95332 0.279501 0)
(8.89061 0.28824 0)
(8.82581 0.296946 0)
(8.75893 0.305767 0)
(8.69001 0.314802 0)
(8.61916 0.324018 0)
(8.54651 0.333299 0)
(8.47217 0.342576 0)
(8.39617 0.351888 0)
(8.31839 0.361325 0)
(8.23864 0.370905 0)
(8.15669 0.380547 0)
(8.07235 0.39014 0)
(7.98558 0.399653 0)
(7.89643 0.409151 0)
(7.80497 0.41873 0)
(7.71134 0.428458 0)
(7.61566 0.43838 0)
(7.518 0.448539 0)
(7.41839 0.458967 0)
(7.31674 0.469626 0)
(7.2129 0.480385 0)
(7.10672 0.491085 0)
(6.99809 0.501636 0)
(6.88698 0.512084 0)
(6.7734 0.522574 0)
(6.65733 0.533259 0)
(6.53874 0.54422 0)
(6.41759 0.555432 0)
(6.29387 0.566788 0)
(6.16763 0.578156 0)
(6.03894 0.589434 0)
(5.9079 0.600575 0)
(5.77457 0.611582 0)
(5.63897 0.622488 0)
(5.50113 0.633329 0)
(5.36103 0.644135 0)
(5.21869 0.654921 0)
(5.07407 0.665685 0)
(4.9272 0.676419 0)
(4.77807 0.687104 0)
(4.62668 0.697721 0)
(4.47304 0.708245 0)
(4.31715 0.71865 0)
(4.15904 0.728906 0)
(3.9987 0.738986 0)
(3.83614 0.748861 0)
(3.67135 0.758503 0)
(3.50434 0.767886 0)
(3.3351 0.776984 0)
(3.1636 0.785777 0)
(2.98984 0.794247 0)
(2.81378 0.80238 0)
(2.63538 0.810164 0)
(2.45461 0.817591 0)
(2.27141 0.824652 0)
(2.08576 0.831341 0)
(1.89762 0.837643 0)
(1.70697 0.843537 0)
(1.5138 0.848993 0)
(1.31817 0.853968 0)
(1.12017 0.858407 0)
(0.919954 0.862247 0)
(0.717764 0.865431 0)
(0.513868 0.867853 0)
(0.308791 0.869684 0)
(0.102684 0.869182 0)
(9.95529 0.00101189 0)
(10.0091 0.0154713 0)
(9.97909 0.0270732 0)
(9.98096 0.0377566 0)
(9.97587 0.0480777 0)
(9.96594 0.0582911 0)
(9.95397 0.0685576 0)
(9.94035 0.0788577 0)
(9.925 0.0891729 0)
(9.9079 0.0996502 0)
(9.889 0.110404 0)
(9.86826 0.121287 0)
(9.84561 0.131975 0)
(9.82112 0.142232 0)
(9.79489 0.152066 0)
(9.76706 0.161668 0)
(9.73764 0.171286 0)
(9.70657 0.181092 0)
(9.67371 0.191122 0)
(9.63891 0.201257 0)
(9.60216 0.21131 0)
(9.56349 0.221156 0)
(9.523 0.230818 0)
(9.48073 0.24045 0)
(9.43668 0.250236 0)
(9.39083 0.260279 0)
(9.34319 0.270541 0)
(9.29373 0.280878 0)
(9.24239 0.291153 0)
(9.18909 0.301327 0)
(9.13379 0.311489 0)
(9.0766 0.32177 0)
(9.01768 0.332227 0)
(8.95715 0.342799 0)
(8.89498 0.353379 0)
(8.83102 0.363917 0)
(8.76515 0.374462 0)
(8.69731 0.385091 0)
(8.62751 0.395823 0)
(8.55573 0.406616 0)
(8.48189 0.417448 0)
(8.40594 0.42841 0)
(8.32786 0.439681 0)
(8.24773 0.451395 0)
(8.1656 0.463504 0)
(8.08142 0.475785 0)
(7.99508 0.487975 0)
(7.90647 0.499924 0)
(7.81559 0.511653 0)
(7.72249 0.523314 0)
(7.62723 0.535104 0)
(7.52977 0.547206 0)
(7.43003 0.559729 0)
(7.32793 0.572665 0)
(7.22339 0.585874 0)
(7.1164 0.599152 0)
(7.00694 0.612336 0)
(6.89503 0.625399 0)
(6.78065 0.638449 0)
(6.66378 0.651652 0)
(6.54439 0.665111 0)
(6.42248 0.678808 0)
(6.29805 0.692623 0)
(6.17114 0.706399 0)
(6.0418 0.720021 0)
(5.91009 0.733453 0)
(5.77603 0.746719 0)
(5.63965 0.759879 0)
(5.50094 0.772987 0)
(5.3599 0.786077 0)
(5.21652 0.799163 0)
(5.07078 0.81224 0)
(4.92268 0.825292 0)
(4.77221 0.838295 0)
(4.61939 0.851224 0)
(4.4642 0.86405 0)
(4.30667 0.876743 0)
(4.14681 0.889273 0)
(3.98464 0.901608 0)
(3.82019 0.91372 0)
(3.65348 0.925579 0)
(3.48453 0.937162 0)
(3.31339 0.948445 0)
(3.14006 0.959412 0)
(2.96459 0.970047 0)
(2.78701 0.980341 0)
(2.60732 0.990287 0)
(2.42558 0.99988 0)
(2.24179 1.00911 0)
(2.05598 1.01798 0)
(1.86817 1.02646 0)
(1.6784 1.03451 0)
(1.4867 1.04209 0)
(1.29312 1.04913 0)
(1.09777 1.05552 0)
(0.900735 1.06115 0)
(0.70224 1.0659 0)
(0.502461 1.06958 0)
(0.30182 1.07233 0)
(0.100345 1.07195 0)
(9.97067 0.00722711 0)
(10.0166 0.0205065 0)
(9.98326 0.0326952 0)
(9.98431 0.0443867 0)
(9.97858 0.0561776 0)
(9.96794 0.0685067 0)
(9.95567 0.0812013 0)
(9.9422 0.0937549 0)
(9.92701 0.105894 0)
(9.90981 0.117752 0)
(9.89074 0.129594 0)
(9.87008 0.141527 0)
(9.84799 0.153483 0)
(9.82433 0.165345 0)
(9.79886 0.177041 0)
(9.77132 0.188571 0)
(9.74169 0.19998 0)
(9.7101 0.211342 0)
(9.67675 0.222745 0)
(9.64174 0.234288 0)
(9.60502 0.246046 0)
(9.56649 0.258038 0)
(9.526 0.270195 0)
(9.4835 0.282368 0)
(9.43902 0.294394 0)
(9.39267 0.306197 0)
(9.34461 0.317855 0)
(9.29493 0.329567 0)
(9.24361 0.341522 0)
(9.1905 0.353764 0)
(9.13543 0.366164 0)
(9.07836 0.378521 0)
(9.01941 0.390717 0)
(8.95873 0.402801 0)
(8.89641 0.414947 0)
(8.83238 0.427323 0)
(8.7665 0.439994 0)
(8.69867 0.452926 0)
(8.62882 0.466058 0)
(8.55697 0.479353 0)
(8.48305 0.492799 0)
(8.40698 0.506366 0)
(8.32868 0.520001 0)
(8.24821 0.533665 0)
(8.16573 0.547374 0)
(8.08135 0.561182 0)
(7.99511 0.575109 0)
(7.90689 0.589118 0)
(7.81657 0.603152 0)
(7.72409 0.617223 0)
(7.62944 0.631461 0)
(7.53259 0.646046 0)
(7.43342 0.661084 0)
(7.3318 0.676515 0)
(7.22769 0.692131 0)
(7.12115 0.707709 0)
(7.0123 0.723138 0)
(6.90121 0.738478 0)
(6.78785 0.753898 0)
(6.67209 0.769568 0)
(6.55374 0.785558 0)
(6.43271 0.8018 0)
(6.30897 0.818135 0)
(6.18257 0.834392 0)
(6.05356 0.850461 0)
(5.92202 0.866309 0)
(5.78801 0.881973 0)
(5.65157 0.897521 0)
(5.5127 0.913015 0)
(5.37139 0.928498 0)
(5.22766 0.943983 0)
(5.08148 0.959468 0)
(4.93285 0.974933 0)
(4.78176 0.990352 0)
(4.6282 1.00569 0)
(4.47219 1.02092 0)
(4.31372 1.03601 0)
(4.15281 1.05091 0)
(3.98949 1.06559 0)
(3.82376 1.08002 0)
(3.65566 1.09417 0)
(3.48525 1.108 0)
(3.31254 1.12149 0)
(3.13761 1.13461 0)
(2.9605 1.14735 0)
(2.78127 1.1597 0)
(2.60002 1.17165 0)
(2.4168 1.1832 0)
(2.23169 1.19433 0)
(2.04477 1.20503 0)
(1.85614 1.21528 0)
(1.66589 1.22506 0)
(1.4741 1.23428 0)
(1.28088 1.24287 0)
(1.08633 1.25072 0)
(0.890591 1.25766 0)
(0.693815 1.26355 0)
(0.496141 1.26812 0)
(0.297903 1.27154 0)
(0.0990231 1.27117 0)
(9.9932 0.0110897 0)
(10.0446 0.0238387 0)
(10.0127 0.0386292 0)
(10.0132 0.052608 0)
(10.0068 0.0657882 0)
(9.99558 0.0791478 0)
(9.9828 0.0930682 0)
(9.96875 0.107322 0)
(9.95299 0.121609 0)
(9.93543 0.1358 0)
(9.91618 0.14986 0)
(9.89528 0.163752 0)
(9.87266 0.177492 0)
(9.84822 0.191176 0)
(9.8219 0.204891 0)
(9.79372 0.218614 0)
(9.76358 0.232247 0)
(9.73142 0.24575 0)
(9.69722 0.259197 0)
(9.66108 0.272693 0)
(9.62324 0.286271 0)
(9.58389 0.29989 0)
(9.54313 0.313506 0)
(9.50091 0.327119 0)
(9.45709 0.340735 0)
(9.41146 0.354337 0)
(9.36387 0.367906 0)
(9.31427 0.381484 0)
(9.26276 0.395184 0)
(9.20949 0.409104 0)
(9.15454 0.423225 0)
(9.09789 0.437405 0)
(9.03943 0.451495 0)
(8.97907 0.465462 0)
(8.91673 0.479425 0)
(8.85239 0.493555 0)
(8.78601 0.507945 0)
(8.7176 0.522567 0)
(8.64721 0.537333 0)
(8.57497 0.552209 0)
(8.50098 0.567261 0)
(8.42526 0.582592 0)
(8.34768 0.59824 0)
(8.26803 0.614132 0)
(8.18618 0.630149 0)
(8.1021 0.646206 0)
(8.01581 0.662274 0)
(7.92737 0.678334 0)
(7.83675 0.69436 0)
(7.74388 0.710389 0)
(7.64874 0.726597 0)
(7.55132 0.743256 0)
(7.45163 0.760561 0)
(7.34962 0.778449 0)
(7.24527 0.796599 0)
(7.13855 0.814637 0)
(7.02954 0.832386 0)
(6.9183 0.849972 0)
(6.80482 0.867709 0)
(6.68898 0.885888 0)
(6.57062 0.904589 0)
(6.44959 0.923663 0)
(6.32584 0.942839 0)
(6.19938 0.961859 0)
(6.07032 0.980583 0)
(5.93872 0.998993 0)
(5.80467 1.01716 0)
(5.66819 1.03517 0)
(5.52927 1.05313 0)
(5.38792 1.07107 0)
(5.24409 1.08902 0)
(5.09779 1.10699 0)
(4.94898 1.12495 0)
(4.79764 1.14286 0)
(4.64378 1.1607 0)
(4.48738 1.17844 0)
(4.32844 1.19602 0)
(4.16697 1.2134 0)
(4.00298 1.23054 0)
(3.83649 1.24741 0)
(3.66754 1.26395 0)
(3.49616 1.28014 0)
(3.3224 1.29593 0)
(3.1463 1.3113 0)
(2.96796 1.32621 0)
(2.78744 1.34066 0)
(2.60485 1.35462 0)
(2.42026 1.36806 0)
(2.23382 1.381 0)
(2.04563 1.39339 0)
(1.85582 1.40523 0)
(1.66454 1.41647 0)
(1.47194 1.42704 0)
(1.27814 1.43686 0)
(1.08331 1.44579 0)
(0.887559 1.45368 0)
(0.691079 1.46036 0)
(0.493969 1.46554 0)
(0.296508 1.46942 0)
(0.0985462 1.46894 0)
(9.97783 0.00981257 0)
(10.0314 0.0261338 0)
(10.0006 0.0429405 0)
(10.0017 0.0592585 0)
(9.99556 0.0750613 0)
(9.98455 0.0910341 0)
(9.97185 0.107439 0)
(9.95795 0.123855 0)
(9.94254 0.139751 0)
(9.92553 0.155029 0)
(9.90695 0.170041 0)
(9.8868 0.185205 0)
(9.8649 0.200651 0)
(9.8411 0.216215 0)
(9.81538 0.231695 0)
(9.7878 0.247071 0)
(9.75842 0.262454 0)
(9.7272 0.277883 0)
(9.69414 0.293249 0)
(9.65931 0.308421 0)
(9.62284 0.323389 0)
(9.58475 0.338299 0)
(9.54497 0.353326 0)
(9.5034 0.368564 0)
(9.45997 0.384008 0)
(9.41467 0.399591 0)
(9.36752 0.415227 0)
(9.31852 0.430859 0)
(9.26773 0.446485 0)
(9.21527 0.462155 0)
(9.16122 0.477914 0)
(9.10557 0.493751 0)
(9.04819 0.509626 0)
(8.9889 0.52555 0)
(8.92763 0.54163 0)
(8.86437 0.558004 0)
(8.79921 0.574708 0)
(8.73215 0.591631 0)
(8.66317 0.608589 0)
(8.59221 0.625489 0)
(8.51919 0.642424 0)
(8.44409 0.6596 0)
(8.36686 0.677165 0)
(8.2875 0.695097 0)
(8.20601 0.713245 0)
(8.12237 0.731467 0)
(8.03658 0.749725 0)
(7.94857 0.768053 0)
(7.85825 0.786483 0)
(7.7655 0.805041 0)
(7.67027 0.8238 0)
(7.57256 0.842917 0)
(7.4725 0.862533 0)
(7.37024 0.882627 0)
(7.26586 0.902955 0)
(7.15935 0.923193 0)
(7.05063 0.943168 0)
(6.93956 0.963006 0)
(6.82603 0.983049 0)
(6.70993 1.00362 0)
(6.59118 1.02482 0)
(6.46976 1.04649 0)
(6.34567 1.06827 0)
(6.21898 1.08986 0)
(6.08975 1.11108 0)
(5.95806 1.13193 0)
(5.82398 1.1525 0)
(5.68749 1.17291 0)
(5.5486 1.19328 0)
(5.40728 1.21368 0)
(5.26348 1.23412 0)
(5.11717 1.25459 0)
(4.96831 1.27508 0)
(4.8169 1.29555 0)
(4.6629 1.31595 0)
(4.5063 1.33626 0)
(4.34709 1.35641 0)
(4.1853 1.37636 0)
(4.0209 1.39605 0)
(3.85393 1.41544 0)
(3.68441 1.43448 0)
(3.51238 1.45312 0)
(3.33787 1.47131 0)
(3.16095 1.48902 0)
(2.98169 1.50619 0)
(2.80017 1.52281 0)
(2.61649 1.53882 0)
(2.43077 1.55422 0)
(2.24314 1.56896 0)
(2.05373 1.58303 0)
(1.86271 1.59639 0)
(1.67025 1.60899 0)
(1.47651 1.62077 0)
(1.28168 1.63163 0)
(1.08593 1.64146 0)
(0.889414 1.65008 0)
(0.692313 1.65733 0)
(0.494729 1.66294 0)
(0.296911 1.66715 0)
(0.0986738 1.6665 0)
(9.96814 0.00947959 0)
(10.0205 0.0290917 0)
(9.99001 0.0478084 0)
(9.99162 0.0657934 0)
(9.98614 0.0834793 0)
(9.97582 0.101168 0)
(9.96397 0.118907 0)
(9.95114 0.13654 0)
(9.93691 0.153937 0)
(9.9208 0.171134 0)
(9.90257 0.188298 0)
(9.8823 0.205589 0)
(9.86025 0.223041 0)
(9.83658 0.240566 0)
(9.81128 0.258042 0)
(9.78419 0.275411 0)
(9.75521 0.292682 0)
(9.72438 0.309869 0)
(9.69176 0.326936 0)
(9.65737 0.34386 0)
(9.6212 0.360707 0)
(9.5832 0.377628 0)
(9.54342 0.39473 0)
(9.50192 0.411997 0)
(9.45878 0.429337 0)
(9.41398 0.446665 0)
(9.36747 0.463945 0)
(9.31917 0.481169 0)
(9.26908 0.498349 0)
(9.21719 0.515548 0)
(9.16357 0.53288 0)
(9.1082 0.550431 0)
(9.051 0.568198 0)
(8.99191 0.586096 0)
(8.93087 0.604061 0)
(8.86795 0.622115 0)
(8.80325 0.640335 0)
(8.73682 0.658775 0)
(8.66863 0.677437 0)
(8.59854 0.696327 0)
(8.52637 0.7155 0)
(8.452 0.735024 0)
(8.37544 0.754905 0)
(8.29676 0.775051 0)
(8.21605 0.795337 0)
(8.13333 0.815696 0)
(8.04848 0.83615 0)
(7.96133 0.856753 0)
(7.87171 0.877531 0)
(7.7796 0.898488 0)
(7.68507 0.919665 0)
(7.58823 0.941152 0)
(7.48918 0.963027 0)
(7.38794 0.985249 0)
(7.28445 1.00765 0)
(7.17863 1.03002 0)
(7.07036 1.0523 0)
(6.95953 1.07467 0)
(6.84608 1.09742 0)
(6.72997 1.12079 0)
(6.61122 1.14478 0)
(6.48985 1.16918 0)
(6.36592 1.19362 0)
(6.23944 1.21778 0)
(6.11047 1.24149 0)
(5.97905 1.26477 0)
(5.8452 1.28774 0)
(5.70893 1.31055 0)
(5.57021 1.33336 0)
(5.42902 1.35621 0)
(5.28531 1.37916 0)
(5.13906 1.40217 0)
(4.99023 1.42524 0)
(4.83878 1.4483 0)
(4.68471 1.47133 0)
(4.52798 1.49426 0)
(4.36859 1.51704 0)
(4.20654 1.53962 0)
(4.04184 1.56193 0)
(3.87449 1.58392 0)
(3.70452 1.60553 0)
(3.53196 1.6267 0)
(3.35684 1.64738 0)
(3.17924 1.6675 0)
(2.99922 1.68701 0)
(2.81685 1.70588 0)
(2.63225 1.72403 0)
(2.44552 1.74144 0)
(2.25681 1.75807 0)
(2.06626 1.77385 0)
(1.87403 1.78875 0)
(1.68033 1.80271 0)
(1.48532 1.81567 0)
(1.28922 1.82752 0)
(1.0922 1.83816 0)
(0.894451 1.84742 0)
(0.696159 1.85517 0)
(0.497431 1.86112 0)
(0.298513 1.86557 0)
(0.0992055 1.86472 0)
(9.96539 0.00869773 0)
(10.0176 0.0304672 0)
(9.98646 0.0515521 0)
(9.98806 0.0718484 0)
(9.98269 0.0917237 0)
(9.97243 0.111635 0)
(9.96054 0.131605 0)
(9.94751 0.151351 0)
(9.93288 0.170723 0)
(9.91627 0.189813 0)
(9.89768 0.208755 0)
(9.87734 0.227611 0)
(9.85547 0.246423 0)
(9.83213 0.265267 0)
(9.80728 0.284214 0)
(9.78077 0.303277 0)
(9.75248 0.322396 0)
(9.72238 0.341461 0)
(9.69042 0.360374 0)
(9.65655 0.379101 0)
(9.62071 0.397678 0)
(9.58295 0.416183 0)
(9.54343 0.434694 0)
(9.50235 0.453284 0)
(9.45978 0.472024 0)
(9.41568 0.490963 0)
(9.36992 0.510078 0)
(9.32237 0.529281 0)
(9.273 0.548477 0)
(9.22177 0.567646 0)
(9.16873 0.586864 0)
(9.1139 0.606234 0)
(9.05734 0.625803 0)
(8.99902 0.645547 0)
(8.93887 0.665429 0)
(8.87678 0.685453 0)
(8.81263 0.705661 0)
(8.74641 0.726083 0)
(8.67811 0.746732 0)
(8.60778 0.767639 0)
(8.53543 0.788873 0)
(8.46109 0.810475 0)
(8.38469 0.83239 0)
(8.30619 0.854486 0)
(8.2256 0.876677 0)
(8.14294 0.89903 0)
(8.05824 0.921705 0)
(7.97146 0.94478 0)
(7.88247 0.968147 0)
(7.7912 0.991607 0)
(7.69764 1.01509 0)
(7.60187 1.03872 0)
(7.50395 1.06274 0)
(7.40385 1.08727 0)
(7.30143 1.11219 0)
(7.19653 1.13722 0)
(7.08898 1.16221 0)
(6.97871 1.18725 0)
(6.86569 1.21259 0)
(6.74997 1.23846 0)
(6.63162 1.26492 0)
(6.5107 1.29177 0)
(6.38726 1.31867 0)
(6.26131 1.34529 0)
(6.13286 1.37146 0)
(6.00192 1.39721 0)
(5.86849 1.42263 0)
(5.73257 1.44792 0)
(5.59413 1.47321 0)
(5.45315 1.49858 0)
(5.3096 1.52408 0)
(5.16346 1.54969 0)
(5.01468 1.57537 0)
(4.86323 1.60109 0)
(4.7091 1.62679 0)
(4.55227 1.6524 0)
(4.39272 1.67787 0)
(4.23044 1.70314 0)
(4.06544 1.72813 0)
(3.89772 1.75279 0)
(3.72732 1.77704 0)
(3.55426 1.80082 0)
(3.37857 1.82405 0)
(3.20032 1.84667 0)
(3.01956 1.86861 0)
(2.83638 1.8898 0)
(2.65089 1.91018 0)
(2.46319 1.92968 0)
(2.27341 1.94825 0)
(2.08172 1.96582 0)
(1.88828 1.98234 0)
(1.69327 1.99773 0)
(1.49689 2.01191 0)
(1.29934 2.02478 0)
(1.10083 2.03625 0)
(0.901558 2.04615 0)
(0.701707 2.05438 0)
(0.501404 2.06066 0)
(0.3009 2.06536 0)
(0.100002 2.06429 0)
(9.96588 0.0112599 0)
(10.0167 0.0347067 0)
(9.98621 0.0566168 0)
(9.98777 0.0781778 0)
(9.98188 0.0998587 0)
(9.97124 0.121516 0)
(9.95922 0.142963 0)
(9.94618 0.164179 0)
(9.93175 0.185248 0)
(9.91569 0.206198 0)
(9.89785 0.227003 0)
(9.87816 0.247637 0)
(9.85655 0.268156 0)
(9.83299 0.288679 0)
(9.80753 0.309316 0)
(9.7803 0.330086 0)
(9.75149 0.35093 0)
(9.72126 0.371784 0)
(9.6897 0.392623 0)
(9.65674 0.41344 0)
(9.6222 0.43419 0)
(9.58587 0.454799 0)
(9.54759 0.475231 0)
(9.50729 0.49556 0)
(9.46498 0.515935 0)
(9.42074 0.53648 0)
(9.37473 0.557211 0)
(9.32703 0.578054 0)
(9.27766 0.598929 0)
(9.22654 0.61982 0)
(9.17357 0.640776 0)
(9.1187 0.661871 0)
(9.06195 0.683156 0)
(9.00336 0.704662 0)
(8.94296 0.72642 0)
(8.88072 0.748464 0)
(8.81663 0.7708 0)
(8.75064 0.79338 0)
(8.68272 0.816126 0)
(8.61283 0.839021 0)
(8.54099 0.862168 0)
(8.46722 0.885719 0)
(8.39155 0.909727 0)
(8.31392 0.934064 0)
(8.23425 0.958516 0)
(8.15246 0.982993 0)
(8.06858 1.0076 0)
(7.98264 1.03252 0)
(7.89464 1.05781 0)
(7.80448 1.08336 0)
(7.71205 1.10905 0)
(7.61726 1.13491 0)
(7.52012 1.16112 0)
(7.4207 1.18783 0)
(7.31902 1.21501 0)
(7.21503 1.24251 0)
(7.10861 1.27018 0)
(6.99956 1.29802 0)
(6.88771 1.32622 0)
(6.77297 1.35492 0)
(6.65537 1.38413 0)
(6.53496 1.41362 0)
(6.41188 1.44308 0)
(6.28624 1.47223 0)
(6.1581 1.50092 0)
(6.02747 1.52917 0)
(5.89436 1.55712 0)
(5.75873 1.58494 0)
(5.62056 1.61279 0)
(5.47981 1.64075 0)
(5.33645 1.66886 0)
(5.19043 1.69712 0)
(5.04173 1.72548 0)
(4.89031 1.7539 0)
(4.73615 1.78231 0)
(4.57922 1.81067 0)
(4.4195 1.83889 0)
(4.25699 1.86691 0)
(4.09169 1.89467 0)
(3.92361 1.92206 0)
(3.75276 1.94903 0)
(3.57917 1.97548 0)
(3.40288 2.00135 0)
(3.22394 2.02655 0)
(3.04242 2.05098 0)
(2.8584 2.07458 0)
(2.67197 2.09726 0)
(2.48324 2.11895 0)
(2.29236 2.13956 0)
(2.09946 2.15901 0)
(1.90472 2.17723 0)
(1.70831 2.19412 0)
(1.51044 2.20961 0)
(1.31131 2.22359 0)
(1.11113 2.23595 0)
(0.910097 2.24656 0)
(0.708422 2.25532 0)
(0.506242 2.26196 0)
(0.303819 2.26693 0)
(0.100979 2.26567 0)
(9.95569 0.0111403 0)
(10.0048 0.0360537 0)
(9.97302 0.0607922 0)
(9.97442 0.0849823 0)
(9.96878 0.108898 0)
(9.95862 0.132651 0)
(9.94723 0.156122 0)
(9.93467 0.179175 0)
(9.92027 0.201791 0)
(9.90382 0.22414 0)
(9.8856 0.246479 0)
(9.86583 0.26898 0)
(9.84455 0.291654 0)
(9.82165 0.314401 0)
(9.797 0.33707 0)
(9.77048 0.359513 0)
(9.74214 0.381629 0)
(9.71206 0.403431 0)
(9.6804 0.425067 0)
(9.64723 0.446755 0)
(9.61258 0.468674 0)
(9.57639 0.490887 0)
(9.53864 0.513347 0)
(9.49927 0.535959 0)
(9.45818 0.55862 0)
(9.41527 0.581255 0)
(9.37045 0.603831 0)
(9.32375 0.626381 0)
(9.27527 0.648992 0)
(9.2251 0.671749 0)
(9.17325 0.694694 0)
(9.11963 0.717813 0)
(9.06413 0.741074 0)
(9.00666 0.764457 0)
(8.94725 0.787983 0)
(8.8859 0.811699 0)
(8.82268 0.83567 0)
(8.75757 0.85994 0)
(8.69055 0.884514 0)
(8.62152 0.909374 0)
(8.55044 0.934515 0)
(8.47733 0.959963 0)
(8.40226 0.985745 0)
(8.32533 1.01183 0)
(8.24658 1.03815 0)
(8.16591 1.06469 0)
(8.0832 1.0915 0)
(7.99829 1.11868 0)
(7.91115 1.14623 0)
(7.82176 1.17411 0)
(7.73014 1.2022 0)
(7.63622 1.23053 0)
(7.53991 1.2592 0)
(7.44116 1.28828 0)
(7.33999 1.31774 0)
(7.23647 1.34752 0)
(7.13061 1.37757 0)
(7.02236 1.40801 0)
(6.91152 1.43902 0)
(6.79789 1.47067 0)
(6.6813 1.50282 0)
(6.56172 1.53517 0)
(6.43924 1.56733 0)
(6.314 1.59904 0)
(6.18615 1.63022 0)
(6.05579 1.66094 0)
(5.92292 1.69138 0)
(5.78755 1.72173 0)
(5.64963 1.75214 0)
(5.50911 1.78271 0)
(5.36595 1.81348 0)
(5.22009 1.84442 0)
(5.07149 1.87551 0)
(4.92011 1.9067 0)
(4.76593 1.93791 0)
(4.60891 1.96907 0)
(4.44904 2.00012 0)
(4.2863 2.03097 0)
(4.12069 2.06154 0)
(3.95221 2.09176 0)
(3.78089 2.12152 0)
(3.60673 2.15073 0)
(3.4298 2.17931 0)
(3.25012 2.20717 0)
(3.06777 2.23419 0)
(2.88282 2.26029 0)
(2.69537 2.28537 0)
(2.50553 2.30932 0)
(2.31344 2.33206 0)
(2.11922 2.3535 0)
(1.92306 2.37352 0)
(1.72513 2.39203 0)
(1.52563 2.40893 0)
(1.32475 2.42411 0)
(1.12272 2.43747 0)
(0.919737 2.44888 0)
(0.716024 2.45824 0)
(0.51173 2.4653 0)
(0.307137 2.47058 0)
(0.102089 2.46915 0)
(9.96472 0.0163932 0)
(10.0153 0.0411317 0)
(9.98427 0.0668422 0)
(9.98601 0.0921233 0)
(9.98041 0.116827 0)
(9.96985 0.141336 0)
(9.95802 0.166078 0)
(9.94547 0.191123 0)
(9.93152 0.216124 0)
(9.91557 0.240716 0)
(9.8975 0.264801 0)
(9.8775 0.288557 0)
(9.8558 0.312265 0)
(9.83252 0.336178 0)
(9.80766 0.360406 0)
(9.78117 0.384852 0)
(9.75295 0.40927 0)
(9.72292 0.43346 0)
(9.69102 0.457417 0)
(9.65733 0.481262 0)
(9.62201 0.505072 0)
(9.5852 0.528812 0)
(9.54696 0.55246 0)
(9.50723 0.576137 0)
(9.46591 0.600056 0)
(9.42291 0.624333 0)
(9.37815 0.648848 0)
(9.33155 0.673361 0)
(9.28309 0.697717 0)
(9.2328 0.721998 0)
(9.18072 0.746426 0)
(9.12684 0.771191 0)
(9.07113 0.796328 0)
(9.01351 0.821752 0)
(8.95399 0.847383 0)
(8.89258 0.873215 0)
(8.82936 0.899289 0)
(8.76438 0.925638 0)
(8.69767 0.95227 0)
(8.62926 0.979181 0)
(8.55909 1.00639 0)
(8.48708 1.03393 0)
(8.4131 1.06174 0)
(8.33708 1.08977 0)
(8.25899 1.11799 0)
(8.17883 1.14645 0)
(8.09658 1.17531 0)
(8.01218 1.20466 0)
(7.92555 1.23443 0)
(7.83672 1.26446 0)
(7.74571 1.29469 0)
(7.65257 1.32523 0)
(7.55722 1.35625 0)
(7.45952 1.38781 0)
(7.35937 1.41978 0)
(7.25676 1.45196 0)
(7.15175 1.48436 0)
(7.04441 1.51717 0)
(6.93469 1.55072 0)
(6.82239 1.58515 0)
(6.70722 1.62028 0)
(6.589 1.65565 0)
(6.46767 1.69077 0)
(6.34334 1.72528 0)
(6.21617 1.75911 0)
(6.08632 1.79239 0)
(5.95388 1.82535 0)
(5.81887 1.85823 0)
(5.68128 1.89123 0)
(5.54105 1.92444 0)
(5.39813 1.9579 0)
(5.25247 1.99159 0)
(5.10401 2.02547 0)
(4.95272 2.05947 0)
(4.79854 2.09354 0)
(4.64145 2.12758 0)
(4.48143 2.16153 0)
(4.31846 2.19529 0)
(4.15252 2.22878 0)
(3.98364 2.26189 0)
(3.8118 2.29454 0)
(3.63705 2.32661 0)
(3.45941 2.358 0)
(3.27893 2.38861 0)
(3.09567 2.41832 0)
(2.90971 2.44701 0)
(2.72115 2.47459 0)
(2.53008 2.50092 0)
(2.33664 2.5259 0)
(2.14097 2.54942 0)
(1.94325 2.57136 0)
(1.74363 2.59159 0)
(1.54233 2.61002 0)
(1.33953 2.62652 0)
(1.13547 2.64099 0)
(0.930345 2.65329 0)
(0.724391 2.66334 0)
(0.517772 2.67089 0)
(0.31079 2.67654 0)
(0.103312 2.67495 0)
(9.96889 0.014332 0)
(10.0217 0.0428117 0)
(9.99094 0.0703234 0)
(9.99261 0.0979888 0)