/*--------------------------------*- C++ -*----------------------------------*\
| =========                 |                                                 |
| \\      /  F ield         | OpenFOAM: The Open Source CFD Toolbox           |
|  \\    /   O peration     | Version:  4.1                                   |
|   \\  /    A nd           | Web:      www.OpenFOAM.org                      |
|    \\/     M anipulation  |                                                 |
\*---------------------------------------------------------------------------*/
FoamFile
{
    version     2.0;
    format      ascii;
    class       volSymmTensorField;
    location    "0.151";
    object      UPrime2Mean;
}
// * * * * * * * * * * * * * * * * * * * * * * * * * * * * * * * * * * * * * //

dimensions      [0 2 -2 0 0 0 0];

internalField   nonuniform List<symmTensor> 
43750
(
(0.0524814 0.00275511 0 0.0100164 0 0)
(0.0256964 0.00288833 0 0.00332989 0 0)
(0.00954416 0.000800971 0 0.00146307 0 0)
(0.00408012 0.000291801 0 0.00085225 0 0)
(0.00326575 5.44399e-05 0 0.000560478 0 0)
(0.00337719 -5.22277e-05 0 0.000437018 0 0)
(0.00370128 -7.16061e-05 0 0.000413638 0 0)
(0.00404386 -7.08885e-05 0 0.000419202 0 0)
(0.00455401 -9.92174e-05 0 0.00041785 0 0)
(0.0053501 -0.000155551 0 0.000403086 0 0)
(0.00643906 -0.000212163 0 0.000387495 0 0)
(0.0077511 -0.000249787 0 0.000378514 0 0)
(0.00921565 -0.000264556 0 0.000372119 0 0)
(0.0108007 -0.000270958 0 0.000369025 0 0)
(0.0125127 -0.000293302 0 0.000363979 0 0)
(0.0143792 -0.000333136 0 0.00034536 0 0)
(0.0164066 -0.000363266 0 0.00032484 0 0)
(0.0185586 -0.000360949 0 0.000320135 0 0)
(0.020771 -0.000319096 0 0.00031455 0 0)
(0.0229771 -0.000236951 0 0.000290791 0 0)
(0.0251304 -0.000137422 0 0.000270276 0 0)
(0.0272362 -6.54452e-05 0 0.000270434 0 0)
(0.0293459 -3.72332e-05 0 0.000274199 0 0)
(0.0314929 -2.00427e-05 0 0.00026936 0 0)
(0.0336569 2.2134e-05 0 0.000268238 0 0)
(0.035787 9.5578e-05 0 0.000274792 0 0)
(0.0378311 0.000194221 0 0.00027366 0 0)
(0.0397378 0.000316886 0 0.000262451 0 0)
(0.041434 0.000450472 0 0.000257976 0 0)
(0.0428526 0.000558537 0 0.000262653 0 0)
(0.0439857 0.000620646 0 0.000261545 0 0)
(0.0448733 0.00066865 0 0.000256466 0 0)
(0.045546 0.000754954 0 0.000259141 0 0)
(0.0459816 0.000902674 0 0.000263292 0 0)
(0.0461137 0.00109288 0 0.000262998 0 0)
(0.045892 0.00127802 0 0.000267385 0 0)
(0.0453212 0.00141495 0 0.000278296 0 0)
(0.0444459 0.00150044 0 0.000288735 0 0)
(0.0433163 0.00156383 0 0.000298769 0 0)
(0.0419523 0.00163059 0 0.000311763 0 0)
(0.0403596 0.00170866 0 0.000328053 0 0)
(0.0385439 0.0018018 0 0.000346823 0 0)
(0.0364991 0.00192085 0 0.000365893 0 0)
(0.0341979 0.00207552 0 0.000379544 0 0)
(0.0316157 0.00225663 0 0.000385682 0 0)
(0.0287547 0.00242559 0 0.000395092 0 0)
(0.0256724 0.00253336 0 0.0004196 0 0)
(0.0224567 0.00255895 0 0.000457553 0 0)
(0.0191725 0.00251526 0 0.000502405 0 0)
(0.0158602 0.00241481 0 0.000552132 0 0)
(0.012592 0.00224249 0 0.000605079 0 0)
(0.00953605 0.00197205 0 0.000655152 0 0)
(0.00692644 0.0016097 0 0.000697189 0 0)
(0.00496551 0.00120043 0 0.000739819 0 0)
(0.00376611 0.000773123 0 0.000797339 0 0)
(0.00341816 0.000305208 0 0.000868797 0 0)
(0.00408642 -0.000253582 0 0.000932252 0 0)
(0.00603595 -0.00090959 0 0.000933786 0 0)
(0.00949075 -0.00154019 0 0.000810209 0 0)
(0.0143672 -0.00193633 0 0.00057558 0 0)
(0.0201792 -0.0019985 0 0.000333504 0 0)
(0.0262944 -0.00183768 0 0.000171316 0 0)
(0.0322922 -0.00165431 0 9.59644e-05 0 0)
(0.0380897 -0.00157565 0 7.0938e-05 0 0)
(0.0438342 -0.00161628 0 6.55287e-05 0 0)
(0.0497494 -0.00173302 0 6.60336e-05 0 0)
(0.0560157 -0.00187943 0 6.78535e-05 0 0)
(0.0627489 -0.00202646 0 6.93638e-05 0 0)
(0.0699989 -0.00216188 0 7.00111e-05 0 0)
(0.0777826 -0.00228225 0 6.97182e-05 0 0)
(0.0860821 -0.00238558 0 6.85139e-05 0 0)
(0.0948695 -0.00246772 0 6.63432e-05 0 0)
(0.104102 -0.002522 0 6.30947e-05 0 0)
(0.113714 -0.00253923 0 5.86206e-05 0 0)
(0.123623 -0.00250926 0 5.28569e-05 0 0)
(0.13372 -0.00242037 0 4.58116e-05 0 0)
(0.143858 -0.00225981 0 3.76355e-05 0 0)
(0.153859 -0.00201425 0 2.86827e-05 0 0)
(0.163512 -0.00167011 0 1.95708e-05 0 0)
(0.172552 -0.00121468 0 1.12668e-05 0 0)
(0.180684 -0.000637697 0 5.1578e-06 0 0)
(0.18758 6.72098e-05 0 3.09477e-06 0 0)
(0.192887 0.000900394 0 7.40181e-06 0 0)
(0.196233 0.00185495 0 2.08225e-05 0 0)
(0.197263 0.00291441 0 4.63987e-05 0 0)
(0.195656 0.00405053 0 8.72229e-05 0 0)
(0.191157 0.00522381 0 0.000146139 0 0)
(0.183602 0.00638308 0 0.000225328 0 0)
(0.17297 0.00746828 0 0.000325935 0 0)
(0.159381 0.00841257 0 0.000447642 0 0)
(0.143147 0.00914745 0 0.00058836 0 0)
(0.124756 0.00960781 0 0.000744068 0 0)
(0.104877 0.0097396 0 0.000909096 0 0)
(0.0843357 0.00950472 0 0.00107641 0 0)
(0.0640757 0.0088853 0 0.00123808 0 0)
(0.0451038 0.00788802 0 0.00138632 0 0)
(0.0284182 0.00654213 0 0.00151374 0 0)
(0.0149613 0.0049038 0 0.00161578 0 0)
(0.00549636 0.00304129 0 0.00169193 0 0)
(0.000617592 0.00102899 0 0.0017235 0 0)
(0.055791 0.00124627 0 0.0127526 0 0)
(0.0225321 0.00341037 0 0.00407389 0 0)
(0.00931925 0.000655519 0 0.00163802 0 0)
(0.0038569 0.000541752 0 0.00103389 0 0)
(0.00314155 0.000289362 0 0.000861715 0 0)
(0.00349232 -1.56599e-05 0 0.000806916 0 0)
(0.0040777 -0.000259898 0 0.000769008 0 0)
(0.00469251 -0.000451856 0 0.000735207 0 0)
(0.00551752 -0.000611445 0 0.000716437 0 0)
(0.00665451 -0.000754459 0 0.000711855 0 0)
(0.00810325 -0.000887367 0 0.000710992 0 0)
(0.00982431 -0.0010089 0 0.000706209 0 0)
(0.011787 -0.0011199 0 0.000695536 0 0)
(0.0139779 -0.0012234 0 0.000679574 0 0)
(0.016391 -0.00132008 0 0.00066024 0 0)
(0.0190231 -0.00140721 0 0.000641873 0 0)
(0.0218845 -0.00148179 0 0.000627964 0 0)
(0.025002 -0.00154037 0 0.000617723 0 0)
(0.0283988 -0.00158047 0 0.000608212 0 0)
(0.0320656 -0.00160535 0 0.000597678 0 0)
(0.0359645 -0.00162239 0 0.000586026 0 0)
(0.0400508 -0.00163563 0 0.000573956 0 0)
(0.0442792 -0.0016468 0 0.000561168 0 0)
(0.0486042 -0.00165902 0 0.000546149 0 0)
(0.0530063 -0.00167294 0 0.000528092 0 0)
(0.0575197 -0.00167586 0 0.00050943 0 0)
(0.0622149 -0.00164039 0 0.000494361 0 0)
(0.0671344 -0.00154544 0 0.000478101 0 0)
(0.072265 -0.00139386 0 0.000443944 0 0)
(0.0775533 -0.00119676 0 0.000388966 0 0)
(0.0829185 -0.000963631 0 0.000338633 0 0)
(0.0882646 -0.000720749 0 0.000313112 0 0)
(0.0935411 -0.000497121 0 0.000304275 0 0)
(0.0988224 -0.000282102 0 0.000299202 0 0)
(0.104231 -3.93455e-05 0 0.000295187 0 0)
(0.109801 0.000247877 0 0.000291176 0 0)
(0.115448 0.00057223 0 0.000286815 0 0)
(0.121014 0.000921878 0 0.000284177 0 0)
(0.126337 0.00128568 0 0.000284587 0 0)
(0.13131 0.00165356 0 0.000287705 0 0)
(0.135924 0.00201973 0 0.000292489 0 0)
(0.140233 0.00238334 0 0.000298211 0 0)
(0.144324 0.00275136 0 0.000304835 0 0)
(0.148324 0.00313496 0 0.000312954 0 0)
(0.152376 0.00354287 0 0.00032322 0 0)
(0.156537 0.00397964 0 0.000336099 0 0)
(0.160737 0.00445791 0 0.000353213 0 0)
(0.164818 0.00500429 0 0.000376642 0 0)
(0.16862 0.00564823 0 0.000405279 0 0)
(0.172042 0.0063909 0 0.000436971 0 0)
(0.175067 0.00718021 0 0.000476711 0 0)
(0.177664 0.0079346 0 0.000530949 0 0)
(0.179751 0.0086077 0 0.000596052 0 0)
(0.181238 0.0092277 0 0.000668171 0 0)
(0.182097 0.00987622 0 0.000753107 0 0)
(0.182389 0.0106019 0 0.000855693 0 0)
(0.182163 0.0113369 0 0.000976215 0 0)
(0.181341 0.0119017 0 0.00110502 0 0)
(0.179716 0.0120994 0 0.00119589 0 0)
(0.177053 0.0118228 0 0.00117992 0 0)
(0.173234 0.0111226 0 0.00103779 0 0)
(0.168313 0.0101907 0 0.000829234 0 0)
(0.162481 0.00925955 0 0.000637228 0 0)
(0.155981 0.00849897 0 0.000507624 0 0)
(0.149027 0.00797124 0 0.000440845 0 0)
(0.141803 0.00765031 0 0.000416804 0 0)
(0.134428 0.00746671 0 0.000416161 0 0)
(0.126995 0.00734786 0 0.000426462 0 0)
(0.119571 0.00724096 0 0.000440836 0 0)
(0.112205 0.00711602 0 0.000455556 0 0)
(0.104931 0.0069596 0 0.000468596 0 0)
(0.0977698 0.00676607 0 0.000478746 0 0)
(0.090743 0.00653306 0 0.000485113 0 0)
(0.0838665 0.00625945 0 0.000486903 0 0)
(0.0771525 0.00594305 0 0.000483105 0 0)
(0.0706177 0.00558244 0 0.000472659 0 0)
(0.0642801 0.00517643 0 0.000454424 0 0)
(0.0581574 0.00472534 0 0.000427461 0 0)
(0.0522707 0.00423095 0 0.000391124 0 0)
(0.0466431 0.00369728 0 0.000345344 0 0)
(0.0412993 0.00313101 0 0.000290945 0 0)
(0.0362626 0.00254167 0 0.000229973 0 0)
(0.031555 0.00194141 0 0.000165944 0 0)
(0.0271976 0.00134511 0 0.000104152 0 0)
(0.0232061 0.000769256 0 5.16713e-05 0 0)
(0.0195901 0.00023168 0 1.73316e-05 0 0)
(0.0163529 -0.000250172 0 1.12513e-05 0 0)
(0.013489 -0.000660389 0 4.41372e-05 0 0)
(0.0109858 -0.000986022 0 0.000126243 0 0)
(0.00882457 -0.00121868 0 0.000266112 0 0)
(0.00697853 -0.00135521 0 0.000469096 0 0)
(0.00541911 -0.00139878 0 0.000736106 0 0)
(0.00411372 -0.00135821 0 0.00106237 0 0)
(0.00303093 -0.0012477 0 0.00143658 0 0)
(0.00214216 -0.00108529 0 0.00184066 0 0)
(0.00142435 -0.000891203 0 0.00225067 0 0)
(0.000859834 -0.000683818 0 0.00263631 0 0)
(0.00043939 -0.000478205 0 0.00296715 0 0)
(0.000158568 -0.000283114 0 0.00320873 0 0)
(1.67039e-05 -8.60755e-05 0 0.0033352 0 0)
(0.0555141 0.000649469 0 0.0157818 0 0)
(0.0240788 0.00383049 0 0.00621466 0 0)
(0.0102166 0.000861938 0 0.0030075 0 0)
(0.00475066 0.000839281 0 0.00195771 0 0)
(0.00397126 0.000390407 0 0.00148446 0 0)
(0.00408461 -0.000197458 0 0.00126852 0 0)
(0.00443149 -0.00060423 0 0.00122036 0 0)
(0.00486824 -0.000868553 0 0.00124818 0 0)
(0.00553669 -0.00110943 0 0.00128222 0 0)
(0.00652895 -0.00137766 0 0.0013074 0 0)
(0.00783288 -0.00167635 0 0.0013195 0 0)
(0.00937413 -0.0019807 0 0.00133168 0 0)
(0.0111116 -0.00225434 0 0.00135149 0 0)
(0.0130579 -0.0024934 0 0.00136958 0 0)
(0.0152245 -0.00272489 0 0.00138449 0 0)
(0.0175922 -0.00296578 0 0.00139348 0 0)
(0.0201369 -0.0032145 0 0.00139169 0 0)
(0.0228484 -0.00345946 0 0.00138766 0 0)
(0.0257187 -0.00367538 0 0.00138691 0 0)
(0.0287383 -0.00383708 0 0.00137857 0 0)
(0.031894 -0.00394276 0 0.00135414 0 0)
(0.0351636 -0.00401102 0 0.00131922 0 0)
(0.0385101 -0.00406103 0 0.00128473 0 0)
(0.0418937 -0.00410186 0 0.00125724 0 0)
(0.0452767 -0.00413537 0 0.00123787 0 0)
(0.048623 -0.00416359 0 0.00122317 0 0)
(0.0519172 -0.00419047 0 0.0012075 0 0)
(0.0551849 -0.00421053 0 0.00118803 0 0)
(0.0584879 -0.00420106 0 0.00116631 0 0)
(0.061881 -0.00413604 0 0.00113985 0 0)
(0.0653562 -0.00400756 0 0.00109953 0 0)
(0.0688533 -0.00383002 0 0.00104803 0 0)
(0.0722975 -0.00363573 0 0.0010043 0 0)
(0.0756411 -0.00346376 0 0.000974461 0 0)
(0.0789066 -0.00331835 0 0.000947188 0 0)
(0.0821592 -0.00314877 0 0.000918945 0 0)
(0.0854407 -0.00289734 0 0.000883376 0 0)
(0.0887326 -0.0025478 0 0.000821257 0 0)
(0.0919733 -0.00212136 0 0.000733589 0 0)
(0.0950923 -0.00165427 0 0.000647726 0 0)
(0.0980259 -0.00117918 0 0.000582913 0 0)
(0.100723 -0.000713613 0 0.000538372 0 0)
(0.103156 -0.000263906 0 0.000507382 0 0)
(0.105312 0.000163137 0 0.000485132 0 0)
(0.1072 0.000568886 0 0.000467584 0 0)
(0.108859 0.000982517 0 0.000452065 0 0)
(0.110354 0.00145806 0 0.000436464 0 0)
(0.111809 0.00202819 0 0.000416821 0 0)
(0.113381 0.0026693 0 0.00039375 0 0)
(0.115199 0.00331924 0 0.000377321 0 0)
(0.117276 0.00393266 0 0.000375001 0 0)
(0.119511 0.00450994 0 0.000384713 0 0)
(0.121725 0.00508095 0 0.000403237 0 0)
(0.123767 0.00567427 0 0.000430872 0 0)
(0.125624 0.00628723 0 0.000469107 0 0)
(0.127457 0.00687946 0 0.000518497 0 0)
(0.129489 0.00739343 0 0.000572781 0 0)
(0.131793 0.00778764 0 0.000615544 0 0)
(0.13423 0.00804582 0 0.00062921 0 0)
(0.13647 0.00818026 0 0.000613787 0 0)
(0.138127 0.00824462 0 0.000591371 0 0)
(0.138863 0.00832408 0 0.000584883 0 0)
(0.138508 0.0084914 0 0.000600128 0 0)
(0.137099 0.00876142 0 0.000630789 0 0)
(0.134838 0.00908922 0 0.000669915 0 0)
(0.132005 0.00940735 0 0.000712821 0 0)
(0.128874 0.00966691 0 0.000755445 0 0)
(0.125651 0.00985203 0 0.00079447 0 0)
(0.122465 0.00997043 0 0.000828317 0 0)
(0.119376 0.0100374 0 0.000856935 0 0)
(0.11641 0.0100669 0 0.000880982 0 0)
(0.113565 0.0100675 0 0.000901016 0 0)
(0.110828 0.0100417 0 0.000916979 0 0)
(0.108182 0.00998841 0 0.00092838 0 0)
(0.105607 0.00990302 0 0.00093416 0 0)
(0.103073 0.00977855 0 0.000932888 0 0)
(0.100553 0.0096071 0 0.00092298 0 0)
(0.0980008 0.00937898 0 0.000902708 0 0)
(0.0953823 0.0090844 0 0.000870373 0 0)
(0.0926505 0.00871311 0 0.000824511 0 0)
(0.0897521 0.00825539 0 0.000764184 0 0)
(0.0866371 0.00770328 0 0.00068926 0 0)
(0.0832548 0.0070523 0 0.000600901 0 0)
(0.0795521 0.00630165 0 0.000501708 0 0)
(0.0754905 0.00545602 0 0.000395905 0 0)
(0.0710339 0.00452704 0 0.000289531 0 0)
(0.0661609 0.00353302 0 0.000190021 0 0)
(0.0608688 0.00250021 0 0.000105883 0 0)
(0.0551796 0.00146195 0 4.58959e-05 0 0)
(0.0491433 0.000457199 0 1.8184e-05 0 0)
(0.0428385 -0.000471371 0 2.92391e-05 0 0)
(0.0363766 -0.00128025 0 8.30265e-05 0 0)
(0.0299059 -0.0019278 0 0.00018021 0 0)
(0.0235972 -0.00237695 0 0.000317309 0 0)
(0.0176481 -0.00260018 0 0.000486295 0 0)
(0.0122625 -0.00258226 0 0.000674509 0 0)
(0.00764805 -0.00232344 0 0.00086429 0 0)
(0.00399156 -0.00184478 0 0.00103624 0 0)
(0.0014609 -0.00118389 0 0.00116251 0 0)
(0.000159498 -0.000404391 0 0.00123478 0 0)
(0.0542837 -0.00144113 0 0.0147626 0 0)
(0.0234867 0.00347398 0 0.00646649 0 0)
(0.00860337 -0.00011575 0 0.00326736 0 0)
(0.00394853 0.000416782 0 0.0023341 0 0)
(0.00345368 0.000278205 0 0.00211869 0 0)
(0.0037096 -0.00022943 0 0.00209716 0 0)
(0.00412423 -0.000731307 0 0.00209025 0 0)
(0.00459739 -0.0011568 0 0.00210048 0 0)
(0.00531131 -0.00155227 0 0.00213767 0 0)
(0.0063319 -0.00195465 0 0.00216961 0 0)
(0.00762279 -0.00235905 0 0.002166 0 0)
(0.00913401 -0.00274724 0 0.00215091 0 0)
(0.0108553 -0.00311728 0 0.00215715 0 0)
(0.012802 -0.00347015 0 0.0021788 0 0)
(0.0149704 -0.00380014 0 0.00219959 0 0)
(0.0173233 -0.00410094 0 0.00221365 0 0)
(0.0198102 -0.0043634 0 0.00221198 0 0)
(0.0224009 -0.00458439 0 0.00218877 0 0)
(0.0251175 -0.00477889 0 0.00215529 0 0)
(0.0279995 -0.00496138 0 0.00212524 0 0)
(0.0310527 -0.00512812 0 0.00209991 0 0)
(0.0342429 -0.00526745 0 0.00207434 0 0)
(0.0375232 -0.00537184 0 0.00204504 0 0)
(0.0408448 -0.00543948 0 0.00201214 0 0)
(0.0441781 -0.00547401 0 0.00197759 0 0)
(0.0475133 -0.00547884 0 0.00194242 0 0)
(0.0508388 -0.00545356 0 0.00190636 0 0)
(0.0541294 -0.00539556 0 0.00186852 0 0)
(0.0573508 -0.00529922 0 0.0018274 0 0)
(0.0604837 -0.00515521 0 0.0017802 0 0)
(0.0635344 -0.00495624 0 0.00172322 0 0)
(0.0665068 -0.00470756 0 0.00165729 0 0)
(0.0693711 -0.00443029 0 0.00159281 0 0)
(0.0720595 -0.00415424 0 0.00154063 0 0)
(0.0744925 -0.00390281 0 0.00149907 0 0)
(0.0766418 -0.00367249 0 0.0014602 0 0)
(0.0785466 -0.0034227 0 0.0014214 0 0)
(0.0802923 -0.00310288 0 0.0013808 0 0)
(0.0819457 -0.00269023 0 0.00133075 0 0)
(0.0835312 -0.00220062 0 0.00126659 0 0)
(0.0850347 -0.001669 0 0.00119468 0 0)
(0.0864335 -0.00112491 0 0.00112523 0 0)
(0.0876802 -0.000581 0 0.00106375 0 0)
(0.0887125 -3.93916e-05 0 0.00101123 0 0)
(0.0894786 0.000491606 0 0.000968306 0 0)
(0.0899737 0.000989784 0 0.000935416 0 0)
(0.0902731 0.00142922 0 0.000909559 0 0)
(0.0904987 0.00180532 0 0.00088433 0 0)
(0.0907525 0.00214817 0 0.000856595 0 0)
(0.0910658 0.00250804 0 0.000830378 0 0)
(0.0914027 0.00293091 0 0.000809185 0 0)
(0.091701 0.00343945 0 0.000788119 0 0)
(0.0919024 0.00402239 0 0.000762432 0 0)
(0.0919681 0.00463365 0 0.000739899 0 0)
(0.0919029 0.00520606 0 0.000733676 0 0)
(0.0917401 0.00568307 0 0.00074482 0 0)
(0.0915289 0.00604845 0 0.0007619 0 0)
(0.0912785 0.00632505 0 0.000776079 0 0)
(0.0909264 0.0065514 0 0.000787762 0 0)
(0.0903462 0.00676508 0 0.000801493 0 0)
(0.0893866 0.00699383 0 0.000819692 0 0)
(0.0879443 0.0072491 0 0.000841925 0 0)
(0.0860267 0.00752148 0 0.000867215 0 0)
(0.0837425 0.00778262 0 0.000895057 0 0)
(0.0812453 0.00799878 0 0.000924379 0 0)
(0.078683 0.00814649 0 0.000952473 0 0)
(0.076168 0.00822076 0 0.000976138 0 0)
(0.0737677 0.00823089 0 0.000993165 0 0)
(0.0715172 0.00819367 0 0.00100334 0 0)
(0.0694367 0.00812586 0 0.00100759 0 0)
(0.0675337 0.00803979 0 0.00100707 0 0)
(0.0658144 0.00794378 0 0.00100275 0 0)
(0.0642802 0.007842 0 0.00099509 0 0)
(0.0629231 0.00773551 0 0.000984162 0 0)
(0.0617401 0.0076238 0 0.000969721 0 0)
(0.0607155 0.00750444 0 0.000951319 0 0)
(0.0598323 0.00737374 0 0.000928304 0 0)
(0.0590725 0.00722731 0 0.000899963 0 0)
(0.0584025 0.00705908 0 0.000865535 0 0)
(0.0577863 0.0068627 0 0.000824352 0 0)
(0.0571849 0.00663171 0 0.000775941 0 0)
(0.0565393 0.00635858 0 0.000720046 0 0)
(0.0557951 0.00603771 0 0.00065698 0 0)
(0.0548789 0.00566386 0 0.000587537 0 0)
(0.0537203 0.00523494 0 0.000513244 0 0)
(0.0522368 0.00475108 0 0.000436196 0 0)
(0.0503538 0.00421689 0 0.000359119 0 0)
(0.0479994 0.00364089 0 0.00028508 0 0)
(0.0451173 0.00303638 0 0.000217298 0 0)
(0.0416744 0.00242055 0 0.000158752 0 0)
(0.0376692 0.00181403 0 0.000111921 0 0)
(0.033144 0.00123965 0 7.85079e-05 0 0)
(0.0281966 0.000720768 0 5.92902e-05 0 0)
(0.0229785 0.00028028 0 5.40514e-05 0 0)
(0.0177021 -6.15392e-05 0 6.14445e-05 0 0)
(0.0126262 -0.000289495 0 7.88832e-05 0 0)
(0.00805223 -0.000395747 0 0.000102414 0 0)
(0.00427438 -0.000386585 0 0.00012741 0 0)
(0.00158243 -0.000274222 0 0.000147439 0 0)
(0.000174312 -0.000100481 0 0.000161088 0 0)
(0.0549523 -0.00152263 0 0.0150068 0 0)
(0.0221121 0.00391571 0 0.00640937 0 0)
(0.00879255 -0.000449877 0 0.00363625 0 0)
(0.00346255 0.000454803 0 0.00290257 0 0)
(0.00289601 0.000200461 0 0.00266655 0 0)
(0.00325699 -0.000574767 0 0.00259949 0 0)
(0.00378821 -0.0012566 0 0.00264708 0 0)
(0.00429022 -0.00176869 0 0.00275768 0 0)
(0.0049371 -0.00219846 0 0.0028877 0 0)
(0.00587165 -0.0026346 0 0.00301487 0 0)
(0.00711553 -0.00311243 0 0.00311929 0 0)
(0.0086172 -0.0036144 0 0.00319326 0 0)
(0.0103249 -0.00410589 0 0.00324682 0 0)
(0.0122095 -0.00455979 0 0.00329005 0 0)
(0.0142677 -0.00496912 0 0.0033225 0 0)
(0.0165146 -0.00534747 0 0.00334208 0 0)
(0.0189613 -0.00571593 0 0.003353 0 0)
(0.0215983 -0.00608256 0 0.00335799 0 0)
(0.0243958 -0.00643514 0 0.00335499 0 0)
(0.0273235 -0.00675257 0 0.00334543 0 0)
(0.0303591 -0.00701163 0 0.00332634 0 0)
(0.0334934 -0.00719846 0 0.00327817 0 0)
(0.0367312 -0.00732535 0 0.00319124 0 0)
(0.0400715 -0.00741806 0 0.0030908 0 0)
(0.0434892 -0.00748736 0 0.00300762 0 0)
(0.0469406 -0.00752822 0 0.00294608 0 0)
(0.0503661 -0.00753197 0 0.00289379 0 0)
(0.0537121 -0.00749155 0 0.00284013 0 0)
(0.0569521 -0.00740006 0 0.00277879 0 0)
(0.0600959 -0.00725049 0 0.0027049 0 0)
(0.0631771 -0.00703692 0 0.00261403 0 0)
(0.0662106 -0.00675985 0 0.00250639 0 0)
(0.0691741 -0.00643083 0 0.00239284 0 0)
(0.0720157 -0.00606979 0 0.00228956 0 0)
(0.074671 -0.00569265 0 0.00220256 0 0)
(0.0770882 -0.0052949 0 0.00212478 0 0)
(0.0792486 -0.0048499 0 0.00204569 0 0)
(0.0811674 -0.00433538 0 0.00195788 0 0)
(0.0828905 -0.0037638 0 0.00186404 0 0)
(0.0844829 -0.00317517 0 0.001776 0 0)
(0.0860005 -0.00259896 0 0.00170049 0 0)
(0.0874575 -0.00203192 0 0.00163329 0 0)
(0.0888193 -0.00145411 0 0.00156777 0 0)
(0.0900008 -0.000854264 0 0.0015031 0 0)
(0.0909019 -0.000244038 0 0.00144637 0 0)
(0.0914362 0.000349201 0 0.00140364 0 0)
(0.0915579 0.000903981 0 0.00137249 0 0)
(0.091285 0.00142324 0 0.00134693 0 0)
(0.0906801 0.00192703 0 0.00132385 0 0)
(0.0898346 0.00243275 0 0.00130252 0 0)
(0.0888454 0.00295152 0 0.00128271 0 0)
(0.0877994 0.00349508 0 0.00126363 0 0)
(0.0867343 0.00406999 0 0.00124398 0 0)
(0.0856244 0.00466218 0 0.00122513 0 0)
(0.0844 0.00523189 0 0.00121397 0 0)
(0.0829819 0.00572713 0 0.00121605 0 0)
(0.0813275 0.00611297 0 0.00122744 0 0)
(0.0794348 0.00639654 0 0.00124029 0 0)
(0.0773298 0.00662647 0 0.00125283 0 0)
(0.0750255 0.00686312 0 0.0012673 0 0)
(0.0725138 0.0071436 0 0.00128312 0 0)
(0.069783 0.00746537 0 0.00129866 0 0)
(0.0668464 0.00778934 0 0.0013157 0 0)
(0.0637651 0.008061 0 0.00133762 0 0)
(0.0606277 0.00823612 0 0.00136367 0 0)
(0.0575327 0.00829755 0 0.00138821 0 0)
(0.0545503 0.00825334 0 0.00140481 0 0)
(0.0517309 0.00812725 0 0.00140995 0 0)
(0.049095 0.00794545 0 0.00140341 0 0)
(0.0466502 0.00773037 0 0.00138706 0 0)
(0.0443934 0.00749744 0 0.001363 0 0)
(0.0423221 0.00725656 0 0.00133289 0 0)
(0.0404346 0.00701395 0 0.00129791 0 0)
(0.0387239 0.00677253 0 0.00125867 0 0)
(0.0371877 0.0065343 0 0.00121561 0 0)
(0.035818 0.00629975 0 0.00116899 0 0)
(0.0346058 0.00606864 0 0.00111898 0 0)
(0.0335409 0.00584009 0 0.00106573 0 0)
(0.0326096 0.00561264 0 0.00100941 0 0)
(0.0317946 0.00538464 0 0.00095037 0 0)
(0.0310778 0.00515434 0 0.000889022 0 0)
(0.0304304 0.00491961 0 0.00082602 0 0)
(0.0298246 0.00467919 0 0.000762268 0 0)
(0.0292224 0.00443215 0 0.000698913 0 0)
(0.0285823 0.00417845 0 0.000637267 0 0)
(0.0278553 0.00391909 0 0.0005788 0 0)
(0.0269922 0.00365659 0 0.000525034 0 0)
(0.0259386 0.00339406 0 0.000477342 0 0)
(0.024641 0.00313528 0 0.000436923 0 0)
(0.023056 0.00288383 0 0.000404581 0 0)
(0.02115 0.00264227 0 0.000380826 0 0)
(0.0189137 0.0024105 0 0.000365561 0 0)
(0.0163676 0.00218521 0 0.000358286 0 0)
(0.013571 0.00195924 0 0.000357953 0 0)
(0.010632 0.00172376 0 0.000363288 0 0)
(0.00770205 0.00146892 0 0.000372483 0 0)
(0.00497952 0.00118824 0 0.000383768 0 0)
(0.0026718 0.000875613 0 0.0003938 0 0)
(0.000997293 0.000540585 0 0.000405407 0 0)
(0.000109909 0.000177326 0 0.000400627 0 0)
(0.0534343 -0.00254765 0 0.0162335 0 0)
(0.0227088 0.00317283 0 0.00743218 0 0)
(0.0085637 -0.00149297 0 0.00454772 0 0)
(0.00334076 -0.00026308 0 0.00381737 0 0)
(0.00277489 -0.000270569 0 0.00369388 0 0)
(0.00314411 -0.000961467 0 0.00385139 0 0)
(0.00366856 -0.0016654 0 0.00408434 0 0)
(0.00418881 -0.00225795 0 0.00428045 0 0)
(0.00491456 -0.00280358 0 0.00444332 0 0)
(0.00595439 -0.00335762 0 0.00458508 0 0)
(0.00728466 -0.00393431 0 0.0046774 0 0)
(0.00882396 -0.00451314 0 0.00471437 0 0)
(0.0105149 -0.0050702 0 0.00474615 0 0)
(0.012358 -0.00560358 0 0.00480556 0 0)
(0.0143924 -0.00611898 0 0.00487481 0 0)
(0.0166534 -0.0066119 0 0.00492834 0 0)
(0.0191447 -0.00707536 0 0.00495765 0 0)
(0.0218351 -0.00750431 0 0.00495877 0 0)
(0.0246788 -0.0078893 0 0.00492751 0 0)
(0.0276358 -0.0082185 0 0.00487197 0 0)
(0.0306813 -0.00849194 0 0.004812 0 0)
(0.0338136 -0.00872387 0 0.00475833 0 0)
(0.0370325 -0.00892195 0 0.00470562 0 0)
(0.0403226 -0.00907629 0 0.00464536 0 0)
(0.0436497 -0.00916585 0 0.00457033 0 0)
(0.0469801 -0.00917321 0 0.00447177 0 0)
(0.0502939 -0.00909793 0 0.00434875 0 0)
(0.0535805 -0.00895784 0 0.00421597 0 0)
(0.0568169 -0.00877565 0 0.00409079 0 0)
(0.0599578 -0.00856296 0 0.00397679 0 0)
(0.0629705 -0.00831304 0 0.00386617 0 0)
(0.0658647 -0.00800766 0 0.00374952 0 0)
(0.068693 -0.00764126 0 0.00362267 0 0)
(0.0714972 -0.00723079 0 0.00349223 0 0)
(0.0742651 -0.00679686 0 0.00337002 0 0)
(0.0769424 -0.00634613 0 0.00326048 0 0)
(0.0794692 -0.00587072 0 0.00315945 0 0)
(0.0818124 -0.00536048 0 0.00306219 0 0)
(0.0839603 -0.00481657 0 0.00296771 0 0)
(0.0859032 -0.00425418 0 0.00287829 0 0)
(0.0876117 -0.00368392 0 0.00279434 0 0)
(0.0890509 -0.00308962 0 0.00271186 0 0)
(0.0902192 -0.00242748 0 0.00262171 0 0)
(0.0911583 -0.00166212 0 0.0025098 0 0)
(0.0919003 -0.000805928 0 0.0023741 0 0)
(0.0924334 7.87064e-05 0 0.00224179 0 0)
(0.0926991 0.000915778 0 0.00214548 0 0)
(0.0926489 0.00164932 0 0.00208907 0 0)
(0.0922843 0.00226785 0 0.00205294 0 0)
(0.0916591 0.00280609 0 0.00202122 0 0)
(0.0908276 0.003324 0 0.00199124 0 0)
(0.0897956 0.00388059 0 0.00196456 0 0)
(0.0885328 0.00451325 0 0.00193701 0 0)
(0.0869959 0.00522156 0 0.00190309 0 0)
(0.0851636 0.0059601 0 0.00186819 0 0)
(0.083046 0.00665124 0 0.00184708 0 0)
(0.0806686 0.00722658 0 0.00184725 0 0)
(0.0780578 0.00766737 0 0.00186184 0 0)
(0.0752369 0.00801367 0 0.0018817 0 0)
(0.0722187 0.0083316 0 0.00190268 0 0)
(0.0690197 0.00866779 0 0.00192252 0 0)
(0.0656573 0.00901915 0 0.00194058 0 0)
(0.062172 0.00933719 0 0.00196064 0 0)
(0.0586291 0.00955874 0 0.00198631 0 0)
(0.0550975 0.00963963 0 0.00201393 0 0)
(0.051645 0.00957137 0 0.00203344 0 0)
(0.048329 0.00937721 0 0.00203642 0 0)
(0.0451787 0.00909365 0 0.0020205 0 0)
(0.0422116 0.00875559 0 0.00198797 0 0)
(0.0394319 0.00838911 0 0.00194284 0 0)
(0.0368344 0.00801008 0 0.0018884 0 0)
(0.0344167 0.0076282 0 0.00182695 0 0)
(0.0321691 0.00724812 0 0.00175974 0 0)
(0.0300889 0.00687312 0 0.00168758 0 0)
(0.0281662 0.00650486 0 0.00161113 0 0)
(0.0263991 0.00614528 0 0.00153102 0 0)
(0.0247756 0.00579489 0 0.00144789 0 0)
(0.0232909 0.00545496 0 0.0013625 0 0)
(0.0219349 0.00512602 0 0.00127575 0 0)
(0.0206972 0.00480863 0 0.00118862 0 0)
(0.0195659 0.00450343 0 0.00110238 0 0)
(0.0185304 0.00421147 0 0.00101841 0 0)
(0.0175726 0.00393355 0 0.000938346 0 0)
(0.0166787 0.00367136 0 0.0008639 0 0)
(0.0158274 0.00342662 0 0.000796954 0 0)
(0.0149993 0.00320164 0 0.000739327 0 0)
(0.0141715 0.00299886 0 0.00069284 0 0)
(0.013319 0.00282035 0 0.000659159 0 0)
(0.0124166 0.00266723 0 0.000639854 0 0)
(0.0114418 0.00253915 0 0.000636447 0 0)
(0.0103753 0.00243246 0 0.000650137 0 0)
(0.00920354 0.00233987 0 0.00068232 0 0)
(0.00792556 0.00224837 0 0.000733231 0 0)
(0.00655703 0.00214125 0 0.000802783 0 0)
(0.00513701 0.00199767 0 0.000888343 0 0)
(0.00372685 0.00179621 0 0.000984759 0 0)
(0.00241521 0.00152156 0 0.00108459 0 0)
(0.00129855 0.00116316 0 0.00117359 0 0)
(0.000486051 0.000735491 0 0.00124991 0 0)
(5.31817e-05 0.00024447 0 0.00126427 0 0)
(0.0519747 -0.00274263 0 0.0150499 0 0)
(0.0233104 0.00513213 0 0.00739461 0 0)
(0.00849576 -0.00102858 0 0.00512017 0 0)
(0.0033044 0.000235699 0 0.00462811 0 0)
(0.00265714 1.83275e-05 0 0.00471529 0 0)
(0.00292749 -0.000930769 0 0.00502199 0 0)
(0.003487 -0.00177071 0 0.00532612 0 0)
(0.00411155 -0.00242808 0 0.00560984 0 0)
(0.00488134 -0.00304059 0 0.00590921 0 0)
(0.00588012 -0.00369465 0 0.00619562 0 0)
(0.00713655 -0.00438945 0 0.00643197 0 0)
(0.00863331 -0.00509366 0 0.00661071 0 0)
(0.0103409 -0.00578808 0 0.00674658 0 0)
(0.0122464 -0.00646477 0 0.00685582 0 0)
(0.0143537 -0.00711807 0 0.0069425 0 0)
(0.0166592 -0.00774335 0 0.00700471 0 0)
(0.0191419 -0.00833154 0 0.00704247 0 0)
(0.0217854 -0.00886861 0 0.00705823 0 0)
(0.0245826 -0.00934324 0 0.00705107 0 0)
(0.0275186 -0.00975236 0 0.00701388 0 0)
(0.0305634 -0.0100946 0 0.00693556 0 0)
(0.0336829 -0.0103619 0 0.0068101 0 0)
(0.0368407 -0.0105412 0 0.00664753 0 0)
(0.0399997 -0.0106299 0 0.00647542 0 0)
(0.0431342 -0.0106477 0 0.00632147 0 0)
(0.0462453 -0.0106233 0 0.006191 0 0)
(0.0493559 -0.0105673 0 0.00606833 0 0)
(0.0524823 -0.0104644 0 0.00593473 0 0)
(0.0556093 -0.0102913 0 0.00577501 0 0)
(0.0586845 -0.0100314 0 0.00558321 0 0)
(0.0616473 -0.00968881 0 0.00537647 0 0)
(0.0644602 -0.00929504 0 0.00518521 0 0)
(0.0671409 -0.00888827 0 0.00502191 0 0)
(0.069742 -0.00847683 0 0.00487605 0 0)
(0.0722868 -0.00803428 0 0.00473273 0 0)
(0.0747502 -0.00752785 0 0.00458151 0 0)
(0.0770776 -0.00693865 0 0.00441672 0 0)
(0.0792163 -0.00626667 0 0.00424058 0 0)
(0.0811417 -0.0055264 0 0.00406018 0 0)
(0.0828371 -0.00473315 0 0.00388043 0 0)
(0.0842736 -0.0038973 0 0.00370404 0 0)
(0.0853993 -0.00302839 0 0.00353623 0 0)
(0.0861797 -0.0021451 0 0.00338554 0 0)
(0.0866434 -0.00126946 0 0.00325693 0 0)
(0.086887 -0.000412178 0 0.00314793 0 0)
(0.087008 0.000430112 0 0.00305277 0 0)
(0.0870283 0.00125814 0 0.00296891 0 0)
(0.0869079 0.00205709 0 0.00289833 0 0)
(0.0865923 0.0028062 0 0.00284203 0 0)
(0.0860653 0.00350406 0 0.0027961 0 0)
(0.0853398 0.00418419 0 0.00275547 0 0)
(0.0844107 0.00490165 0 0.00271483 0 0)
(0.0832336 0.00569261 0 0.00266601 0 0)
(0.0817408 0.00654289 0 0.00260903 0 0)
(0.0799239 0.00738258 0 0.00256215 0 0)
(0.0778441 0.00812022 0 0.00254469 0 0)
(0.075629 0.00870311 0 0.0025552 0 0)
(0.0733655 0.00914813 0 0.00257885 0 0)
(0.071064 0.00952045 0 0.0026063 0 0)
(0.0686574 0.00988466 0 0.00263525 0 0)
(0.0660584 0.0102694 0 0.00266355 0 0)
(0.063209 0.0106557 0 0.00269136 0 0)
(0.0601145 0.0109873 0 0.00272352 0 0)
(0.0568336 0.0111979 0 0.00276206 0 0)
(0.053456 0.011244 0 0.00279938 0 0)
(0.0500709 0.0111199 0 0.0028217 0 0)
(0.0467451 0.0108508 0 0.00281872 0 0)
(0.0435272 0.0104775 0 0.00278846 0 0)
(0.040448 0.0100394 0 0.00273491 0 0)
(0.0375237 0.0095667 0 0.00266405 0 0)
(0.03476 0.00907838 0 0.00258059 0 0)
(0.0321574 0.00858613 0 0.00248811 0 0)
(0.0297134 0.00809595 0 0.0023883 0 0)
(0.0274237 0.00761199 0 0.00228269 0 0)
(0.0252844 0.00713682 0 0.00217213 0 0)
(0.023286 0.00667203 0 0.00205765 0 0)
(0.0214239 0.00621928 0 0.00194006 0 0)
(0.0196901 0.00578038 0 0.00182075 0 0)
(0.0180772 0.00535713 0 0.00170119 0 0)
(0.0165786 0.00495001 0 0.00158219 0 0)
(0.0151874 0.00456225 0 0.00146633 0 0)
(0.0138934 0.00419462 0 0.00135505 0 0)
(0.0126901 0.00384918 0 0.00125036 0 0)
(0.011569 0.00352927 0 0.00115528 0 0)
(0.0105218 0.00323657 0 0.00107173 0 0)
(0.00953965 0.00297347 0 0.0010022 0 0)
(0.00861286 0.00274194 0 0.000949237 0 0)
(0.00773313 0.00254307 0 0.000915107 0 0)
(0.00689224 0.00237745 0 0.000902666 0 0)
(0.00608131 0.00224298 0 0.000914657 0 0)
(0.00529268 0.00213462 0 0.000953811 0 0)
(0.00452105 0.00204426 0 0.00102322 0 0)
(0.00376435 0.00195974 0 0.00112546 0 0)
(0.00302544 0.00186512 0 0.0012615 0 0)
(0.00231402 0.00174119 0 0.00142837 0 0)
(0.00164638 0.00156793 0 0.00161774 0 0)
(0.00105144 0.00133091 0 0.0018152 0 0)
(0.000558969 0.00101922 0 0.00199419 0 0)
(0.000207987 0.000645612 0 0.00214519 0 0)
(2.23577e-05 0.000213213 0 0.00218387 0 0)
(0.0565659 -0.00364319 0 0.0157585 0 0)
(0.021921 0.00475537 0 0.00818708 0 0)
(0.00966898 -0.00241324 0 0.00587941 0 0)
(0.00437925 -0.000792553 0 0.00551191 0 0)
(0.00363888 -0.000921815 0 0.00576718 0 0)
(0.00409246 -0.00192919 0 0.00625787 0 0)
(0.00478753 -0.00289068 0 0.00676671 0 0)
(0.00548682 -0.00370346 0 0.00722999 0 0)
(0.00636265 -0.0044753 0 0.00765776 0 0)
(0.00752226 -0.00527661 0 0.00803308 0 0)
(0.0089812 -0.0061237 0 0.00832558 0 0)
(0.0106958 -0.00698794 0 0.00854255 0 0)
(0.0126337 -0.00782604 0 0.00871656 0 0)
(0.0147864 -0.00860956 0 0.00886347 0 0)