# vtk DataFile Version 2.0
sampleSurface
ASCII
DATASET POLYDATA
POINTS 652 double
0 0 0
0.02 0 0
0.02 0 0.1
0 0 0.1
0.04 0 0
0.04 0 0.1
0.06 0 0
0.06 0 0.1
0.08 0 0
0.08 0 0.1
0.1 0 0
0.1 0 0.1
0.12 0 0
0.12 0 0.1
0.14 0 0
0.14 0 0.1
0.16 0 0
0.16 0 0.1
0.18 0 0
0.18 0 0.1
0.2 0 0
0.2 0 0.1
0.22 0 0
0.22 0 0.1
0.24 0 0
0.24 0 0.1
0.26 0 0
0.26 0 0.1
0.28 0 0
0.28 0 0.1
0.3 0 0
0.3 0 0.1
0.32 0 0
0.32 0 0.1
0.34 0 0
0.34 0 0.1
0.36 0 0
0.36 0 0.1
0.38 0 0
0.38 0 0.1
0.4 0 0
0.4 0 0.1
0.42 0 0
0.42 0 0.1
0.44 0 0
0.44 0 0.1
0.46 0 0
0.46 0 0.1
0.48 0 0
0.48 0 0.1
0.5 0 0
0.5 0 0.1
0.52 0 0
0.52 0 0.1
0.54 0 0
0.54 0 0.1
0.56 0 0
0.56 0 0.1
0.58 0 0
0.58 0 0.1
0.6 0 0
0.6 0 0.1
0.62 0 0
0.62 0 0.1
0.64 0 0
0.64 0 0.1
0.66 0 0
0.66 0 0.1
0.68 0 0
0.68 0 0.1
0.7 0 0
0.7 0 0.1
0.72 0 0
0.72 0 0.1
0.74 0 0
0.74 0 0.1
0.76 0 0
0.76 0 0.1
0.78 0 0
0.78 0 0.1
0.8 0 0
0.8 0 0.1
0.82 0 0
0.82 0 0.1
0.84 0 0
0.84 0 0.1
0.86 0 0
0.86 0 0.1
0.88 0 0
0.88 0 0.1
0.9 0 0
0.9 0 0.1
0.92 0 0
0.92 0 0.1
0.94 0 0
0.94 0 0.1
0.96 0 0
0.96 0 0.1
0.98 0 0
0.98 0 0.1
1 0 0
1 0 0.1
1.02 0 0
1.02 0 0.1
1.04 0 0
1.04 0 0.1
1.06 0 0
1.06 0 0.1
1.08 0 0
1.08 0 0.1
1.1 0 0
1.1 0 0.1
1.12 0 0
1.12 0 0.1
1.14 0 0
1.14 0 0.1
1.16 0 0
1.16 0 0.1
1.18 0 0
1.18 0 0.1
1.2 0 0
1.2 0 0.1
1.22 0 0
1.22 0 0.1
1.24 0 0
1.24 0 0.1
1.26 0 0
1.26 0 0.1
1.28 0 0
1.28 0 0.1
1.3 0 0
1.3 0 0.1
1.32 0 0
1.32 0 0.1
1.34 0 0
1.34 0 0.1
1.36 0 0
1.36 0 0.1
1.38 0 0
1.38 0 0.1
1.4 0 0
1.4 0 0.1
1.42 0 0
1.42 0 0.1
1.44 0 0
1.44 0 0.1
1.46 0 0
1.46 0 0.1
1.48 0 0
1.48 0 0.1
1.5 0 0
1.5 0 0.1
1.52 0 0
1.52 0 0.1
1.54 0 0
1.54 0 0.1
1.56 0 0
1.56 0 0.1
1.58 0 0
1.58 0 0.1
1.6 0 0
1.6 0 0.1
1.62 0 0
1.62 0 0.1
1.64 0 0
1.64 0 0.1
1.66 0 0
1.66 0 0.1
1.68 0 0
1.68 0 0.1
1.7 0 0
1.7 0 0.1
1.72 0 0
1.72 0 0.1
1.74 0 0
1.74 0 0.1
1.76 0 0
1.76 0 0.1
1.78 0 0
1.78 0 0.1
1.8 0 0
1.8 0 0.1
1.82 0 0
1.82 0 0.1
1.84 0 0
1.84 0 0.1
1.86 0 0
1.86 0 0.1
1.88 0 0
1.88 0 0.1
1.9 0 0
1.9 0 0.1
1.92 0 0
1.92 0 0.1
1.94 0 0
1.94 0 0.1
1.96 0 0
1.96 0 0.1
1.98 0 0
1.98 0 0.1
2 0 0
2 0 0.1
2 0.02 0
2 0.02 0.1
2 0.04 0
2 0.04 0.1
2 0.06 0
2 0.06 0.1
2 0.08 0
2 0.08 0.1
2 0.1 0
2 0.1 0.1
2 0.12 0
2 0.12 0.1
2 0.14 0
2 0.14 0.1
2 0.16 0
2 0.16 0.1
2 0.18 0
2 0.18 0.1
2 0.2 0
2 0.2 0.1
2 0.22 0
2 0.22 0.1
2 0.24 0
2 0.24 0.1
2 0.26 0
2 0.26 0.1
2 0.28 0
2 0.28 0.1
2 0.3 0
2 0.3 0.1
2 0.32 0
2 0.32 0.1
2 0.34 0
2 0.34 0.1
2 0.36 0
2 0.36 0.1
2 0.38 0
2 0.38 0.1
2 0.4 0
2 0.4 0.1
2 0.42 0
2 0.42 0.1
2 0.44 0
2 0.44 0.1
2 0.46 0
2 0.46 0.1
2 0.48 0
2 0.48 0.1
2 0.5 0
2 0.5 0.1
2 0.52 0
2 0.52 0.1
2 0.54 0
2 0.54 0.1
2 0.56 0
2 0.56 0.1
2 0.58 0
2 0.58 0.1
2 0.6 0
2 0.6 0.1
2 0.62 0
2 0.62 0.1
2 0.64 0
2 0.64 0.1
2 0.66 0
2 0.66 0.1
2 0.68 0
2 0.68 0.1
2 0.7 0
2 0.7 0.1
2 0.72 0
2 0.72 0.1
2 0.74 0
2 0.74 0.1
2 0.76 0
2 0.76 0.1
2 0.78 0
2 0.78 0.1
2 0.8 0
2 0.8 0.1
2 0.82 0
2 0.82 0.1
2 0.84 0
2 0.84 0.1
2 0.86 0
2 0.86 0.1
2 0.88 0
2 0.88 0.1
2 0.9 0
2 0.9 0.1
2 0.92 0
2 0.92 0.1
2 0.94 0
2 0.94 0.1
2 0.96 0
2 0.96 0.1
2 0.98 0
2 0.98 0.1
2 1 0
2 1 0.1
2.02 1 0
2.02 1 0.1
2.04 1 0
2.04 1 0.1
2.06 1 0
2.06 1 0.1
2.08 1 0
2.08 1 0.1
2.1 1 0
2.1 1 0.1
2.12 1 0
2.12 1 0.1
2.14 1 0
2.14 1 0.1
2.16 1 0
2.16 1 0.1
2.18 1 0
2.18 1 0.1
2.2 1 0
2.2 1 0.1
2.22 1 0
2.22 1 0.1
2.24 1 0
2.24 1 0.1
2.26 1 0
2.26 1 0.1
2.28 1 0
2.28 1 0.1
2.3 1 0
2.3 1 0.1
2.32 1 0
2.32 1 0.1
2.34 1 0
2.34 1 0.1
2.36 1 0
2.36 1 0.1
2.38 1 0
2.38 1 0.1
2.4 1 0
2.4 1 0.1
2.42 1 0
2.42 1 0.1
2.44 1 0
2.44 1 0.1
2.46 1 0
2.46 1 0.1
2.48 1 0
2.48 1 0.1
2.5 1 0
2.5 1 0.1
2.5 0 0
2.5 0 0.1
2.5 0.02 0.1
2.5 0.02 0
2.5 0.04 0.1
2.5 0.04 0
2.5 0.06 0.1
2.5 0.06 0
2.5 0.08 0.1
2.5 0.08 0
2.5 0.1 0.1
2.5 0.1 0
2.5 0.12 0.1
2.5 0.12 0
2.5 0.14 0.1
2.5 0.14 0
2.5 0.16 0.1
2.5 0.16 0
2.5 0.18 0.1
2.5 0.18 0
2.5 0.2 0.1
2.5 0.2 0
2.5 0.22 0.1
2.5 0.22 0
2.5 0.24 0.1
2.5 0.24 0
2.5 0.26 0.1
2.5 0.26 0
2.5 0.28 0.1
2.5 0.28 0
2.5 0.3 0.1
2.5 0.3 0
2.5 0.32 0.1
2.5 0.32 0
2.5 0.34 0.1
2.5 0.34 0
2.5 0.36 0.1
2.5 0.36 0
2.5 0.38 0.1
2.5 0.38 0
2.5 0.4 0.1
2.5 0.4 0
2.5 0.42 0.1
2.5 0.42 0
2.5 0.44 0.1
2.5 0.44 0
2.5 0.46 0.1
2.5 0.46 0
2.5 0.48 0.1
2.5 0.48 0
2.5 0.5 0.1
2.5 0.5 0
2.5 0.52 0.1
2.5 0.52 0
2.5 0.54 0.1
2.5 0.54 0
2.5 0.56 0.1
2.5 0.56 0
2.5 0.58 0.1
2.5 0.58 0
2.5 0.6 0.1
2.5 0.6 0
2.5 0.62 0.1
2.5 0.62 0
2.5 0.64 0.1
2.5 0.64 0
2.5 0.66 0.1
2.5 0.66 0
2.5 0.68 0.1
2.5 0.68 0
2.5 0.7 0.1
2.5 0.7 0
2.5 0.72 0.1
2.5 0.72 0
2.5 0.74 0.1
2.5 0.74 0
2.5 0.76 0.1
2.5 0.76 0
2.5 0.78 0.1
2.5 0.78 0
2.5 0.8 0.1
2.5 0.8 0
2.5 0.82 0.1
2.5 0.82 0
2.5 0.84 0.1
2.5 0.84 0
2.5 0.86 0.1
2.5 0.86 0
2.5 0.88 0.1
2.5 0.88 0
2.5 0.9 0.1
2.5 0.9 0
2.5 0.92 0.1
2.5 0.92 0
2.5 0.94 0.1
2.5 0.94 0
2.5 0.96 0.1
2.5 0.96 0
2.5 0.98 0.1
2.5 0.98 0
2.52 0 0
2.52 0 0.1
2.54 0 0
2.54 0 0.1
2.56 0 0
2.56 0 0.1
2.58 0 0
2.58 0 0.1
2.6 0 0
2.6 0 0.1
2.62 0 0
2.62 0 0.1
2.64 0 0
2.64 0 0.1
2.66 0 0
2.66 0 0.1
2.68 0 0
2.68 0 0.1
2.7 0 0
2.7 0 0.1
2.72 0 0
2.72 0 0.1
2.74 0 0
2.74 0 0.1
2.76 0 0
2.76 0 0.1
2.78 0 0
2.78 0 0.1
2.8 0 0
2.8 0 0.1
2.82 0 0
2.82 0 0.1
2.84 0 0
2.84 0 0.1
2.86 0 0
2.86 0 0.1
2.88 0 0
2.88 0 0.1
2.9 0 0
2.9 0 0.1
2.92 0 0
2.92 0 0.1
2.94 0 0
2.94 0 0.1
2.96 0 0
2.96 0 0.1
2.98 0 0
2.98 0 0.1
3 0 0
3 0 0.1
3.02 0 0
3.02 0 0.1
3.04 0 0
3.04 0 0.1
3.06 0 0
3.06 0 0.1
3.08 0 0
3.08 0 0.1
3.1 0 0
3.1 0 0.1
3.12 0 0
3.12 0 0.1
3.14 0 0
3.14 0 0.1
3.16 0 0
3.16 0 0.1
3.18 0 0
3.18 0 0.1
3.2 0 0
3.2 0 0.1
3.22 0 0
3.22 0 0.1
3.24 0 0
3.24 0 0.1
3.26 0 0
3.26 0 0.1
3.28 0 0
3.28 0 0.1
3.3 0 0
3.3 0 0.1
3.32 0 0
3.32 0 0.1
3.34 0 0
3.34 0 0.1
3.36 0 0
3.36 0 0.1
3.38 0 0
3.38 0 0.1
3.4 0 0
3.4 0 0.1
3.42 0 0
3.42 0 0.1
3.44 0 0
3.44 0 0.1
3.46 0 0
3.46 0 0.1
3.48 0 0
3.48 0 0.1
3.5 0 0
3.5 0 0.1
3.52 0 0
3.52 0 0.1
3.54 0 0
3.54 0 0.1
3.56 0 0
3.56 0 0.1
3.58 0 0
3.58 0 0.1
3.6 0 0
3.6 0 0.1
3.62 0 0
3.62 0 0.1
3.64 0 0
3.64 0 0.1
3.66 0 0
3.66 0 0.1
3.68 0 0
3.68 0 0.1
3.7 0 0
3.7 0 0.1
3.72 0 0
3.72 0 0.1
3.74 0 0
3.74 0 0.1
3.76 0 0
3.76 0 0.1
3.78 0 0
3.78 0 0.1
3.8 0 0
3.8 0 0.1
3.82 0 0
3.82 0 0.1
3.84 0 0
3.84 0 0.1
3.86 0 0
3.86 0 0.1
3.88 0 0
3.88 0 0.1
3.9 0 0
3.9 0 0.1
3.92 0 0
3.92 0 0.1
3.94 0 0
3.94 0 0.1
3.96 0 0
3.96 0 0.1
3.98 0 0
3.98 0 0.1
4 0 0
4 0 0.1
4.02 0 0
4.02 0 0.1
4.04 0 0
4.04 0 0.1
4.06 0 0
4.06 0 0.1
4.08 0 0
4.08 0 0.1
4.1 0 0
4.1 0 0.1
4.12 0 0
4.12 0 0.1
4.14 0 0
4.14 0 0.1
4.16 0 0
4.16 0 0.1
4.18 0 0
4.18 0 0.1
4.2 0 0
4.2 0 0.1
4.22 0 0
4.22 0 0.1
4.24 0 0
4.24 0 0.1
4.26 0 0
4.26 0 0.1
4.28 0 0
4.28 0 0.1
4.3 0 0
4.3 0 0.1
4.32 0 0
4.32 0 0.1
4.34 0 0
4.34 0 0.1
4.36 0 0
4.36 0 0.1
4.38 0 0
4.38 0 0.1
4.4 0 0
4.4 0 0.1
4.42 0 0
4.42 0 0.1
4.44 0 0
4.44 0 0.1
4.46 0 0
4.46 0 0.1
4.48 0 0
4.48 0 0.1
4.5 0 0
4.5 0 0.1

POLYGONS 325 1625
4 0 1 2 3
4 1 4 5 2
4 4 6 7 5
4 6 8 9 7
4 8 10 11 9
4 10 12 13 11
4 12 14 15 13
4 14 16 17 15
4 16 18 19 17
4 18 20 21 19
4 20 22 23 21
4 22 24 25 23
4 24 26 27 25
4 26 28 29 27
4 28 30 31 29
4 30 32 33 31
4 32 34 35 33
4 34 36 37 35
4 36 38 39 37
4 38 40 41 39
4 40 42 43 41
4 42 44 45 43
4 44 46 47 45
4 46 48 49 47
4 48 50 51 49
4 50 52 53 51
4 52 54 55 53
4 54 56 57 55
4 56 58 59 57
4 58 60 61 59
4 60 62 63 61
4 62 64 65 63
4 64 66 67 65
4 66 68 69 67
4 68 70 71 69
4 70 72 73 71
4 72 74 75 73
4 74 76 77 75
4 76 78 79 77
4 78 80 81 79
4 80 82 83 81
4 82 84 85 83
4 84 86 87 85
4 86 88 89 87
4 88 90 91 89
4 90 92 93 91
4 92 94 95 93
4 94 96 97 95
4 96 98 99 97
4 98 100 101 99
4 100 102 103 101
4 102 104 105 103
4 104 106 107 105
4 106 108 109 107
4 108 110 111 109
4 110 112 113 111
4 112 114 115 113
4 114 116 117 115
4 116 118 119 117
4 118 120 121 119
4 120 122 123 121
4 122 124 125 123
4 124 126 127 125
4 126 128 129 127
4 128 130 131 129
4 130 132 133 131
4 132 134 135 133
4 134 136 137 135
4 136 138 139 137
4 138 140 141 139
4 140 142 143 141
4 142 144 145 143
4 144 146 147 145
4 146 148 149 147
4 148 150 151 149
4 150 152 153 151
4 152 154 155 153
4 154 156 157 155
4 156 158 159 157
4 158 160 161 159
4 160 162 163 161
4 162 164 165 163
4 164 166 167 165
4 166 168 169 167
4 168 170 171 169
4 170 172 173 171
4 172 174 175 173
4 174 176 177 175
4 176 178 179 177
4 178 180 181 179
4 180 182 183 181
4 182 184 185 183
4 184 186 187 185
4 186 188 189 187
4 188 190 191 189
4 190 192 193 191
4 192 194 195 193
4 194 196 197 195
4 196 198 199 197
4 198 200 201 199
4 200 202 203 201
4 202 204 205 203
4 204 206 207 205
4 206 208 209 207
4 208 210 211 209
4 210 212 213 211
4 212 214 215 213
4 214 216 217 215
4 216 218 219 217
4 218 220 221 219
4 220 222 223 221
4 222 224 225 223
4 224 226 227 225
4 226 228 229 227
4 228 230 231 229
4 230 232 233 231
4 232 234 235 233
4 234 236 237 235
4 236 238 239 237
4 238 240 241 239
4 240 242 243 241
4 242 244 245 243
4 244 246 247 245
4 246 248 249 247
4 248 250 251 249
4 250 252 253 251
4 252 254 255 253
4 254 256 257 255
4 256 258 259 257
4 258 260 261 259
4 260 262 263 261
4 262 264 265 263
4 264 266 267 265
4 266 268 269 267
4 268 270 271 269
4 270 272 273 271
4 272 274 275 273
4 274 276 277 275
4 276 278 279 277
4 278 280 281 279
4 280 282 283 281
4 282 284 285 283
4 284 286 287 285
4 286 288 289 287
4 288 290 291 289
4 290 292 293 291
4 292 294 295 293
4 294 296 297 295
4 296 298 299 297
4 298 300 301 299
4 300 302 303 301
4 302 304 305 303
4 304 306 307 305
4 306 308 309 307
4 308 310 311 309
4 310 312 313 311
4 312 314 315 313
4 314 316 317 315
4 316 318 319 317
4 318 320 321 319
4 320 322 323 321
4 322 324 325 323
4 324 326 327 325
4 326 328 329 327
4 328 330 331 329
4 330 332 333 331
4 332 334 335 333
4 334 336 337 335
4 336 338 339 337
4 338 340 341 339
4 340 342 343 341
4 342 344 345 343
4 344 346 347 345
4 346 348 349 347
4 348 350 351 349
4 352 353 354 355
4 355 354 356 357
4 357 356 358 359
4 359 358 360 361
4 361 360 362 363
4 363 362 364 365
4 365 364 366 367
4 367 366 368 369
4 369 368 370 371
4 371 370 372 373
4 373 372 374 375
4 375 374 376 377
4 377 376 378 379
4 379 378 380 381
4 381 380 382 383
4 383 382 384 385
4 385 384 386 387
4 387 386 388 389
4 389 388 390 391
4 391 390 392 393
4 393 392 394 395
4 395 394 396 397
4 397 396 398 399
4 399 398 400 401
4 401 400 402 403
4 403 402 404 405
4 405 404 406 407
4 407 406 408 409
4 409 408 410 411
4 411 410 412 413
4 413 412 414 415
4 415 414 416 417
4 417 416 418 419
4 419 418 420 421
4 421 420 422 423
4 423 422 424 425
4 425 424 426 427
4 427 426 428 429
4 429 428 430 431
4 431 430 432 433
4 433 432 434 435
4 435 434 436 437
4 437 436 438 439
4 439 438 440 441
4 441 440 442 443
4 443 442 444 445
4 445 444 446 447
4 447 446 448 449
4 449 448 450 451
4 451 450 351 350
4 352 452 453 353
4 452 454 455 453
4 454 456 457 455
4 456 458 459 457
4 458 460 461 459
4 460 462 463 461
4 462 464 465 463
4 464 466 467 465
4 466 468 469 467
4 468 470 471 469
4 470 472 473 471
4 472 474 475 473
4 474 476 477 475
4 476 478 479 477
4 478 480 481 479
4 480 482 483 481
4 482 484 485 483
4 484 486 487 485
4 486 488 489 487
4 488 490 491 489
4 490 492 493 491
4 492 494 495 493
4 494 496 497 495
4 496 498 499 497
4 498 500 501 499
4 500 502 503 501
4 502 504 505 503
4 504 506 507 505
4 506 508 509 507
4 508 510 511 509
4 510 512 513 511
4 512 514 515 513
4 514 516 517 515
4 516 518 519 517
4 518 520 521 519
4 520 522 523 521
4 522 524 525 523
4 524 526 527 525
4 526 528 529 527
4 528 530 531 529
4 530 532 533 531
4 532 534 535 533
4 534 536 537 535
4 536 538 539 537
4 538 540 541 539
4 540 542 543 541
4 542 544 545 543
4 544 546 547 545
4 546 548 549 547
4 548 550 551 549
4 550 552 553 551
4 552 554 555 553
4 554 556 557 555
4 556 558 559 557
4 558 560 561 559
4 560 562 563 561
4 562 564 565 563
4 564 566 567 565
4 566 568 569 567
4 568 570 571 569
4 570 572 573 571
4 572 574 575 573
4 574 576 577 575
4 576 578 579 577
4 578 580 581 579
4 580 582 583 581
4 582 584 585 583
4 584 586 587 585
4 586 588 589 587
4 588 590 591 589
4 590 592 593 591
4 592 594 595 593
4 594 596 597 595
4 596 598 599 597
4 598 600 601 599
4 600 602 603 601
4 602 604 605 603
4 604 606 607 605
4 606 608 609 607
4 608 610 611 609
4 610 612 613 611
4 612 614 615 613
4 614 616 617 615
4 616 618 619 617
4 618 620 621 619
4 620 622 623 621
4 622 624 625 623
4 624 626 627 625
4 626 628 629 627
4 628 630 631 629
4 630 632 633 631
4 632 634 635 633
4 634 636 637 635
4 636 638 639 637
4 638 640 641 639
4 640 642 643 641
4 642 644 645 643
4 644 646 647 645
4 646 648 649 647
4 648 650 651 649
POINT_DATA 652
FIELD attributes 1
U 3 652 float
2.56184 -0.0180399 0.0511301
1.28143 -0.0090174 0.025565
1.28143 -0.0090174 0.025565
2.56184 -0.0180399 0.0511301
0.00100811 4.83807e-06 0
0.00100811 4.83807e-06 0
0.00100373 5.12374e-06 0
0.00100373 5.12374e-06 0
0.000999268 4.88377e-06 0
0.000999268 4.88377e-06 0
0.000995568 2.3148e-06 0
0.000995568 2.3148e-06 0
0.000993056 -1.03154e-06 0
0.000993056 -1.03154e-06 0
0.000992075 -2.93542e-06 0
0.000992075 -2.93542e-06 0
0.000992162 -2.25735e-06 0
0.000992162 -2.25735e-06 0
0.000991555 2.30286e-07 0
0.000991555 2.30286e-07 0
0.000989156 2.7675e-06 0
0.000989156 2.7675e-06 0
0.000985135 4.19358e-06 0
0.000985135 4.19358e-06 0
0.000979831 4.45384e-06 0
0.000979831 4.45384e-06 0
0.000973668 4.07554e-06 0
0.000973668 4.07554e-06 0
0.000967331 3.57733e-06 0
0.000967331 3.57733e-06 0
0.000961244 3.21557e-06 0
0.000961244 3.21557e-06 0
0.000955328 3.02569e-06 0
0.000955328 3.02569e-06 0
0.000949422 2.9535e-06 0
0.000949422 2.9535e-06 0
0.000943512 2.94121e-06 0
0.000943512 2.94121e-06 0
0.000937606 2.9537e-06 0
0.000937606 2.9537e-06 0
0.000931676 2.97526e-06 0
0.000931676 2.97526e-06 0
0.000925697 3.00033e-06 0
0.000925697 3.00033e-06 0
0.000919669 3.02742e-06 0
0.000919669 3.02742e-06 0
0.000913592 3.05632e-06 0
0.000913592 3.05632e-06 0
0.00090746 3.0871e-06 0
0.00090746 3.0871e-06 0
0.000901269 3.11982e-06 0
0.000901269 3.11982e-06 0
0.000895015 3.15453e-06 0
0.000895015 3.15453e-06 0
0.000888693 3.19125e-06 0
0.000888693 3.19125e-06 0
0.000882301 3.22999e-06 0
0.000882301 3.22999e-06 0
0.000875833 3.27077e-06 0
0.000875833 3.27077e-06 0
0.000869285 3.3136e-06 0
0.000869285 3.3136e-06 0
0.000862654 3.3585e-06 0
0.000862654 3.3585e-06 0
0.000855936 3.40548e-06 0
0.000855936 3.40548e-06 0
0.000849125 3.45454e-06 0
0.000849125 3.45454e-06 0
0.000842219 3.50572e-06 0
0.000842219 3.50572e-06 0
0.000835212 3.55902e-06 0
0.000835212 3.55902e-06 0
0.0008281 3.61447e-06 0
0.0008281 3.61447e-06 0
0.000820879 3.67208e-06 0
0.000820879 3.67208e-06 0
0.000813544 3.73186e-06 0
0.000813544 3.73186e-06 0
0.000806091 3.79385e-06 0
0.000806091 3.79385e-06 0
0.000798516 3.85805e-06 0
0.000798516 3.85805e-06 0
0.000790813 3.92447e-06 0
0.000790813 3.92447e-06 0
0.000782978 3.99314e-06 0
0.000782978 3.99314e-06 0
0.000775007 4.06406e-06 0
0.000775007 4.06406e-06 0
0.000766894 4.13723e-06 0
0.000766894 4.13723e-06 0
0.000758636 4.21266e-06 0
0.000758636 4.21266e-06 0
0.000750226 4.29036e-06 0
0.000750226 4.29036e-06 0
0.000741661 4.37031e-06 0
0.000741661 4.37031e-06 0
0.000732936 4.45252e-06 0
0.000732936 4.45252e-06 0
0.000724045 4.53696e-06 0
0.000724045 4.53696e-06 0
0.000714984 4.62362e-06 0
0.000714984 4.62362e-06 0
0.000705749 4.71247e-06 0
0.000705749 4.71247e-06 0
0.000696334 4.80348e-06 0
0.000696334 4.80348e-06 0
0.000686735 4.89662e-06 0
0.000686735 4.89662e-06 0
0.000676946 4.99184e-06 0
0.000676946 4.99184e-06 0
0.000666965 5.08908e-06 0
0.000666965 5.08908e-06 0
0.000656785 5.18828e-06 0
0.000656785 5.18828e-06 0
0.000646403 5.28938e-06 0
0.000646403 5.28938e-06 0
0.000635814 5.3923e-06 0
0.000635814 5.3923e-06 0
0.000625015 5.49694e-06 0
0.000625015 5.49694e-06 0
0.000614001 5.60323e-06 0
0.000614001 5.60323e-06 0
0.000602768 5.71106e-06 0
0.000602768 5.71106e-06 0
0.000591314 5.82034e-06 0
0.000591314 5.82034e-06 0
0.000579634 5.93097e-06 0
0.000579634 5.93097e-06 0
0.000567725 6.04285e-06 0
0.000567725 6.04285e-06 0
0.000555585 6.15593e-06 0
0.000555585 6.15593e-06 0
0.000543212 6.27012e-06 0
0.000543212 6.27012e-06 0
0.000530603 6.38537e-06 0
0.000530603 6.38537e-06 0
0.000517758 6.50146e-06 0
0.000517758 6.50146e-06 0
0.000504675 6.61764e-06 0
0.000504675 6.61764e-06 0
0.000491353 6.73305e-06 0
0.000491353 6.73305e-06 0
0.000477792 6.8472e-06 0
0.000477792 6.8472e-06 0
0.000463992 6.95982e-06 0
0.000463992 6.95982e-06 0
0.000449954 7.07067e-06 0
0.000449954 7.07067e-06 0
0.000435678 7.17948e-06 0
0.000435678 7.17948e-06 0
0.000421168 7.28599e-06 0
0.000421168 7.28599e-06 0
0.000406425 7.38993e-06 0
0.000406425 7.38993e-06 0
0.000391452 7.49101e-06 0
0.000391452 7.49101e-06 0
0.000376254 7.58897e-06 0
0.000376254 7.58897e-06 0
0.000360835 7.68352e-06 0
0.000360835 7.68352e-06 0
0.0003452 7.77443e-06 0
0.0003452 7.77443e-06 0
0.000329355 7.86145e-06 0
0.000329355 7.86145e-06 0
0.000313306 7.94436e-06 0
0.000313306 7.94436e-06 0
0.000297059 8.02297e-06 0
0.000297059 8.02297e-06 0
0.000280624 8.09712e-06 0
0.000280624 8.09712e-06 0
0.000264007 8.16668e-06 0
0.000264007 8.16668e-06 0
0.000247218 8.23154e-06 0
0.000247218 8.23154e-06 0
0.000230266 8.29164e-06 0
0.000230266 8.29164e-06 0
0.00021316 8.34694e-06 0
0.00021316 8.34694e-06 0
0.000195912 8.39744e-06 0
0.000195912 8.39744e-06 0
0.00017853 8.44316e-06 0
0.00017853 8.44316e-06 0
0.000161028 8.48415e-06 0
0.000161028 8.48415e-06 0
0.000143415 8.52049e-06 0
0.000143415 8.52049e-06 0
0.000125704 8.55227e-06 0
0.000125704 8.55227e-06 0
0.000107906 8.57957e-06 0
0.000107906 8.57957e-06 0
9.00335e-05 8.6025e-06 0
9.00335e-05 8.6025e-06 0
7.20988e-05 8.62116e-06 0
7.20988e-05 8.62116e-06 0
5.41143e-05 8.63549e-06 0
5.41143e-05 8.63549e-06 0
3.60929e-05 8.6454e-06 0
3.60929e-05 8.6454e-06 0
1.80477e-05 8.65032e-06 0
1.80477e-05 8.65032e-06 0
9.02063e-06 8.65138e-06 0
9.02063e-06 8.65138e-06 0
9.36536e-06 1.81271e-05 0
9.36536e-06 1.81271e-05 0
9.59662e-06 3.73736e-05 0
9.59662e-06 3.73736e-05 0
9.46611e-06 5.65238e-05 0
9.46611e-06 5.65238e-05 0
9.4636e-06 7.53729e-05 0
9.4636e-06 7.53729e-05 0
9.49968e-06 9.43515e-05 0
9.49968e-06 9.43515e-05 0
9.54697e-06 0.000113413 0
9.54697e-06 0.000113413 0
9.60293e-06 0.000132574 0
9.60293e-06 0.000132574 0
9.66808e-06 0.000151855 0
9.66808e-06 0.000151855 0
9.74292e-06 0.000171277 0
9.74292e-06 0.000171277 0
9.82787e-06 0.000190858 0
9.82787e-06 0.000190858 0
9.92341e-06 0.000210619 0
9.92341e-06 0.000210619 0
1.00301e-05 0.000230581 0
1.00301e-05 0.000230581 0
1.01486e-05 0.000250769 0
1.01486e-05 0.000250769 0
1.02795e-05 0.000271205 0
1.02795e-05 0.000271205 0
1.04238e-05 0.000291917 0
1.04238e-05 0.000291917 0
1.05823e-05 0.00031293 0
1.05823e-05 0.00031293 0
1.07561e-05 0.000334275 0
1.07561e-05 0.000334275 0
1.09465e-05 0.000355983 0
1.09465e-05 0.000355983 0
1.11547e-05 0.000378089 0
1.11547e-05 0.000378089 0
1.13825e-05 0.00040063 0
1.13825e-05 0.00040063 0
1.16315e-05 0.000423647 0
1.16315e-05 0.000423647 0
1.19039e-05 0.000447184 0
1.19039e-05 0.000447184 0
1.2202e-05 0.000471289 0
1.2202e-05 0.000471289 0
1.25287e-05 0.000496018 0
1.25287e-05 0.000496018 0
1.28871e-05 0.00052143 0
1.28871e-05 0.00052143 0
1.32809e-05 0.000547592 0
1.32809e-05 0.000547592 0
1.3715e-05 0.000574579 0
1.3715e-05 0.000574579 0
1.41931e-05 0.000602474 0
1.41931e-05 0.000602474 0
1.47256e-05 0.000631379 0
1.47256e-05 0.000631379 0
1.53098e-05 0.000661392 0
1.53098e-05 0.000661392 0
1.59735e-05 0.000692651 0
1.59735e-05 0.000692651 0
1.67096e-05 0.000725305 0
1.67096e-05 0.000725305 0
1.74991e-05 0.000759466 0
1.74991e-05 0.000759466 0
1.85713e-05 0.000795506 0
1.85713e-05 0.000795506 0
1.93612e-05 0.00083328 0
1.93612e-05 0.00083328 0
2.0966e-05 0.000873769 0
2.0966e-05 0.000873769 0
2.20518e-05 0.000916183 0
2.20518e-05 0.000916183 0
2.39736e-05 0.000962479 0
2.39736e-05 0.000962479 0
2.54707e-05 0.00101178 0
2.54707e-05 0.00101178 0
2.84704e-05 0.00106503 0
2.84704e-05 0.00106503 0
3.12397e-05 0.00112429 0
3.12397e-05 0.00112429 0
3.48211e-05 0.00119018 0
3.48211e-05 0.00119018 0
3.64141e-05 0.00126085 0
3.64141e-05 0.00126085 0
5.0291e-05 0.00134617 0
5.0291e-05 0.00134617 0
4.95929e-05 0.0014404 0
4.95929e-05 0.0014404 0
7.64474e-05 0.0015602 0
7.64474e-05 0.0015602 0
7.67637e-05 0.0017039 0
7.67637e-05 0.0017039 0
0.000151665 0.00189835 0
0.000151665 0.00189835 0
0.000183736 0.00216953 0
0.000183736 0.00216953 0
0.00025579 0.00149925 0
0.00025579 0.00149925 0
-0.000259819 0.000445789 0
-0.000259819 0.000445789 0
-0.000931825 0.000314882 0
-0.000931825 0.000314882 0
-0.00161078 0.000471258 0
-0.00161078 0.000471258 0
-0.00257979 0.000436794 0
-0.00257979 0.000436794 0
-0.00313062 0.000243269 0
-0.00313062 0.000243269 0
-0.0033193 2.26775e-05 0
-0.0033193 2.26775e-05 0
-0.0030784 -0.000174572 0
-0.0030784 -0.000174572 0
-0.00255897 -0.000317365 0
-0.00255897 -0.000317365 0
-0.00184935 -0.000392905 0
-0.00184935 -0.000392905 0
-0.00107786 -0.000386969 0
-0.00107786 -0.000386969 0
-0.000346661 -0.000316209 0
-0.000346661 -0.000316209 0
0.000233275 -0.00023879 0
0.000233275 -0.00023879 0
0.000675535 -0.000174887 0
0.000675535 -0.000174887 0
0.000981755 -0.000122267 0
0.000981755 -0.000122267 0
0.00120837 -9.01996e-05 0
0.00120837 -9.01996e-05 0
0.00138777 -6.74202e-05 0
0.00138777 -6.74202e-05 0
0.00153721 -5.0323e-05 0
0.00153721 -5.0323e-05 0
0.00165475 -4.03206e-05 0
0.00165475 -4.03206e-05 0
0.00173589 -4.268e-05 0
0.00173589 -4.268e-05 0
0.00178284 -4.72551e-05 0
0.00178284 -4.72551e-05 0
0.00182113 -5.5629e-05 0
0.00182113 -5.5629e-05 0
0.0018638 -5.01084e-05 0
0.0018638 -5.01084e-05 0
0.00192864 -5.3607e-05 0
0.00192864 -5.3607e-05 0
0.00200943 -4.79096e-05 0
0.00200943 -4.79096e-05 0
0.00114162 -4.27298e-05 0
0.00114162 -4.27298e-05 0
6.04476e-06 -6.31443e-06 0
6.04476e-06 -6.31443e-06 0
6.04299e-06 -1.26354e-05 0
6.04299e-06 -1.26354e-05 0
6.03563e-06 -2.52713e-05 0
6.03563e-06 -2.52713e-05 0
6.02123e-06 -3.78904e-05 0
6.02123e-06 -3.78904e-05 0
6.00025e-06 -5.04825e-05 0
6.00025e-06 -5.04825e-05 0
5.9723e-06 -6.30367e-05 0
5.9723e-06 -6.30367e-05 0
5.9368e-06 -7.55415e-05 0
5.9368e-06 -7.55415e-05 0
5.8929e-06 -8.79839e-05 0
5.8929e-06 -8.79839e-05 0
5.83953e-06 -0.000100349 0
5.83953e-06 -0.000100349 0
5.77537e-06 -0.00011262 0
5.77537e-06 -0.00011262 0
5.69886e-06 -0.000124777 0
5.69886e-06 -0.000124777 0
5.60809e-06 -0.000136796 0
5.60809e-06 -0.000136796 0
5.50081e-06 -0.000148652 0
5.50081e-06 -0.000148652 0
5.37435e-06 -0.000160311 0
5.37435e-06 -0.000160311 0
5.22552e-06 -0.000171736 0
5.22552e-06 -0.000171736 0
5.05054e-06 -0.000182882 0
5.05054e-06 -0.000182882 0
4.84495e-06 -0.000193696 0
4.84495e-06 -0.000193696 0
4.60345e-06 -0.000204116 0
4.60345e-06 -0.000204116 0
4.31974e-06 -0.000214065 0
4.31974e-06 -0.000214065 0
3.98634e-06 -0.000223455 0
3.98634e-06 -0.000223455 0
3.59431e-06 -0.000232176 0
3.59431e-06 -0.000232176 0
3.13291e-06 -0.000240099 0
3.13291e-06 -0.000240099 0
2.58903e-06 -0.000247068 0
2.58903e-06 -0.000247068 0
1.94628e-06 -0.000252893 0
1.94628e-06 -0.000252893 0
1.18337e-06 -0.000257342 0
1.18337e-06 -0.000257342 0
2.70549e-07 -0.00026013 0
2.70549e-07 -0.00026013 0
-8.33411e-07 -0.000260904 0
-8.33411e-07 -0.000260904 0
-2.1727e-06 -0.000259207 0
-2.1727e-06 -0.000259207 0
-3.80117e-06 -0.000254477 0
-3.80117e-06 -0.000254477 0
-5.79932e-06 -0.000246013 0
-5.79932e-06 -0.000246013 0
-8.28585e-06 -0.000232919 0
-8.28585e-06 -0.000232919 0
-1.14254e-05 -0.000214019 0
-1.14254e-05 -0.000214019 0
-1.54116e-05 -0.000187786 0
-1.54116e-05 -0.000187786 0
-2.04438e-05 -0.000152468 0
-2.04438e-05 -0.000152468 0
-2.66009e-05 -0.000104478 0
-2.66009e-05 -0.000104478 0
-3.46768e-05 -4.44925e-05 0
-3.46768e-05 -4.44925e-05 0
-4.42382e-05 3.85096e-05 0
-4.42382e-05 3.85096e-05 0
-5.78011e-05 0.000140324 0
-5.78011e-05 0.000140324 0
-7.10549e-05 0.000279934 0
-7.10549e-05 0.000279934 0
-9.43846e-05 0.000442035 0
-9.43846e-05 0.000442035 0
-0.000118257 0.000660418 0
-0.000118257 0.000660418 0
-0.000122852 0.000911489 0
-0.000122852 0.000911489 0
-0.000124914 0.00117762 0
-0.000124914 0.00117762 0
-0.000121395 0.0014671 0
-0.000121395 0.0014671 0
-8.5536e-05 0.0017193 0
-8.5536e-05 0.0017193 0
1.50556e-05 0.00183402 0
1.50556e-05 0.00183402 0
0.000137561 0.00173293 0
0.000137561 0.00173293 0
0.00023492 0.00137797 0
0.00023492 0.00137797 0
0.000276109 0.00088143 0
0.000276109 0.00088143 0
0.000255309 0.000291744 0
0.000255309 0.000291744 0
1.26912e-05 -6.5562e-06 0
1.26912e-05 -6.5562e-06 0
2.61821e-05 -6.71186e-06 0
2.61821e-05 -6.71186e-06 0
3.95734e-05 -6.61249e-06 0
3.95734e-05 -6.61249e-06 0
5.27355e-05 -6.60465e-06 0
5.27355e-05 -6.60465e-06 0
6.59801e-05 -6.61778e-06 0
6.59801e-05 -6.61778e-06 0
7.92524e-05 -6.63385e-06 0
7.92524e-05 -6.63385e-06 0
9.25553e-05 -6.65102e-06 0
9.25553e-05 -6.65102e-06 0
0.000105893 -6.66882e-06 0
0.000105893 -6.66882e-06 0
0.000119267 -6.6866e-06 0
0.000119267 -6.6866e-06 0
0.000132675 -6.70363e-06 0
0.000132675 -6.70363e-06 0
0.000146116 -6.71914e-06 0
0.000146116 -6.71914e-06 0
0.000159586 -6.7324e-06 0
0.000159586 -6.7324e-06 0
0.00017308 -6.7427e-06 0
0.00017308 -6.7427e-06 0
0.000186591 -6.74936e-06 0
0.000186591 -6.74936e-06 0
0.00020011 -6.75177e-06 0
0.00020011 -6.75177e-06 0
0.00021363 -6.74939e-06 0
0.00021363 -6.74939e-06 0
0.00022714 -6.74173e-06 0
0.00022714 -6.74173e-06 0
0.000240629 -6.72842e-06 0
0.000240629 -6.72842e-06 0
0.000254085 -6.70915e-06 0
0.000254085 -6.70915e-06 0
0.000267496 -6.68369e-06 0
0.000267496 -6.68369e-06 0
0.00028085 -6.6519e-06 0
0.00028085 -6.6519e-06 0
0.000294134 -6.61373e-06 0
0.000294134 -6.61373e-06 0
0.000307336 -6.56918e-06 0
0.000307336 -6.56918e-06 0
0.000320441 -6.51836e-06 0
0.000320441 -6.51836e-06 0
0.000333439 -6.46139e-06 0
0.000333439 -6.46139e-06 0
0.000346316 -6.39849e-06 0
0.000346316 -6.39849e-06 0
0.000359062 -6.32992e-06 0
0.000359062 -6.32992e-06 0
0.000371664 -6.25596e-06 0
0.000371664 -6.25596e-06 0
0.000384114 -6.17694e-06 0
0.000384114 -6.17694e-06 0
0.0003964 -6.09321e-06 0
0.0003964 -6.09321e-06 0
0.000408514 -6.00515e-06 0
0.000408514 -6.00515e-06 0
0.000420448 -5.91314e-06 0
0.000420448 -5.91314e-06 0
0.000432193 -5.81756e-06 0
0.000432193 -5.81756e-06 0
0.000443744 -5.71881e-06 0
0.000443744 -5.71881e-06 0
0.000455094 -5.61727e-06 0
0.000455094 -5.61727e-06 0
0.000466239 -5.51333e-06 0
0.000466239 -5.51333e-06 0
0.000477172 -5.40734e-06 0
0.000477172 -5.40734e-06 0
0.000487892 -5.29967e-06 0
0.000487892 -5.29967e-06 0
0.000498395 -5.19065e-06 0
0.000498395 -5.19065e-06 0
0.000508678 -5.08061e-06 0
0.000508678 -5.08061e-06 0
0.00051874 -4.96984e-06 0
0.00051874 -4.96984e-06 0
0.000528579 -4.85863e-06 0
0.000528579 -4.85863e-06 0
0.000538196 -4.74725e-06 0
0.000538196 -4.74725e-06 0
0.000547589 -4.63594e-06 0
0.000547589 -4.63594e-06 0
0.00055676 -4.52492e-06 0
0.00055676 -4.52492e-06 0
0.000565708 -4.41439e-06 0
0.000565708 -4.41439e-06 0
0.000574437 -4.30455e-06 0
0.000574437 -4.30455e-06 0
0.000582945 -4.19554e-06 0
0.000582945 -4.19554e-06 0
0.000591237 -4.08754e-06 0
0.000591237 -4.08754e-06 0
0.000599313 -3.98066e-06 0
0.000599313 -3.98066e-06 0
0.000607177 -3.87502e-06 0
0.000607177 -3.87502e-06 0
0.00061483 -3.77073e-06 0
0.00061483 -3.77073e-06 0
0.000622276 -3.66786e-06 0
0.000622276 -3.66786e-06 0
0.000629517 -3.5665e-06 0
0.000629517 -3.5665e-06 0
0.000636557 -3.4667e-06 0
0.000636557 -3.4667e-06 0
0.000643398 -3.36851e-06 0
0.000643398 -3.36851e-06 0
0.000650045 -3.27198e-06 0
0.000650045 -3.27198e-06 0
0.0006565 -3.17713e-06 0
0.0006565 -3.17713e-06 0
0.000662767 -3.08398e-06 0
0.000662767 -3.08398e-06 0
0.000668849 -2.99255e-06 0
0.000668849 -2.99255e-06 0
0.00067475 -2.90285e-06 0
0.00067475 -2.90285e-06 0
0.000680473 -2.81487e-06 0
0.000680473 -2.81487e-06 0
0.000686021 -2.7286e-06 0
0.000686021 -2.7286e-06 0
0.000691398 -2.64404e-06 0
0.000691398 -2.64404e-06 0
0.000696608 -2.56118e-06 0
0.000696608 -2.56118e-06 0
0.000701654 -2.47998e-06 0
0.000701654 -2.47998e-06 0
0.000706539 -2.40042e-06 0
0.000706539 -2.40042e-06 0
0.000711266 -2.32249e-06 0
0.000711266 -2.32249e-06 0
0.000715838 -2.24614e-06 0
0.000715838 -2.24614e-06 0
0.00072026 -2.17135e-06 0
0.00072026 -2.17135e-06 0
0.000724533 -2.09808e-06 0
0.000724533 -2.09808e-06 0
0.000728661 -2.0263e-06 0
0.000728661 -2.0263e-06 0
0.000732646 -1.95596e-06 0
0.000732646 -1.95596e-06 0
0.000736493 -1.88703e-06 0
0.000736493 -1.88703e-06 0
0.000740203 -1.81947e-06 0
0.000740203 -1.81947e-06 0
0.000743778 -1.75323e-06 0
0.000743778 -1.75323e-06 0
0.000747223 -1.68828e-06 0
0.000747223 -1.68828e-06 0
0.000750539 -1.62456e-06 0
0.000750539 -1.62456e-06 0
0.000753728 -1.56205e-06 0
0.000753728 -1.56205e-06 0
0.000756794 -1.50069e-06 0
0.000756794 -1.50069e-06 0
0.000759737 -1.44044e-06 0
0.000759737 -1.44044e-06 0
0.000762562 -1.38126e-06 0
0.000762562 -1.38126e-06 0
0.000765268 -1.3231e-06 0
0.000765268 -1.3231e-06 0
0.00076786 -1.26591e-06 0
0.00076786 -1.26591e-06 0
0.000770338 -1.20967e-06 0
0.000770338 -1.20967e-06 0
0.000772704 -1.15432e-06 0
0.000772704 -1.15432e-06 0
0.00077496 -1.0998e-06 0
0.00077496 -1.0998e-06 0
0.000777108 -1.04612e-06 0
0.000777108 -1.04612e-06 0
0.000779149 -9.93105e-07 0
0.000779149 -9.93105e-07 0
0.000781085 -9.4104e-07 0
0.000781085 -9.4104e-07 0
0.000782918 -8.89184e-07 0
0.000782918 -8.89184e-07 0
0.000784645 -8.38755e-07 0
0.000784645 -8.38755e-07 0
0.000786279 -7.87737e-07 0
0.000786279 -7.87737e-07 0
0.000787796 -7.38793e-07 0
0.000787796 -7.38793e-07 0
0.000789244 -6.88438e-07 0
0.000789244 -6.88438e-07 0
0.000790543 -6.41269e-07 0
0.000790543 -6.41269e-07 0
0.000791828 -5.89985e-07 0
0.000791828 -5.89985e-07 0
0.000792877 -5.46594e-07 0
0.000792877 -5.46594e-07 0
0.994312 -0.000561311 0
0.994312 -0.000561311 0
1.98783 -0.00112209 0
1.98783 -0.00112209 0
