/*--------------------------------*- C++ -*----------------------------------*\
| =========                 |                                                 |
| \\      /  F ield         | OpenFOAM: The Open Source CFD Toolbox           |
|  \\    /   O peration     | Version:  4.1                                   |
|   \\  /    A nd           | Web:      www.OpenFOAM.org                      |
|    \\/     M anipulation  |                                                 |
\*---------------------------------------------------------------------------*/
FoamFile
{
    version     2.0;
    format      ascii;
    class       volVectorField;
    location    "85";
    object      U;
}
// * * * * * * * * * * * * * * * * * * * * * * * * * * * * * * * * * * * * * //

dimensions      [0 1 -1 0 0 0 0];

internalField   nonuniform List<vector> 
43750
(
(0.00959501 0.000329384 0)
(0.00900838 0.000646808 0)
(0.00825302 0.000686494 0)
(0.00733435 0.000612154 0)
(0.00644262 0.000504818 0)
(0.00567103 0.000389426 0)
(0.00501527 0.000279893 0)
(0.00445601 0.000187221 0)
(0.00398617 0.000116071 0)
(0.00359978 6.53525e-05 0)
(0.00328549 3.14313e-05 0)
(0.00302996 1.02458e-05 0)
(0.00282138 -1.87134e-06 0)
(0.00264995 -7.8873e-06 0)
(0.00250749 -1.0004e-05 0)
(0.00238727 -9.76821e-06 0)
(0.00228399 -8.23716e-06 0)
(0.00219358 -6.11324e-06 0)
(0.00211304 -3.83917e-06 0)
(0.00204016 -1.67704e-06 0)
(0.0019734 2.31028e-07 0)
(0.00191169 1.81967e-06 0)
(0.00185431 3.07033e-06 0)
(0.00180079 3.99139e-06 0)
(0.00175079 4.60668e-06 0)
(0.00170406 4.94996e-06 0)
(0.00166035 5.06322e-06 0)
(0.00161936 4.99644e-06 0)
(0.00158075 4.8063e-06 0)
(0.00154413 4.55341e-06 0)
(0.00150908 4.29732e-06 0)
(0.00147516 4.08898e-06 0)
(0.00144203 3.96274e-06 0)
(0.00140938 3.93032e-06 0)
(0.00137705 3.9794e-06 0)
(0.00134495 4.07813e-06 0)
(0.00131309 4.18464e-06 0)
(0.00128153 4.25871e-06 0)
(0.00125037 4.27181e-06 0)
(0.0012197 4.21265e-06 0)
(0.00118958 4.08757e-06 0)
(0.00116005 3.91643e-06 0)
(0.00113106 3.72604e-06 0)
(0.00110254 3.54297e-06 0)
(0.00107437 3.38788e-06 0)
(0.00104641 3.27251e-06 0)
(0.00101853 3.19937e-06 0)
(0.000990581 3.16354e-06 0)
(0.000962479 3.15542e-06 0)
(0.000934154 3.1637e-06 0)
(0.000905574 3.17772e-06 0)
(0.000876734 3.18897e-06 0)
(0.000847649 3.19161e-06 0)
(0.000818347 3.18226e-06 0)
(0.00078886 3.15931e-06 0)
(0.000759227 3.12224e-06 0)
(0.000729486 3.07105e-06 0)
(0.000699674 3.00589e-06 0)
(0.000669833 2.92689e-06 0)
(0.000640003 2.83413e-06 0)
(0.000610225 2.72762e-06 0)
(0.000580544 2.60732e-06 0)
(0.000551005 2.47315e-06 0)
(0.000521654 2.325e-06 0)
(0.000492539 2.16274e-06 0)
(0.000463713 1.98625e-06 0)
(0.000435226 1.79543e-06 0)
(0.000407133 1.59017e-06 0)
(0.00037949 1.37041e-06 0)
(0.000352353 1.13609e-06 0)
(0.000325782 8.87236e-07 0)
(0.000299835 6.23889e-07 0)
(0.000274573 3.46168e-07 0)
(0.000250056 5.42572e-08 0)
(0.000226344 -2.51574e-07 0)
(0.000203499 -5.70961e-07 0)
(0.000181578 -9.0343e-07 0)
(0.000160639 -1.24838e-06 0)
(0.000140737 -1.60505e-06 0)
(0.000121924 -1.97253e-06 0)
(0.000104247 -2.3497e-06 0)
(8.77503e-05 -2.73522e-06 0)
(7.24694e-05 -3.12752e-06 0)
(5.84349e-05 -3.52473e-06 0)
(4.56683e-05 -3.92466e-06 0)
(3.41818e-05 -4.32482e-06 0)
(2.39763e-05 -4.72233e-06 0)
(1.50406e-05 -5.11398e-06 0)
(7.34886e-06 -5.49657e-06 0)
(8.21585e-07 -5.8673e-06 0)
(-4.55507e-06 -6.1889e-06 0)
(-8.86115e-06 -6.49072e-06 0)
(-1.22829e-05 -6.7349e-06 0)
(-1.50016e-05 -6.89127e-06 0)
(-1.73153e-05 -6.90706e-06 0)
(-1.95793e-05 -6.74689e-06 0)
(-2.19607e-05 -6.53217e-06 0)
(-2.33744e-05 -6.71186e-06 0)
(-2.00989e-05 -7.91121e-06 0)
(-7.89841e-06 -8.37421e-06 0)
(0.0101182 0.000392542 0)
(0.0104668 0.000846358 0)
(0.0107364 0.00102576 0)
(0.0108251 0.00108506 0)
(0.0107507 0.00108562 0)
(0.0105616 0.00103879 0)
(0.0102911 0.000956334 0)
(0.0099637 0.0008548 0)
(0.009603 0.00074774 0)
(0.00922987 0.000643716 0)
(0.00885919 0.000547896 0)
(0.00850028 0.000463192 0)
(0.0081587 0.000390719 0)
(0.00783749 0.000330249 0)
(0.0075379 0.000280747 0)
(0.0072599 0.00024078 0)
(0.00700267 0.000208786 0)
(0.00676503 0.000183243 0)
(0.00654558 0.000162765 0)
(0.00634292 0.000146164 0)
(0.00615569 0.00013247 0)
(0.00598262 0.000120924 0)
(0.00582253 0.000110968 0)
(0.00567434 0.00010222 0)
(0.00553703 9.44516e-05 0)
(0.00540958 8.75615e-05 0)
(0.00529095 8.15397e-05 0)
(0.00518005 7.64239e-05 0)
(0.00507572 7.22544e-05 0)
(0.00497678 6.90333e-05 0)
(0.00488205 6.66969e-05 0)
(0.00479043 6.51081e-05 0)
(0.00470097 6.40718e-05 0)
(0.00461296 6.33678e-05 0)
(0.00452595 6.27906e-05 0)
(0.00443979 6.21842e-05 0)
(0.0043546 6.14608e-05 0)
(0.00427064 6.06002e-05 0)
(0.00418827 5.96326e-05 0)
(0.00410779 5.86168e-05 0)
(0.00402937 5.76206e-05 0)
(0.00395301 5.67101e-05 0)
(0.0038785 5.59448e-05 0)
(0.00380548 5.53732e-05 0)
(0.0037335 5.50284e-05 0)
(0.00366208 5.49215e-05 0)
(0.0035908 5.50388e-05 0)
(0.00351932 5.53436e-05 0)
(0.00344738 5.57837e-05 0)
(0.00337482 5.6302e-05 0)
(0.00330158 5.68471e-05 0)
(0.00322761 5.73792e-05 0)
(0.00315293 5.78719e-05 0)
(0.00307755 5.83106e-05 0)
(0.00300151 5.86882e-05 0)
(0.00292483 5.90015e-05 0)
(0.00284756 5.92488e-05 0)
(0.00276974 5.94286e-05 0)
(0.00269141 5.95387e-05 0)
(0.00261262 5.95765e-05 0)
(0.00253341 5.95391e-05 0)
(0.00245384 5.94231e-05 0)
(0.00237398 5.92249e-05 0)
(0.00229388 5.89409e-05 0)
(0.00221363 5.85672e-05 0)
(0.00213329 5.81002e-05 0)
(0.00205295 5.75363e-05 0)
(0.00197269 5.68718e-05 0)
(0.0018926 5.61037e-05 0)
(0.00181279 5.5229e-05 0)
(0.00173334 5.42454e-05 0)
(0.00165437 5.31509e-05 0)
(0.00157597 5.19442e-05 0)
(0.00149826 5.06249e-05 0)
(0.00142136 4.91932e-05 0)
(0.00134536 4.76505e-05 0)
(0.00127039 4.59992e-05 0)
(0.00119655 4.42429e-05 0)
(0.00112394 4.23867e-05 0)
(0.00105269 4.04372e-05 0)
(0.000982868 3.84024e-05 0)
(0.000914578 3.62924e-05 0)
(0.000847897 3.41192e-05 0)
(0.000782892 3.18967e-05 0)
(0.000719617 2.96413e-05 0)
(0.00065811 2.73717e-05 0)
(0.000598392 2.51092e-05 0)
(0.000540461 2.28781e-05 0)
(0.000484289 2.07061e-05 0)
(0.00042982 1.86256e-05 0)
(0.000376982 1.67137e-05 0)
(0.000325657 1.49787e-05 0)
(0.000275666 1.35252e-05 0)
(0.00022678 1.24706e-05 0)
(0.000178696 1.19386e-05 0)
(0.000131098 1.18004e-05 0)
(8.41259e-05 1.08342e-05 0)
(4.0095e-05 5.5845e-06 0)
(6.30506e-06 -7.88002e-06 0)
(-4.82872e-06 -1.94044e-05 0)
(0.0100098 0.000122747 0)
(0.0101315 0.000351673 0)
(0.0103506 0.000535563 0)
(0.0105964 0.000681063 0)
(0.0108186 0.000792007 0)
(0.0109972 0.000862037 0)
(0.0111214 0.000890776 0)
(0.0111847 0.000886343 0)
(0.0111886 0.000858806 0)
(0.0111401 0.000816556 0)
(0.0110486 0.000766107 0)
(0.0109232 0.000712438 0)
(0.0107723 0.000659063 0)
(0.010603 0.000608152 0)
(0.0104214 0.000560837 0)
(0.0102323 0.000517548 0)
(0.0100394 0.000478276 0)
(0.00984546 0.000442752 0)
(0.00965276 0.000410574 0)
(0.00946288 0.000381302 0)
(0.00927699 0.000354522 0)
(0.00909595 0.000329882 0)
(0.00892031 0.000307112 0)
(0.00875044 0.000286039 0)
(0.00858649 0.000266594 0)
(0.00842845 0.000248803 0)
(0.00827615 0.000232775 0)
(0.00812929 0.00021867 0)
(0.00798744 0.000206653 0)
(0.00785004 0.000196838 0)
(0.00771643 0.000189235 0)
(0.00758588 0.000183703 0)
(0.00745758 0.000179936 0)
(0.00733074 0.000177471 0)
(0.00720463 0.000175735 0)
(0.00707872 0.000174133 0)
(0.00695278 0.000172146 0)
(0.00682691 0.000169434 0)
(0.00670163 0.000165906 0)
(0.00657775 0.000161727 0)
(0.00645625 0.000157263 0)
(0.00633799 0.00015297 0)
(0.00622356 0.000149275 0)
(0.00611309 0.000146475 0)
(0.00600621 0.000144697 0)
(0.00590219 0.000143906 0)
(0.00580012 0.000143951 0)
(0.00569906 0.000144626 0)
(0.00559826 0.00014572 0)
(0.00549715 0.000147052 0)
(0.0053954 0.000148487 0)
(0.00529283 0.000149938 0)
(0.00518934 0.000151351 0)
(0.00508491 0.000152702 0)
(0.00497951 0.000153978 0)
(0.00487313 0.000155171 0)
(0.00476576 0.000156277 0)
(0.00465739 0.000157289 0)
(0.00454803 0.000158202 0)
(0.00443766 0.000159006 0)
(0.00432632 0.000159694 0)
(0.00421401 0.000160255 0)
(0.00410077 0.000160681 0)
(0.00398663 0.00016096 0)
(0.00387164 0.000161083 0)
(0.00375584 0.00016104 0)
(0.00363929 0.000160819 0)
(0.00352206 0.000160412 0)
(0.00340421 0.000159809 0)
(0.00328583 0.000159001 0)
(0.00316701 0.00015798 0)
(0.00304782 0.000156739 0)
(0.00292839 0.000155272 0)
(0.0028088 0.000153575 0)
(0.00268916 0.000151646 0)
(0.0025696 0.000149485 0)
(0.00245023 0.000147092 0)
(0.00233116 0.000144474 0)
(0.00221251 0.000141637 0)
(0.0020944 0.000138593 0)
(0.00197695 0.000135355 0)
(0.00186026 0.000131942 0)
(0.00174444 0.000128377 0)
(0.00162958 0.000124685 0)
(0.00151576 0.000120898 0)
(0.00140306 0.000117053 0)
(0.00129152 0.00011319 0)
(0.00118119 0.000109358 0)
(0.00107207 0.000105612 0)
(0.000964151 0.000102015 0)
(0.000857405 9.86501e-05 0)
(0.000751767 9.5599e-05 0)
(0.00064714 9.2986e-05 0)
(0.000543406 9.09625e-05 0)
(0.000440432 8.96293e-05 0)
(0.000338123 8.85698e-05 0)
(0.000236756 8.52789e-05 0)
(0.000138687 7.24064e-05 0)
(5.37615e-05 3.90736e-05 0)
(1.78184e-06 -6.18863e-06 0)
(0.0100081 0.000107421 0)
(0.010067 0.000305768 0)
(0.0101721 0.000461084 0)
(0.0103033 0.000571855 0)
(0.010444 0.000651266 0)
(0.0105888 0.000707413 0)
(0.0107324 0.000743175 0)
(0.0108657 0.000761501 0)
(0.0109802 0.000766005 0)
(0.0110711 0.000759885 0)
(0.0111363 0.000745776 0)
(0.011176 0.000726017 0)
(0.0111913 0.000702658 0)
(0.0111842 0.000677326 0)
(0.0111571 0.00065119 0)
(0.0111128 0.000625026 0)
(0.0110535 0.000599294 0)
(0.0109815 0.000574225 0)
(0.0108988 0.000549895 0)
(0.0108072 0.000526291 0)
(0.010708 0.000503367 0)
(0.0106027 0.000481083 0)
(0.0104923 0.000459443 0)
(0.0103777 0.000438513 0)
(0.0102598 0.000418436 0)
(0.0101393 0.000399429 0)
(0.0100167 0.000381773 0)
(0.00989242 0.00036578 0)
(0.00976697 0.000351756 0)
(0.00964057 0.000339952 0)
(0.00951341 0.000330515 0)
(0.00938554 0.000323459 0)
(0.00925688 0.000318632 0)
(0.00912717 0.000315717 0)
(0.00899599 0.00031423 0)
(0.0088628 0.000313541 0)
(0.00872699 0.000312912 0)
(0.00858805 0.000311571 0)
(0.00844581 0.000308837 0)
(0.00830062 0.000304269 0)
(0.00815354 0.000297818 0)
(0.00800622 0.000289891 0)
(0.00786066 0.000281293 0)
(0.00771873 0.000273028 0)
(0.00758172 0.000266028 0)
(0.0074501 0.000260926 0)
(0.00732346 0.000257933 0)
(0.00720078 0.000256872 0)
(0.00708078 0.000257318 0)
(0.00696221 0.000258768 0)
(0.00684411 0.000260782 0)
(0.00672582 0.000263053 0)
(0.00660696 0.000265402 0)
(0.00648732 0.000267752 0)
(0.00636676 0.000270074 0)
(0.0062452 0.000272359 0)
(0.00612255 0.000274599 0)
(0.00599873 0.000276782 0)
(0.00587367 0.000278892 0)
(0.00574732 0.000280914 0)
(0.00561963 0.000282829 0)
(0.00549056 0.00028462 0)
(0.00536008 0.00028627 0)
(0.00522819 0.000287759 0)
(0.00509485 0.00028907 0)
(0.00496009 0.000290184 0)
(0.00482389 0.000291083 0)
(0.00468628 0.000291748 0)
(0.00454729 0.000292162 0)
(0.00440694 0.000292309 0)
(0.00426527 0.000292172 0)
(0.00412234 0.000291737 0)
(0.0039782 0.000290991 0)
(0.00383292 0.000289922 0)
(0.00368656 0.000288523 0)
(0.00353922 0.000286787 0)
(0.00339097 0.000284713 0)
(0.00324191 0.000282301 0)
(0.00309213 0.000279558 0)
(0.00294173 0.000276493 0)
(0.00279082 0.000273121 0)
(0.0026395 0.000269465 0)
(0.00248788 0.000265551 0)
(0.00233605 0.000261413 0)
(0.00218411 0.000257092 0)
(0.00203216 0.000252635 0)
(0.00188027 0.000248098 0)
(0.00172852 0.000243545 0)
(0.00157697 0.00023905 0)
(0.00142567 0.000234697 0)
(0.00127465 0.000230582 0)
(0.00112394 0.000226818 0)
(0.00097354 0.000223538 0)
(0.000823479 0.000220892 0)
(0.00067379 0.000218929 0)
(0.000524565 0.000216974 0)
(0.000376134 0.000211338 0)
(0.000230585 0.000190508 0)
(9.92966e-05 0.000133584 0)
(8.50185e-06 3.49792e-05 0)
(0.0100043 8.05355e-05 0)
(0.0100397 0.000231978 0)
(0.0101062 0.000359647 0)
(0.0101918 0.000458632 0)
(0.0102837 0.000533321 0)
(0.0103766 0.000588531 0)
(0.0104695 0.000626774 0)
(0.0105603 0.000650506 0)
(0.0106461 0.000662938 0)
(0.0107249 0.00066714 0)
(0.0107953 0.000665487 0)
(0.0108564 0.000659769 0)
(0.0109075 0.000651367 0)
(0.0109482 0.000641305 0)
(0.0109785 0.000630275 0)
(0.0109984 0.000618698 0)
(0.0110083 0.0006068 0)
(0.0110084 0.000594675 0)
(0.0109992 0.00058234 0)
(0.010981 0.000569773 0)
(0.0109542 0.00055695 0)
(0.010919 0.000543876 0)
(0.010876 0.000530605 0)
(0.0108255 0.000517256 0)
(0.0107677 0.000504018 0)
(0.0107033 0.000491153 0)
(0.0106324 0.000478973 0)
(0.0105557 0.000467828 0)
(0.0104735 0.000458065 0)
(0.0103863 0.000449994 0)
(0.0102946 0.000443852 0)
(0.0101987 0.000439771 0)
(0.010099 0.000437763 0)
(0.00999542 0.000437715 0)
(0.00988804 0.000439387 0)
(0.00977644 0.000442398 0)
(0.00965996 0.000446194 0)
(0.00953771 0.000450006 0)
(0.00940873 0.000452859 0)
(0.00927237 0.000453669 0)
(0.00912864 0.000451483 0)
(0.00897857 0.000445797 0)
(0.00882426 0.000436812 0)
(0.00866857 0.000425505 0)
(0.00851449 0.000413414 0)
(0.0083645 0.000402211 0)
(0.00822001 0.000393241 0)
(0.00808124 0.000387207 0)
(0.00794746 0.000384126 0)
(0.00781736 0.000383501 0)
(0.00768956 0.000384616 0)
(0.0075629 0.000386793 0)
(0.00743655 0.000389539 0)
(0.00730999 0.000392566 0)
(0.00718287 0.00039574 0)
(0.007055 0.00039901 0)
(0.00692619 0.000402353 0)
(0.00679629 0.000405749 0)
(0.00666518 0.000409172 0)
(0.00653273 0.000412591 0)
(0.00639883 0.000415977 0)
(0.00626339 0.000419301 0)
(0.00612633 0.000422535 0)
(0.00598758 0.000425652 0)
(0.00584707 0.000428624 0)
(0.00570476 0.000431423 0)
(0.0055606 0.000434024 0)
(0.00541455 0.000436398 0)
(0.00526659 0.000438521 0)
(0.00511669 0.000440366 0)
(0.00496485 0.00044191 0)
(0.00481107 0.000443128 0)
(0.00465534 0.000443999 0)
(0.00449768 0.000444505 0)
(0.00433813 0.000444627 0)
(0.00417669 0.000444353 0)
(0.00401343 0.000443672 0)
(0.00384838 0.000442578 0)
(0.0036816 0.000441071 0)
(0.00351316 0.000439155 0)
(0.00334312 0.000436842 0)
(0.00317157 0.000434148 0)
(0.00299858 0.000431099 0)
(0.00282425 0.000427728 0)
(0.00264866 0.000424076 0)
(0.0024719 0.000420194 0)
(0.00229408 0.000416142 0)
(0.00211529 0.000411989 0)
(0.00193563 0.000407815 0)
(0.00175517 0.000403712 0)
(0.00157403 0.000399781 0)
(0.0013923 0.000396137 0)
(0.00121008 0.000392906 0)
(0.00102749 0.000390213 0)
(0.000844692 0.000388049 0)
(0.000661905 0.000385512 0)
(0.000479505 0.000377821 0)
(0.000299372 0.000349042 0)
(0.000133983 0.000265772 0)
(1.39743e-05 9.92846e-05 0)
(0.0100027 6.34741e-05 0)
(0.0100258 0.000185812 0)
(0.010072 0.000294981 0)
(0.0101346 0.00038562 0)
(0.0102042 0.000457735 0)
(0.0102745 0.000513377 0)
(0.010343 0.000554268 0)
(0.0104083 0.000582212 0)
(0.0104687 0.000599622 0)
(0.0105233 0.000609077 0)
(0.0105721 0.000612801 0)
(0.0106151 0.00061255 0)
(0.0106527 0.000609697 0)
(0.010685 0.000605273 0)
(0.0107122 0.000599997 0)
(0.0107345 0.000594319 0)
(0.010752 0.000588488 0)
(0.0107647 0.000582618 0)
(0.0107724 0.000576729 0)
(0.0107752 0.000570798 0)
(0.0107728 0.000564786 0)
(0.010765 0.00055867 0)
(0.0107517 0.00055246 0)
(0.0107327 0.00054622 0)
(0.0107078 0.000540072 0)
(0.0106771 0.000534196 0)
(0.0106405 0.000528825 0)
(0.010598 0.000524228 0)
(0.0105498 0.000520685 0)
(0.0104961 0.000518463 0)
(0.0104372 0.000517787 0)
(0.0103734 0.00051882 0)
(0.0103048 0.00052166 0)
(0.0102317 0.000526344 0)
(0.010154 0.000532867 0)
(0.0100716 0.000541171 0)
(0.00998365 0.000551068 0)
(0.00988931 0.000562105 0)
(0.00978715 0.000573399 0)
(0.00967572 0.000583571 0)
(0.0095539 0.000590884 0)
(0.00942145 0.000593665 0)
(0.00927942 0.000590861 0)
(0.00913019 0.000582528 0)
(0.00897711 0.000569956 0)
(0.00882372 0.000555347 0)
(0.008673 0.000541161 0)
(0.00852677 0.000529405 0)
(0.00838558 0.000521182 0)
(0.00824892 0.00051663 0)
(0.00811572 0.000515186 0)
(0.00798476 0.000515992 0)
(0.007855 0.000518237 0)
(0.00772567 0.00052134 0)
(0.00759624 0.000524959 0)
(0.00746638 0.000528929 0)
(0.00733582 0.000533173 0)
(0.00720434 0.000537644 0)
(0.00707178 0.000542299 0)
(0.00693795 0.000547092 0)
(0.00680271 0.000551977 0)
(0.00666593 0.000556912 0)
(0.00652749 0.000561857 0)
(0.00638728 0.000566773 0)
(0.0062452 0.000571623 0)
(0.00610116 0.000576373 0)
(0.00595507 0.000580987 0)
(0.00580687 0.000585429 0)
(0.00565649 0.000589666 0)
(0.00550387 0.000593665 0)
(0.00534895 0.000597394 0)
(0.0051917 0.000600819 0)
(0.00503206 0.000603913 0)
(0.00487002 0.000606646 0)
(0.00470555 0.000608994 0)
(0.00453864 0.000610934 0)
(0.00436928 0.000612447 0)
(0.00419748 0.000613517 0)
(0.00402326 0.000614136 0)
(0.00384662 0.000614298 0)
(0.00366761 0.000614007 0)
(0.00348628 0.000613271 0)
(0.00330266 0.000612107 0)
(0.00311682 0.00061054 0)
(0.00292884 0.000608607 0)
(0.00273879 0.00060635 0)
(0.00254677 0.000603823 0)
(0.00235287 0.000601093 0)
(0.00215719 0.000598233 0)
(0.00195987 0.000595328 0)
(0.00176102 0.000592473 0)
(0.0015608 0.000589771 0)
(0.00135935 0.000587329 0)
(0.00115688 0.000585239 0)
(0.000953609 0.000583433 0)
(0.00074981 0.000580807 0)
(0.000545924 0.000571493 0)
(0.000343743 0.000534872 0)
(0.00015649 0.000423393 0)
(1.75992e-05 0.000179338 0)
(0.0100019 5.25012e-05 0)
(0.0100182 0.000154939 0)
(0.0100513 0.000249229 0)
(0.0100977 0.000330799 0)
(0.010151 0.000398367 0)
(0.0102064 0.000452769 0)
(0.0102612 0.000495228 0)
(0.0103137 0.000527008 0)
(0.0103622 0.000549661 0)
(0.0104057 0.000564949 0)
(0.0104436 0.000574547 0)
(0.010476 0.00057989 0)
(0.0105031 0.000582178 0)
(0.0105252 0.000582387 0)
(0.0105429 0.000581271 0)
(0.0105564 0.000579375 0)
(0.0105661 0.000577073 0)
(0.0105724 0.000574603 0)
(0.0105754 0.000572107 0)
(0.0105751 0.00056966 0)
(0.0105716 0.000567306 0)
(0.0105647 0.000565074 0)
(0.0105543 0.000563004 0)
(0.0105404 0.000561163 0)
(0.0105226 0.000559646 0)
(0.0105008 0.00055859 0)
(0.0104749 0.000558163 0)
(0.0104448 0.000558559 0)
(0.0104105 0.000559986 0)
(0.0103721 0.000562643 0)
(0.0103295 0.00056671 0)
(0.0102828 0.000572329 0)
(0.0102323 0.00057962 0)
(0.010178 0.000588704 0)
(0.0101198 0.000599744 0)
(0.0100576 0.000612962 0)
(0.00999089 0.000628563 0)
(0.00991861 0.000646539 0)
(0.00983942 0.000666361 0)
(0.00975155 0.000686708 0)
(0.00965328 0.000705422 0)
(0.0095434 0.000719858 0)
(0.00942177 0.000727616 0)
(0.00928963 0.000727388 0)
(0.00914953 0.00071953 0)
(0.0090048 0.000706057 0)
(0.00885883 0.000690014 0)
(0.00871433 0.000674521 0)
(0.00857291 0.000661917 0)
(0.00843505 0.000653331 0)
(0.0083004 0.000648764 0)
(0.00816816 0.000647508 0)
(0.00803745 0.000648631 0)
(0.00790749 0.000651322 0)
(0.00777772 0.000655029 0)
(0.00764771 0.000659439 0)
(0.00751715 0.000664388 0)
(0.00738581 0.000669785 0)
(0.00725347 0.000675558 0)
(0.00711994 0.000681643 0)
(0.00698505 0.000687976 0)
(0.00684866 0.000694499 0)
(0.00671062 0.000701159 0)
(0.00657081 0.000707908 0)
(0.00642911 0.0007147 0)
(0.0062854 0.00072149 0)
(0.00613959 0.000728235 0)
(0.00599158 0.000734895 0)
(0.00584127 0.000741428 0)
(0.0056886 0.000747794 0)
(0.00553348 0.000753955 0)
(0.00537583 0.000759871 0)
(0.0052156 0.000765506 0)
(0.00505273 0.000770825 0)
(0.00488716 0.000775794 0)
(0.00471885 0.000780383 0)
(0.00454776 0.000784564 0)
(0.00437387 0.000788313 0)
(0.00419715 0.000791612 0)
(0.0040176 0.000794444 0)
(0.00383522 0.000796803 0)
(0.00365001 0.000798685 0)
(0.003462 0.000800098 0)
(0.00327124 0.000801055 0)
(0.00307775 0.000801579 0)
(0.00288162 0.000801702 0)
(0.0026829 0.000801464 0)
(0.0024817 0.000800919 0)
(0.00227812 0.000800126 0)
(0.00207229 0.000799155 0)
(0.00186434 0.000798083 0)
(0.00165444 0.000796993 0)
(0.00144278 0.000795966 0)
(0.00122959 0.000795061 0)
(0.0010151 0.000794157 0)
(0.000799627 0.000791952 0)
(0.000583653 0.000781458 0)
(0.000368967 0.000737129 0)
(0.000169268 0.000596297 0)
(1.9631e-05 0.000269081 0)
(0.0100014 4.47264e-05 0)
(0.0100133 0.000132448 0)
(0.0100375 0.000214693 0)
(0.0100723 0.000288053 0)
(0.0101132 0.000351051 0)
(0.0101569 0.000403795 0)
(0.010201 0.000446947 0)
(0.0102438 0.000481312 0)
(0.0102839 0.000507905 0)
(0.0103203 0.00052794 0)
(0.0103522 0.000542663 0)
(0.0103793 0.000553208 0)
(0.0104017 0.000560558 0)
(0.0104194 0.000565545 0)
(0.0104326 0.000568847 0)
(0.0104417 0.000570996 0)
(0.0104469 0.00057239 0)
(0.0104485 0.000573322 0)
(0.0104468 0.000574002 0)
(0.0104419 0.000574585 0)
(0.010434 0.000575186 0)
(0.010423 0.000575902 0)
(0.0104091 0.000576827 0)
(0.0103923 0.000578064 0)
(0.0103724 0.000579728 0)
(0.0103494 0.000581957 0)
(0.0103234 0.000584902 0)
(0.0102942 0.00058873 0)
(0.0102618 0.000593613 0)
(0.0102264 0.000599713 0)
(0.0101878 0.000607178 0)
(0.0101463 0.000616133 0)
(0.0101018 0.000626703 0)
(0.0100544 0.000639057 0)
(0.0100041 0.000653481 0)
(0.00995077 0.000670418 0)
(0.00989394 0.000690415 0)
(0.00983285 0.000713894 0)
(0.00976628 0.000740756 0)
(0.00969264 0.000769933 0)
(0.00961018 0.000799159 0)
(0.00951737 0.000825184 0)
(0.00941339 0.000844534 0)
(0.00929847 0.000854598 0)
(0.00917408 0.000854578 0)
(0.00904267 0.000845836 0)
(0.00890711 0.000831452 0)
(0.00877009 0.000815191 0)
(0.00863361 0.000800365 0)
(0.0084988 0.000789074 0)
(0.00836596 0.000782038 0)
(0.00823484 0.000778928 0)
(0.00810492 0.000778905 0)
(0.00797564 0.000781078 0)
(0.00784652 0.000784759 0)
(0.00771716 0.000789514 0)
(0.00758726 0.000795094 0)
(0.00745658 0.000801356 0)
(0.00732491 0.000808198 0)
(0.00719206 0.000815534 0)
(0.00705786 0.000823283 0)
(0.00692215 0.000831373 0)
(0.0067848 0.000839738 0)
(0.00664567 0.00084832 0)
(0.00650464 0.000857063 0)
(0.00636158 0.000865916 0)
(0.0062164 0.00087483 0)
(0.00606899 0.000883758 0)
(0.00591925 0.000892652 0)
(0.00576708 0.000901467 0)
(0.0056124 0.000910159 0)
(0.00545513 0.000918683 0)
(0.00529518 0.000926998 0)
(0.00513249 0.000935061 0)
(0.00496698 0.000942834 0)
(0.0047986 0.000950278 0)
(0.0046273 0.000957358 0)
(0.00445302 0.000964041 0)
(0.00427573 0.000970301 0)
(0.0040954 0.000976112 0)
(0.00391201 0.000981455 0)
(0.00372555 0.000986317 0)
(0.00353603 0.000990691 0)
(0.00334347 0.000994579 0)
(0.00314789 0.000997987 0)
(0.00294934 0.00100093 0)
(0.00274788 0.00100344 0)
(0.00254361 0.00100555 0)
(0.00233661 0.00100729 0)
(0.00212701 0.00100872 0)
(0.00191495 0.00100989 0)
(0.00170061 0.00101086 0)
(0.00148417 0.00101168 0)
(0.00126586 0.00101238 0)
(0.00104594 0.0010128 0)
(0.000824712 0.00101142 0)
(0.000602694 0.00100009 0)
(0.000381699 0.000948175 0)
(0.000175681 0.000777342 0)
(2.06106e-05 0.00036405 0)
(0.010001 3.90175e-05 0)
(0.0100099 0.000115812 0)
(0.010028 0.000188779 0)
(0.0100544 0.000255408 0)
(0.0100861 0.000314319 0)
(0.0101206 0.000365212 0)
(0.0101559 0.000408343 0)
(0.0101906 0.000444197 0)
(0.0102236 0.000473459 0)
(0.0102538 0.000496988 0)
(0.0102806 0.000515715 0)
(0.0103036 0.000530531 0)
(0.0103225 0.000542233 0)
(0.0103374 0.000551517 0)
(0.0103483 0.000558971 0)
(0.0103554 0.000565076 0)
(0.0103587 0.000570214 0)
(0.0103585 0.000574685 0)
(0.0103549 0.000578721 0)
(0.010348 0.000582506 0)
(0.010338 0.000586192 0)
(0.010325 0.00058991 0)
(0.010309 0.000593786 0)
(0.01029 0.000597942 0)
(0.0102681 0.000602512 0)
(0.0102434 0.000607635 0)
(0.0102158 0.00061346 0)
(0.0101853 0.000620144 0)
(0.0101521 0.000627843 0)
(0.0101161 0.000636705 0)
(0.0100776 0.000646862 0)
(0.0100364 0.000658433 0)
(0.00999279 0.000671553 0)
(0.00994676 0.000686436 0)
(0.00989832 0.000703465 0)
(0.00984733 0.000723266 0)
(0.00979346 0.000746662 0)
(0.00973608 0.000774426 0)
(0.00967423 0.000806826 0)
(0.00960662 0.000843071 0)
(0.00953183 0.000880933 0)
(0.00944849 0.000916848 0)
(0.00935565 0.000946644 0)
(0.00925309 0.000966733 0)
(0.00914147 0.000975308 0)
(0.0090223 0.000972976 0)
(0.00889764 0.000962532 0)
(0.00876965 0.000947956 0)
(0.00864019 0.000933151 0)
(0.00851055 0.000920941 0)
(0.0083814 0.000912697 0)
(0.00825292 0.00090853 0)
(0.00812494 0.00090782 0)
(0.00799718 0.000909726 0)
(0.0078693 0.000913522 0)
(0.007741 0.00091871 0)
(0.00761205 0.000924983 0)
(0.00748221 0.000932157 0)
(0.00735131 0.000940105 0)
(0.00721917 0.00094872 0)
(0.00708563 0.000957908 0)
(0.00695054 0.000967585 0)
(0.00681378 0.000977673 0)
(0.00667519 0.000988105 0)
(0.00653468 0.000998819 0)
(0.00639211 0.00100976 0)
(0.00624739 0.00102086 0)
(0.0061004 0.00103209 0)
(0.00595105 0.00104337 0)
(0.00579925 0.00105467 0)
(0.00564489 0.00106594 0)
(0.00548789 0.00107712 0)
(0.00532818 0.00108818 0)
(0.00516567 0.00109905 0)
(0.00500029 0.0011097 0)
(0.00483198 0.00112009 0)
(0.00466068 0.00113016 0)
(0.00448633 0.00113989 0)
(0.00430889 0.00114923 0)
(0.00412832 0.00115815 0)
(0.00394459 0.00116663 0)
(0.0037577 0.00117463 0)
(0.00356763 0.00118214 0)
(0.00337439 0.00118915 0)
(0.00317801 0.00119564 0)
(0.00297853 0.00120162 0)
(0.002776 0.00120709 0)
(0.0025705 0.00121208 0)
(0.00236212 0.00121659 0)
(0.00215099 0.00122066 0)
(0.00193724 0.00122431 0)
(0.00172105 0.00122757 0)
(0.0015026 0.00123048 0)
(0.00128213 0.00123303 0)
(0.00105985 0.00123502 0)
(0.00083609 0.00123473 0)
(0.000611381 0.0012228 0)
(0.00038755 0.00116337 0)
(0.000178629 0.000962229 0)
(2.10333e-05 0.000461523 0)
(0.0100008 3.47438e-05 0)
(0.0100075 0.000103307 0)
(0.0100213 0.000169087 0)
(0.0100415 0.00023021 0)
(0.0100662 0.000285486 0)
(0.0100934 0.000334471 0)
(0.0101217 0.000377182 0)
(0.0101498 0.000413887 0)
(0.0101767 0.000445032 0)
(0.0102016 0.000471219 0)
(0.0102238 0.000493127 0)
(0.0102429 0.000511444 0)
(0.0102587 0.000526813 0)
(0.010271 0.000539812 0)
(0.0102799 0.00055095 0)
(0.0102853 0.000560656 0)
(0.0102873 0.000569289 0)
(0.0102859 0.00057714 0)
(0.0102814 0.000584449 0)
(0.0102737 0.00059141 0)
(0.010263 0.000598192 0)
(0.0102493 0.000604942 0)
(0.0102326 0.000611796 0)
(0.0102131 0.000618888 0)
(0.0101906 0.000626354 0)
(0.0101653 0.000634331 0)
(0.0101373 0.000642962 0)
(0.0101064 0.000652394 0)
(0.0100729 0.000662771 0)
(0.0100368 0.000674231 0)
(0.00999817 0.000686897 0)
(0.00995708 0.000700885 0)
(0.00991362 0.000716342 0)
(0.00986788 0.000733524 0)
(0.00981985 0.00075291 0)
(0.0097694 0.000775286 0)
(0.00971624 0.000801701 0)
(0.0096598 0.000833201 0)
(0.00959929 0.000870322 0)
(0.0095337 0.000912466 0)
(0.00946191 0.000957445 0)
(0.00938291 0.00100151 0)
(0.00929594 0.00104006 0)
(0.00920072 0.00106888 0)
(0.00909757 0.00108542 0)
(0.00898737 0.00108969 0)
(0.0088715 0.00108411 0)
(0.0087515 0.00107264 0)
(0.00862884 0.00105947 0)
(0.00850469 0.00104786 0)
(0.00837982 0.00103967 0)
(0.00825462 0.00103538 0)
(0.00812916 0.00103464 0)
(0.00800338 0.00103672 0)
(0.00787711 0.00104093 0)
(0.00775015 0.00104677 0)
(0.00762233 0.00105389 0)
(0.00749347 0.0010621 0)
(0.00736341 0.00107125 0)
(0.00723201 0.00108123 0)
(0.00709913 0.00109192 0)
(0.00696462 0.00110325 0)
(0.00682836 0.00111511 0)
(0.00669023 0.00112744 0)
(0.00655011 0.00114016 0)
(0.00640789 0.00115323 0)
(0.00626347 0.00116656 0)
(0.00611674 0.00118012 0)
(0.0059676 0.00119384 0)
(0.00581596 0.00120766 0)
(0.00566172 0.00122154 0)
(0.00550481 0.00123542 0)
(0.00534514 0.00124925 0)
(0.00518262 0.00126298 0)
(0.0050172 0.00127655 0)
(0.0048488 0.00128992 0)
(0.00467736 0.00130304 0)
(0.00450283 0.00131586 0)
(0.00432516 0.00132834 0)
(0.00414432 0.00134043 0)
(0.00396028 0.0013521 0)
(0.00377303 0.0013633 0)
(0.00358255 0.00137401 0)
(0.00338886 0.0013842 0)
(0.00319197 0.00139385 0)
(0.00299194 0.00140294 0)
(0.00278882 0.00141146 0)
(0.00258267 0.00141941 0)
(0.00237361 0.00142677 0)
(0.00216174 0.00143356 0)
(0.00194722 0.00143978 0)
(0.00173019 0.00144544 0)
(0.00151086 0.00145053 0)
(0.00128944 0.00145504 0)
(0.00106616 0.00145872 0)
(0.000841306 0.00145964 0)
(0.000615445 0.00144722 0)
(0.000390385 0.00138036 0)
(0.00018011 0.00114882 0)
(2.12386e-05 0.000560156 0)
(0.0100006 3.14934e-05 0)
(0.0100057 9.37633e-05 0)
(0.0100164 0.00015394 0)
(0.010032 0.000210603 0)
(0.0100513 0.000262775 0)
(0.0100728 0.000309988 0)
(0.0100954 0.000352129 0)
(0.010118 0.000389312 0)
(0.0101399 0.000421815 0)
(0.0101602 0.000450048 0)
(0.0101784 0.000474507 0)
(0.0101941 0.000495715 0)
(0.010207 0.000514186 0)
(0.0102169 0.000530398 0)
(0.0102238 0.000544784 0)
(0.0102275 0.000557724 0)
(0.0102282 0.000569546 0)
(0.0102259 0.000580529 0)
(0.0102205 0.000590906 0)
(0.0102123 0.000600878 0)
(0.0102011 0.000610619 0)
(0.0101871 0.000620284 0)
(0.0101702 0.000630018 0)
(0.0101506 0.000639956 0)
(0.0101282 0.000650235 0)
(0.010103 0.000660988 0)
(0.0100752 0.000672352 0)
(0.0100447 0.000684463 0)
(0.0100116 0.000697458 0)
(0.00997598 0.000711464 0)
(0.00993788 0.000726594 0)
(0.00989738 0.000742962 0)
(0.00985457 0.000760727 0)
(0.00980948 0.000780188 0)
(0.00976212 0.000801917 0)
(0.00971236 0.000826853 0)
(0.00965986 0.000856248 0)
(0.00960412 0.000891372 0)
(0.00954437 0.000932953 0)
(0.00947976 0.000980493 0)
(0.00940938 0.00103178 0)
(0.00933248 0.00108288 0)
(0.00924857 0.00112889 0)
(0.0091575 0.00116516 0)
(0.00905951 0.0011887 0)
(0.00895525 0.00119908 0)
(0.00884564 0.00119843 0)
(0.00873177 0.00119064 0)
(0.00861474 0.00117998 0)
(0.00849549 0.00116998 0)
(0.0083747 0.00116279 0)
(0.00825282 0.0011592 0)
(0.00813006 0.00115906 0)
(0.00800646 0.00116179 0)
(0.00788199 0.00116676 0)
(0.00775655 0.00117349 0)
(0.00763001 0.00118167 0)
(0.00750225 0.00119107 0)
(0.00737315 0.00120156 0)
(0.00724258 0.00121301 0)
(0.00711041 0.00122531 0)
(0.00697653 0.00123836 0)
(0.00684082 0.00125207 0)
(0.00670317 0.00126636 0)
(0.00656345 0.00128116 0)
(0.00642158 0.00129641 0)
(0.00627743 0.00131203 0)
(0.00613092 0.00132797 0)
(0.00598195 0.00134416 0)
(0.00583042 0.00136056 0)
(0.00567624 0.0013771 0)
(0.00551933 0.00139373 0)
(0.00535961 0.00141038 0)
(0.00519699 0.001427 0)
(0.00503142 0.00144354 0)
(0.00486282 0.00145994 0)
(0.00469113 0.00147615 0)
(0.00451631 0.00149211 0)
(0.0043383 0.00150776 0)
(0.00415708 0.00152306 0)
(0.00397261 0.00153795 0)
(0.00378489 0.00155239 0)
(0.00359392 0.00156634 0)
(0.00339971 0.00157974 0)
(0.00320227 0.00159257 0)
(0.00300167 0.0016048 0)
(0.00279796 0.00161638 0)
(0.00259122 0.0016273 0)
(0.00238154 0.00163753 0)
(0.00216906 0.00164706 0)
(0.00195392 0.00165586 0)
(0.00173627 0.00166392 0)
(0.00151632 0.00167123 0)
(0.00129426 0.00167772 0)
(0.00107033 0.00168313 0)
(0.000844813 0.00168531 0)
(0.000618272 0.00167246 0)