/*--------------------------------*- C++ -*----------------------------------*\
| =========                 |                                                 |
| \\      /  F ield         | OpenFOAM: The Open Source CFD Toolbox           |
|  \\    /   O peration     | Version:  4.1                                   |
|   \\  /    A nd           | Web:      www.OpenFOAM.org                      |
|    \\/     M anipulation  |                                                 |
\*---------------------------------------------------------------------------*/
FoamFile
{
    version     2.0;
    format      ascii;
    class       volScalarField;
    location    "0.15";
    object      k;
}
// * * * * * * * * * * * * * * * * * * * * * * * * * * * * * * * * * * * * * //

dimensions      [0 2 -2 0 0 0 0];

internalField   nonuniform List<scalar> 
43750
(
3.97941e-05
7.40321e-05
0.00010138
0.000116943
0.000121223
0.000120383
0.000112192
8.62068e-05
6.56906e-05
5.82091e-05
5.73341e-05
5.71571e-05
5.6508e-05
5.67532e-05
5.9495e-05
7.67459e-05
0.000179393
0.000703658
0.00138602
0.00154766
0.0014807
0.00106984
0.000611176
0.000498939
0.000520894
0.000598145
0.000596519
0.000483062
0.000302628
0.000271413
0.000321664
0.00071079
0.00192143
0.00259707
0.00265048
0.00237104
0.00157423
0.0012464
0.00125342
0.00157367
0.00309133
0.00599255
0.00795052
0.00873565
0.00877132
0.00825845
0.00597503
0.00336629
0.00191741
0.00114889
0.000707617
0.00046401
0.000375411
0.000373122
0.000441864
0.000791322
0.00136072
0.00168899
0.00182477
0.00190782
0.00207294
0.00258434
0.00447187
0.00744502
0.00940976
0.0103886
0.0107102
0.0107373
0.0106512
0.0102945
0.00984676
0.00945093
0.00907678
0.00871522
0.00836418
0.00802201
0.00768711
0.00735787
0.00703289
0.00670992
0.00638594
0.00605888
0.0057264
0.00538526
0.00503302
0.00466877
0.00429272
0.00390538
0.0035078
0.00310196
0.00269073
0.00228069
0.00187958
0.00149713
0.00114159
0.000823151
0.000545114
0.000317818
0.000142249
2.26392e-05
2.00422e-05
2.03618e-05
2.06718e-05
2.07379e-05
2.06898e-05
2.04519e-05
2.03299e-05
2.03703e-05
2.05477e-05
2.06046e-05
2.05746e-05
2.04834e-05
2.04791e-05
2.05471e-05
2.08216e-05
2.17849e-05
2.52191e-05
2.87881e-05
3.10161e-05
3.66849e-05
4.65241e-05
4.88531e-05
4.80913e-05
4.649e-05
4.4918e-05
4.12113e-05
3.48871e-05
3.07057e-05
2.97486e-05
3.06731e-05
3.75453e-05
7.11505e-05
0.000135793
0.000167565
0.00017466
0.000170925
0.000150377
0.000139258
0.000140748
0.000161879
0.000266482
0.000525455
0.000709221
0.000794778
0.000817011
0.000808048
0.000726568
0.000494184
0.000311281
0.000204547
0.000143546
0.00011038
9.63537e-05
9.38879e-05
9.69185e-05
0.000115696
0.000177886
0.000368904
0.000630442
0.000792982
0.000872486
0.000960223
0.00114899
0.00163236
0.00242585
0.00313249
0.00367556
0.00405658
0.00428832
0.00439784
0.00443835
0.00444204
0.00443801
0.00442577
0.00440813
0.00438767
0.00436487
0.00433803
0.00430589
0.00427016
0.00422764
0.00417857
0.00412191
0.00405501
0.00397625
0.00387339
0.00374467
0.0035887
0.00340269
0.00318536
0.00294122
0.00266864
0.00236269
0.00202857
0.00166462
0.00129731
0.000919387
0.000608762
0.00024955
4.33428e-05
2.00257e-05
1.99955e-05
1.98284e-05
1.96018e-05
1.93753e-05
1.85729e-05
1.76043e-05
1.74976e-05
1.75601e-05
1.73959e-05
1.58696e-05
1.32698e-05
1.287e-05
1.32614e-05
1.44015e-05
1.48354e-05
1.48048e-05
1.44036e-05
1.3236e-05
1.14323e-05
9.67456e-06
8.58706e-06
8.24518e-06
8.24496e-06
8.45909e-06
9.41958e-06
1.05088e-05
1.10062e-05
1.11798e-05
1.13403e-05
1.17228e-05
1.30354e-05
1.59529e-05
1.77479e-05
1.82358e-05
1.81745e-05
1.78748e-05
1.78721e-05
1.83631e-05
2.07364e-05
2.96451e-05
4.5634e-05
5.75771e-05
6.40513e-05
6.58768e-05
6.53717e-05
6.04762e-05
4.58316e-05
3.43744e-05
2.79141e-05
2.43182e-05
2.24394e-05
2.17071e-05
2.16171e-05
2.18543e-05
2.33047e-05
2.92815e-05
5.22264e-05
0.00010924
0.000151781
0.000173221
0.000188849
0.000217697
0.000289271
0.000456178
0.000635515
0.000790733
0.000913035
0.00100268
0.00106592
0.00111268
0.00115098
0.00118567
0.00122043
0.00125501
0.0012906
0.00132738
0.00136331
0.00140116
0.00143623
0.00147257
0.00150584
0.00153586
0.00156595
0.00158716
0.00161729
0.00164518
0.00166728
0.00168292
0.00168382
0.00167141
0.00163624
0.0015625
0.00145813
0.00130641
0.00109741
0.000808456
0.000532873
0.0002165
4.06369e-05
2.04378e-05
2.1232e-05
2.17046e-05
2.18379e-05
2.18969e-05
2.19454e-05
2.19437e-05
2.18078e-05
2.14003e-05
2.11223e-05
2.09864e-05
2.09463e-05
2.09568e-05
2.09815e-05
2.10318e-05
2.11542e-05
2.1258e-05
2.12713e-05
2.12348e-05
2.11314e-05
2.08381e-05
2.0367e-05
2.00055e-05
1.97793e-05
1.96518e-05
1.95847e-05
1.95585e-05
1.9562e-05
1.96354e-05
1.99383e-05
2.0148e-05
2.01649e-05
2.00945e-05
2.00201e-05
2.00312e-05
2.01792e-05
2.07776e-05
2.17846e-05
2.28405e-05
2.39829e-05
2.50445e-05
2.57705e-05
2.61159e-05
2.62759e-05
2.65091e-05
2.7125e-05
2.92657e-05
3.30527e-05
3.50697e-05
3.54801e-05
3.52666e-05
3.43713e-05
3.40127e-05
3.41218e-05
3.46806e-05
3.60964e-05
3.97372e-05
4.67794e-05
5.22652e-05
5.55828e-05
5.90558e-05
6.60559e-05
8.36017e-05
0.000134708
0.000215484
0.000290579
0.000352446
0.000397808
0.000429161
0.000452806
0.000473411
0.000494485
0.000515994
0.000539686
0.00056446
0.000590725
0.000619053
0.000647568
0.000678936
0.000710077
0.000742696
0.000776442
0.000808702
0.000841715
0.000873308
0.000900391
0.000926292
0.000948563
0.000956692
0.000956156
0.000950424
0.000932267
0.000888628
0.000822506
0.000734377
0.000620912
0.000477315
0.000301969
0.000130365
2.65969e-05
2.09325e-05
2.1087e-05
2.14263e-05
2.22882e-05
2.27473e-05
2.2665e-05
2.2308e-05
2.20263e-05
2.17204e-05
2.1525e-05
2.14269e-05
2.14038e-05
2.14193e-05
2.15181e-05
2.16352e-05
2.16603e-05
2.16124e-05
2.14062e-05
2.11978e-05
2.10674e-05
2.09918e-05
2.09646e-05
2.09665e-05
2.10249e-05
2.11119e-05
2.11095e-05
2.11037e-05
2.11302e-05
2.12755e-05
2.15685e-05
2.1752e-05
2.183e-05
2.19064e-05
2.20973e-05
2.26914e-05
2.33293e-05
2.36466e-05
2.37922e-05
2.40063e-05
2.45792e-05
2.53204e-05
2.56305e-05
2.55758e-05
2.49382e-05
2.41558e-05
2.40518e-05
2.43795e-05
2.62313e-05
2.90632e-05
3.02899e-05
3.04816e-05
3.02741e-05
2.94447e-05
2.88976e-05
2.88167e-05
2.89404e-05
2.94696e-05
2.95015e-05
2.9561e-05
2.97944e-05
3.06168e-05
3.3428e-05
4.29095e-05
6.68532e-05
9.21039e-05
0.000112363
0.000126746
0.000136398
0.000143146
0.000147713
0.000151755
0.000158882
0.000168241
0.000179601
0.000191989
0.00020533
0.000220219
0.000235454
0.000252677
0.000270411
0.000289184
0.000309695
0.000329686
0.000351091
0.000372576
0.000392343
0.000412056
0.000429315
0.00044281
0.000449287
0.000449369
0.000446246
0.000434973
0.000407461
0.000368283
0.000315388
0.000247209
0.000163464
7.42226e-05
1.52754e-05
2.0637e-05
2.11366e-05
2.13103e-05
2.13042e-05
2.12722e-05
2.12701e-05
2.14447e-05
2.17226e-05
2.17592e-05
2.16733e-05
2.14966e-05
2.14824e-05
2.15953e-05
2.17484e-05
2.17483e-05
2.16606e-05
2.13919e-05
2.1227e-05
2.11832e-05
2.11633e-05
2.11527e-05
2.11559e-05
2.11763e-05
2.12189e-05
2.12425e-05
2.12344e-05
2.12323e-05
2.12391e-05
2.12692e-05
2.13182e-05
2.1394e-05
2.15598e-05
2.1897e-05
2.22887e-05
2.25795e-05
2.26792e-05
2.26752e-05
2.26608e-05
2.2685e-05
2.28548e-05
2.36185e-05
2.45894e-05
2.48242e-05
2.46696e-05
2.40963e-05
2.39156e-05
2.40126e-05
2.47517e-05
2.58886e-05
2.63024e-05
2.63129e-05
2.60463e-05
2.54973e-05
2.52398e-05
2.51363e-05
2.51105e-05
2.51256e-05
2.51633e-05
2.5215e-05
2.53462e-05
2.58647e-05
2.79575e-05
3.5043e-05
4.47067e-05
5.18041e-05
5.5774e-05
5.70311e-05
5.64575e-05
5.27656e-05
5.04424e-05
5.03721e-05
5.09723e-05
5.29095e-05
5.75959e-05
6.32304e-05
6.91667e-05
7.59656e-05
8.29689e-05
9.11332e-05
9.97354e-05
0.000109055
0.000119549
0.000130102
0.000141756
0.000153788
0.00016571
0.000177757
0.000189203
0.000199327
0.000207006
0.000211102
0.000211452
0.000209751
0.000202428
0.000185727
0.000162063
0.000130485
9.00723e-05
4.22584e-05
8.78653e-06
2.08348e-05
2.11847e-05
2.14137e-05
2.13771e-05
2.11404e-05
2.10659e-05
2.11516e-05
2.14024e-05
2.15027e-05
2.16051e-05
2.19212e-05
2.22429e-05
2.22451e-05
2.21335e-05
2.20977e-05
2.21128e-05
2.2273e-05
2.2765e-05
2.29408e-05
2.28287e-05
2.22406e-05
2.1732e-05
2.15865e-05
2.15896e-05
2.16117e-05
2.15757e-05
2.14541e-05
2.13451e-05
2.12838e-05
2.12624e-05
2.12633e-05
2.12909e-05
2.14283e-05
2.1657e-05
2.17441e-05
2.17417e-05
2.16747e-05
2.16212e-05
2.16386e-05
2.18163e-05
2.26601e-05
2.37969e-05
2.41904e-05
2.41574e-05
2.38084e-05
2.35874e-05
2.35935e-05
2.37649e-05
2.40111e-05
2.40679e-05
2.40405e-05
2.39165e-05
2.38581e-05
2.38915e-05
2.41559e-05
2.48554e-05
2.54085e-05
2.57074e-05
2.5839e-05
2.60062e-05
2.6522e-05
2.8694e-05
3.42901e-05
3.84356e-05
4.02171e-05
4.03816e-05
3.91229e-05
3.28937e-05
2.46594e-05
1.98173e-05
1.77034e-05
1.73023e-05
1.74636e-05
1.82708e-05
2.0438e-05
2.3025e-05
2.59768e-05
2.90122e-05
3.26673e-05
3.66002e-05
4.09981e-05
4.60545e-05
5.13701e-05
5.7349e-05
6.37561e-05
7.04368e-05
7.73604e-05
8.43144e-05
9.08838e-05
9.66143e-05
0.000100875
0.000102923
0.000103002
0.000101468
9.57467e-05
8.47476e-05
7.00768e-05
5.01893e-05
2.41347e-05
5.05308e-06
2.05996e-05
2.06997e-05
2.08627e-05
2.11657e-05
2.13837e-05
2.14744e-05
2.1521e-05
2.15355e-05
2.15466e-05
2.16327e-05
2.20258e-05
2.24771e-05
2.26863e-05
2.27211e-05
2.26586e-05
2.24194e-05
2.23475e-05
2.24696e-05
2.33512e-05
2.4488e-05
2.46112e-05
2.42517e-05
2.3212e-05
2.24893e-05
2.20293e-05
2.17784e-05
2.16967e-05
2.1686e-05
2.1679e-05
2.16561e-05
2.15773e-05
2.14644e-05
2.14119e-05
2.14038e-05
2.14137e-05
2.14549e-05
2.15002e-05
2.1552e-05
2.16738e-05
2.21668e-05
2.36804e-05
2.47295e-05
2.49303e-05
2.47759e-05
2.39703e-05
2.31001e-05
2.27387e-05
2.26679e-05
2.26843e-05
2.28066e-05
2.31993e-05
2.3452e-05
2.35442e-05
2.36822e-05
2.40627e-05
2.48162e-05
2.5487e-05
2.59298e-05
2.62506e-05
2.67772e-05
2.80525e-05
3.15959e-05
3.55571e-05
3.76805e-05
3.81515e-05
3.77997e-05
3.512e-05
2.59274e-05
1.66448e-05
1.08831e-05
7.77828e-06
6.45465e-06
6.15497e-06
6.21674e-06
6.59746e-06
7.57951e-06
8.8459e-06
1.01144e-05
1.16809e-05
1.33988e-05
1.53836e-05
1.77068e-05
2.02673e-05
2.31913e-05
2.64553e-05
2.99949e-05
3.37912e-05
3.77626e-05
4.17261e-05
4.54424e-05
4.86142e-05
5.07672e-05
5.15536e-05
5.13559e-05
4.96631e-05
4.49501e-05
3.82e-05
2.82583e-05
1.38707e-05
2.9179e-06
2.05578e-05
2.08807e-05
2.09088e-05
2.0991e-05
2.12207e-05
2.1439e-05
2.16762e-05
2.17684e-05
2.16849e-05
2.14271e-05
2.13095e-05
2.12831e-05
2.12897e-05
2.13751e-05
2.16971e-05
2.1932e-05
2.21393e-05
2.24934e-05
2.28111e-05
2.28709e-05
2.27387e-05
2.22283e-05
2.18747e-05
2.17895e-05
2.17964e-05
2.1833e-05
2.18504e-05
2.18539e-05
2.18507e-05
2.18382e-05
2.18099e-05
2.17273e-05
2.15677e-05
2.14438e-05
2.1377e-05
2.1368e-05
2.13921e-05
2.1473e-05
2.16388e-05
2.20856e-05
2.33332e-05
2.43245e-05
2.46466e-05
2.46279e-05
2.42974e-05
2.33929e-05
2.28493e-05
2.27001e-05
2.27123e-05
2.28859e-05
2.35201e-05
2.40031e-05
2.412e-05
2.41288e-05
2.41871e-05
2.45122e-05
2.51851e-05
2.56173e-05
2.59461e-05
2.65332e-05
2.80747e-05
3.22311e-05
3.59573e-05
3.77122e-05
3.80068e-05
3.754e-05
3.43988e-05
2.42604e-05
1.451e-05
8.35456e-06
4.86434e-06
3.12914e-06
2.43196e-06
2.27808e-06
2.30994e-06
2.49693e-06
2.99386e-06
3.53194e-06
4.18891e-06
4.91956e-06
5.78927e-06
6.82438e-06
8.01767e-06
9.40188e-06
1.1007e-05
1.28093e-05
1.48108e-05
1.69799e-05
1.92468e-05
2.14896e-05
2.35567e-05
2.52056e-05
2.61391e-05
2.62874e-05
2.58759e-05
2.41077e-05
2.10618e-05
1.6078e-05
8.03674e-06
1.69693e-06
2.06355e-05
2.06904e-05
2.0723e-05
2.07035e-05
2.06664e-05
2.06768e-05
2.07734e-05
2.08194e-05
2.08901e-05
2.10832e-05
2.13553e-05
2.15892e-05
2.17346e-05
2.17739e-05
2.17464e-05
2.16907e-05
2.16893e-05
2.17252e-05
2.17614e-05
2.17581e-05
2.1697e-05
2.16314e-05
2.16429e-05
2.17932e-05
2.20178e-05
2.20608e-05
2.20123e-05
2.18255e-05
2.17161e-05
2.17046e-05
2.17381e-05
2.17908e-05
2.17917e-05
2.17366e-05
2.15592e-05
2.14873e-05
2.15151e-05
2.16725e-05
2.18147e-05
2.19798e-05
2.24047e-05
2.31435e-05
2.36187e-05
2.37591e-05
2.37123e-05
2.33366e-05
2.28323e-05
2.26856e-05
2.27026e-05
2.28987e-05
2.35204e-05
2.39061e-05
2.39735e-05
2.39597e-05
2.39671e-05
2.40543e-05
2.44109e-05
2.47942e-05
2.51362e-05
2.57936e-05
2.75442e-05
3.20205e-05
3.58636e-05
3.76637e-05
3.79653e-05
3.74993e-05
3.4354e-05
2.40899e-05
1.40656e-05
7.70001e-06
4.03692e-06
2.13544e-06
1.26241e-06
9.38238e-07
8.75186e-07
8.94848e-07
1.00452e-06
1.23173e-06
1.50801e-06
1.81556e-06
2.19016e-06
2.64292e-06
3.18726e-06
3.82975e-06
4.60053e-06
5.49525e-06
6.52222e-06
7.67267e-06
8.92341e-06
1.02186e-05
1.14794e-05
1.25833e-05
1.33547e-05
1.36433e-05
1.35832e-05
1.30133e-05
1.16967e-05
9.25865e-06
4.68976e-06
9.95039e-07
2.08516e-05
2.07676e-05
2.08686e-05
2.08677e-05
2.08661e-05
2.09494e-05
2.12474e-05
2.13041e-05
2.12334e-05
2.11886e-05
2.12099e-05
2.13673e-05
2.18008e-05
2.20019e-05
2.19791e-05
2.17272e-05
2.14181e-05
2.13308e-05
2.13342e-05
2.14133e-05
2.1548e-05
2.16985e-05
2.20999e-05
2.27265e-05
2.29928e-05
2.29789e-05
2.27041e-05
2.22624e-05
2.21356e-05
2.21744e-05
2.25091e-05
2.29549e-05
2.30495e-05
2.29612e-05
2.24966e-05
2.21055e-05
2.20383e-05
2.21173e-05
2.23784e-05
2.25116e-05
2.26747e-05
2.29448e-05
2.32408e-05
2.34293e-05
2.34655e-05
2.33762e-05
2.29798e-05
2.27285e-05
2.27074e-05
2.28091e-05
2.31402e-05
2.32845e-05
2.32869e-05
2.32205e-05
2.31503e-05
2.31589e-05
2.3305e-05
2.35346e-05
2.37658e-05
2.42687e-05
2.58548e-05
3.06156e-05
3.51325e-05
3.72717e-05
3.76899e-05
3.72762e-05
3.42871e-05
2.4209e-05
1.4099e-05
7.62277e-06
3.85017e-06
1.8608e-06
9.09025e-07
5.05529e-07
3.69201e-07
3.48254e-07
3.62927e-07
4.23211e-07
5.431e-07
6.72943e-07
8.32863e-07
1.02852e-06
1.2733e-06
1.56754e-06
1.93175e-06
2.36839e-06
2.88546e-06
3.48385e-06
4.15759e-06
4.88487e-06
5.62526e-06
6.31661e-06
6.86191e-06
7.16143e-06
7.19922e-06
7.04357e-06
6.52836e-06
5.36892e-06
2.80018e-06
5.90975e-07
2.04159e-05
2.05913e-05
2.1126e-05
2.14943e-05
2.15637e-05
2.15379e-05
2.13271e-05
2.10875e-05
2.10332e-05
2.10469e-05
2.10992e-05
2.11907e-05
2.14146e-05
2.18845e-05
2.21474e-05
2.21394e-05
2.19701e-05
2.16347e-05
2.14263e-05
2.13453e-05
2.13181e-05
2.13207e-05
2.1392e-05
2.17649e-05
2.28336e-05
2.3519e-05
2.36277e-05
2.35063e-05
2.31883e-05
2.31186e-05
2.31883e-05
2.36509e-05
2.43291e-05
2.45131e-05
2.44641e-05
2.41405e-05
2.36811e-05
2.3422e-05
2.32348e-05
2.30784e-05
2.29957e-05
2.29893e-05
2.30441e-05
2.32413e-05
2.33395e-05
2.33202e-05
2.31012e-05
2.27259e-05
2.25471e-05
2.24733e-05
2.24424e-05
2.24328e-05
2.24335e-05
2.24484e-05
2.25371e-05
2.28039e-05
2.30011e-05
2.30982e-05
2.32185e-05
2.35154e-05
2.45548e-05
2.83942e-05
3.35941e-05
3.63172e-05
3.6977e-05
3.66774e-05
3.40893e-05
2.45785e-05
1.42606e-05
7.68355e-06
3.86055e-06
1.81482e-06
8.1571e-07
3.73319e-07
2.00424e-07
1.48387e-07
1.43762e-07
1.53811e-07
1.91841e-07
2.4957e-07
3.18176e-07
4.02078e-07
5.11202e-07
6.44617e-07
8.14889e-07
1.02536e-06
1.28208e-06
1.58914e-06
1.94563e-06
2.34626e-06
2.77048e-06
3.1864e-06
3.54538e-06
3.78062e-06
3.86325e-06
3.83109e-06
3.65107e-06
3.12624e-06
1.70619e-06
3.55774e-07
2.10201e-05
2.11431e-05
2.13111e-05
2.13331e-05
2.12992e-05
2.11275e-05
2.09732e-05
2.09375e-05
2.09496e-05
2.10241e-05
2.10888e-05
2.11102e-05
2.11379e-05
2.12077e-05
2.12468e-05
2.12547e-05
2.12503e-05
2.1222e-05
2.12035e-05
2.12113e-05
2.12176e-05
2.12139e-05
2.12551e-05
2.15137e-05
2.19938e-05
2.22426e-05
2.23487e-05
2.24588e-05
2.27093e-05
2.31072e-05
2.35278e-05
2.39026e-05
2.41409e-05
2.42081e-05
2.41951e-05
2.40841e-05
2.37142e-05
2.32764e-05
2.29606e-05
2.27863e-05
2.27326e-05
2.27325e-05
2.2791e-05
2.30674e-05
2.32671e-05
2.32799e-05
2.31756e-05
2.2837e-05
2.25e-05
2.21899e-05
2.19837e-05
2.19145e-05
2.19139e-05
2.19611e-05
2.22032e-05
2.25489e-05
2.27044e-05
2.27631e-05
2.28394e-05
2.30496e-05
2.38571e-05
2.71225e-05
3.27003e-05
3.58447e-05
3.67092e-05
3.64837e-05
3.41323e-05
2.50176e-05
1.45496e-05
7.83238e-06
3.91694e-06
1.83296e-06
8.07393e-07
3.40086e-07
1.47964e-07
7.90317e-08
6.1467e-08
6.14078e-08
6.91725e-08
9.15943e-08
1.2189e-07
1.57758e-07
2.06249e-07
2.66272e-07
3.45396e-07
4.46067e-07
5.72317e-07
7.28652e-07
9.14819e-07
1.13259e-06
1.37158e-06
1.61467e-06
1.84221e-06
2.00495e-06
2.09098e-06
2.10153e-06
2.05031e-06
1.82479e-06
1.05127e-06
2.16715e-07
2.06953e-05
2.0598e-05
2.07311e-05
2.1115e-05
2.12962e-05
2.13212e-05
2.12658e-05
2.12081e-05
2.12074e-05
2.12476e-05
2.13277e-05
2.13982e-05
2.14774e-05
2.15071e-05
2.14429e-05
2.13398e-05
2.1317e-05
2.13299e-05
2.14392e-05
2.15744e-05
2.15681e-05
2.15187e-05
2.15602e-05
2.18057e-05
2.19642e-05
2.19628e-05
2.19147e-05
2.18984e-05
2.19309e-05
2.21313e-05
2.28354e-05
2.36099e-05
2.4042e-05
2.42124e-05
2.42395e-05
2.42138e-05
2.40629e-05
2.36373e-05
2.32301e-05
2.29328e-05
2.2703e-05
2.25573e-05
2.25264e-05
2.25794e-05
2.28321e-05
2.30256e-05
2.30494e-05
2.29972e-05
2.27574e-05
2.23302e-05
2.20053e-05
2.18124e-05
2.17523e-05
2.17629e-05
2.18833e-05
2.21308e-05
2.22535e-05
2.23084e-05
2.23868e-05
2.25975e-05
2.33935e-05
2.66304e-05
3.2469e-05
3.58159e-05
3.67604e-05
3.65694e-05
3.44075e-05
2.56702e-05
1.49933e-05
8.08415e-06
4.0417e-06
1.8835e-06
8.22697e-07
3.40896e-07
1.35535e-07
5.69796e-08
3.14922e-08
2.64103e-08
2.73873e-08
3.31765e-08
4.65378e-08
6.19711e-08
8.35505e-08
1.10333e-07
1.46946e-07
1.94801e-07
2.56379e-07
3.35619e-07
4.31896e-07
5.49278e-07
6.82649e-07
8.21955e-07
9.62827e-07
1.06892e-06
1.13598e-06
1.16746e-06
1.15733e-06
1.06723e-06
6.5126e-07
1.33241e-07
2.08937e-05
2.08944e-05
2.09101e-05
2.11361e-05
2.17435e-05
2.21535e-05
2.23737e-05
2.23876e-05
2.21951e-05
2.16584e-05
2.14065e-05
2.13898e-05
2.15456e-05
2.20292e-05
2.21592e-05
2.20563e-05
2.16643e-05
2.14582e-05
2.14177e-05
2.13902e-05
2.13748e-05
2.1394e-05
2.15686e-05
2.22481e-05
2.27578e-05
2.28354e-05
2.27677e-05
2.24266e-05
2.21196e-05
2.20685e-05
2.21245e-05
2.24583e-05
2.31944e-05
2.36608e-05
2.38534e-05
2.38858e-05
2.38595e-05
2.37545e-05
2.35102e-05
2.32033e-05
2.291e-05
2.26957e-05
2.25892e-05
2.25808e-05
2.26635e-05
2.29631e-05
2.31568e-05
2.31863e-05
2.31063e-05
2.27188e-05
2.21738e-05
2.18692e-05
2.17493e-05
2.17331e-05
2.17695e-05
2.18986e-05
2.19802e-05
2.20242e-05
2.2099e-05
2.23056e-05
2.30894e-05
2.62978e-05
3.2484e-05
3.61376e-05
3.72617e-05
3.71474e-05
3.53027e-05
2.71738e-05
1.59982e-05
8.64772e-06
4.32544e-06
2.0063e-06
8.68072e-07
3.53536e-07
1.37844e-07
5.21863e-08
2.17086e-08
1.2945e-08
1.18559e-08
1.29256e-08
1.73353e-08
2.42281e-08
3.39531e-08
4.58004e-08
6.26911e-08
8.53315e-08
1.15119e-07
1.55174e-07
2.04537e-07
2.67386e-07
3.41352e-07
4.20058e-07
5.05931e-07
5.73186e-07
6.19259e-07
6.53802e-07
6.60216e-07
6.25891e-07
4.03797e-07
8.24803e-08
2.09089e-05
2.11391e-05
2.1494e-05
2.15016e-05
2.13841e-05
2.13051e-05
2.12983e-05
2.12928e-05
2.12842e-05
2.13005e-05
2.1416e-05
2.18546e-05
2.21742e-05
2.21986e-05
2.20806e-05
2.17121e-05
2.1452e-05
2.13488e-05
2.13321e-05
2.13513e-05
2.14553e-05
2.18183e-05
2.25981e-05
2.3313e-05
2.37668e-05
2.39375e-05
2.39363e-05
2.37596e-05
2.30512e-05
2.24274e-05
2.22185e-05
2.2206e-05
2.22689e-05
2.24412e-05
2.25861e-05
2.28271e-05
2.31092e-05
2.32454e-05
2.32557e-05
2.32375e-05
2.31897e-05
2.30548e-05
2.28921e-05
2.28208e-05
2.28336e-05
2.30063e-05
2.35505e-05
2.38509e-05
2.38669e-05
2.3641e-05
2.27943e-05
2.21328e-05
2.18482e-05
2.17788e-05
2.17889e-05
2.18549e-05
2.19096e-05
2.19442e-05
2.201e-05
2.22038e-05
2.29567e-05
2.60239e-05
3.25963e-05
3.67482e-05
3.81521e-05
3.81202e-05
3.65332e-05
2.8968e-05
1.72742e-05
9.41085e-06
4.74069e-06
2.21606e-06
9.62777e-07
3.88742e-07
1.47189e-07
5.38934e-08
1.95794e-08
8.33816e-09
5.60946e-09
5.55672e-09
6.58031e-09
9.33308e-09
1.38223e-08
1.90209e-08
2.67984e-08
3.74718e-08
5.17513e-08
7.19759e-08
9.70871e-08
1.30545e-07
1.71394e-07
2.15384e-07
2.67083e-07
3.09099e-07
3.38845e-07
3.6791e-07
3.81023e-07
3.68578e-07
2.50317e-07
5.13254e-08
2.09841e-05
2.09897e-05
2.09399e-05
2.10176e-05
2.11203e-05
2.11263e-05
2.10672e-05
2.10002e-05
2.10148e-05
2.11639e-05
2.16783e-05
2.22553e-05
2.25983e-05
2.26746e-05
2.26238e-05
2.23262e-05
2.17626e-05
2.14885e-05
2.14358e-05
2.14713e-05
2.16256e-05
2.17403e-05
2.18857e-05
2.2237e-05
2.30863e-05
2.38236e-05
2.41477e-05
2.41553e-05
2.39147e-05
2.31315e-05
2.26518e-05
2.2564e-05
2.26206e-05
2.27607e-05
2.28222e-05
2.2887e-05
2.30121e-05
2.319e-05
2.33283e-05
2.33875e-05
2.3384e-05
2.33284e-05
2.31079e-05
2.2894e-05
2.28614e-05
2.29369e-05
2.33688e-05
2.39699e-05
2.41774e-05
2.41489e-05
2.38308e-05
2.29393e-05
2.22806e-05
2.19887e-05
2.19097e-05
2.1912e-05
2.19299e-05
2.19561e-05
2.20117e-05
2.21856e-05
2.28916e-05
2.58204e-05
3.24731e-05
3.68982e-05
3.85376e-05
3.85834e-05
3.72489e-05
3.03852e-05
1.83958e-05
1.01194e-05
5.14416e-06
2.42677e-06
1.06467e-06
4.35036e-07
1.65719e-07
5.89093e-08
2.03555e-08
7.18783e-09
3.29858e-09
2.58285e-09
2.74567e-09
3.54765e-09
5.58502e-09
7.88403e-09
1.14647e-08
1.64921e-08
2.32658e-08
3.34786e-08
4.61573e-08
6.38753e-08
8.63706e-08
1.10758e-07
1.41543e-07
1.67612e-07
1.86111e-07
2.07867e-07
2.21952e-07
2.18294e-07
1.55289e-07
3.20545e-08
2.06062e-05
2.0924e-05
2.12344e-05
2.13406e-05
2.12439e-05
2.11146e-05
2.10952e-05
2.11728e-05
2.16464e-05
2.2007e-05
2.19798e-05
2.18178e-05
2.1802e-05
2.18968e-05
2.20799e-05
2.21545e-05
2.2165e-05
2.21391e-05
2.20075e-05
2.18174e-05
2.17132e-05
2.16823e-05
2.17179e-05
2.19713e-05
2.26596e-05
2.31569e-05
2.33178e-05
2.33095e-05
2.31077e-05
2.25887e-05
2.2353e-05
2.23331e-05
2.24193e-05
2.28657e-05
2.3375e-05
2.35196e-05
2.36202e-05
2.38723e-05
2.41629e-05
2.42787e-05
2.4273e-05
2.41383e-05
2.35551e-05
2.30051e-05
2.28362e-05
2.2849e-05
2.3113e-05
2.38131e-05
2.41027e-05
2.41052e-05
2.39072e-05
2.32833e-05
2.28046e-05
2.24931e-05
2.22583e-05
2.21103e-05
2.20581e-05
2.20564e-05
2.20821e-05
2.22211e-05
2.28282e-05
2.54358e-05
3.21009e-05
3.67866e-05
3.8557e-05
3.867e-05
3.75463e-05
3.13846e-05
1.93002e-05
1.07316e-05
5.51041e-06
2.62535e-06
1.16322e-06
4.80095e-07
1.84749e-07
6.63421e-08
2.22759e-08
7.36454e-09
2.60386e-09
1.37768e-09
1.26357e-09
1.44099e-09
2.20131e-09
3.24136e-09
4.90024e-09
7.27317e-09
1.04463e-08
1.56106e-08
2.19656e-08
3.13e-08
4.3664e-08
5.71009e-08
7.52473e-08
9.13959e-08
1.02582e-07
1.17859e-07
1.3035e-07
1.30002e-07
9.64044e-08
2.0224e-08
2.15181e-05
2.19165e-05
2.19053e-05
2.20416e-05
2.23147e-05
2.22204e-05
2.17161e-05
2.12642e-05
2.11579e-05
2.11788e-05
2.13242e-05
2.1628e-05
2.18646e-05
2.2021e-05
2.20914e-05
2.21203e-05
2.21747e-05
2.23946e-05
2.2705e-05
2.27445e-05
2.26546e-05
2.23263e-05
2.2145e-05
2.21446e-05
2.22035e-05
2.22086e-05
2.21318e-05
2.19391e-05
2.18214e-05
2.17634e-05
2.17496e-05
2.17591e-05
2.18338e-05
2.21843e-05
2.29625e-05
2.3619e-05
2.41834e-05
2.46011e-05
2.48122e-05
2.48467e-05
2.4783e-05
2.44023e-05
2.34949e-05
2.29344e-05
2.27694e-05
2.27911e-05
2.30579e-05
2.36171e-05
2.38413e-05
2.38485e-05
2.36946e-05
2.32118e-05
2.28891e-05
2.27244e-05
2.26235e-05
2.25155e-05
2.24271e-05
2.2388e-05
2.23889e-05
2.24608e-05
2.29175e-05
2.49139e-05
3.11546e-05
3.63572e-05
3.83853e-05
3.85655e-05
3.75768e-05
3.20464e-05
2.00554e-05
1.1273e-05
5.84625e-06
2.81214e-06
1.258e-06
5.24324e-07
2.03834e-07
7.39616e-08
2.50546e-08
7.96178e-09
2.54599e-09
9.56144e-10
6.3022e-10
6.43004e-10
8.68048e-10
1.32296e-09
2.09053e-09
3.21352e-09
4.67515e-09
7.29509e-09
1.04562e-08
1.53486e-08
2.21366e-08
2.95046e-08
4.01056e-08
5.00955e-08
5.67659e-08
6.70303e-08
7.70052e-08
7.80368e-08
5.98451e-08
1.28811e-08
2.11585e-05
2.11051e-05
2.10676e-05
2.11142e-05
2.14188e-05
2.15692e-05
2.14073e-05
2.11474e-05
2.10968e-05
2.115e-05
2.12803e-05
2.14198e-05
2.16143e-05
2.17694e-05
2.17961e-05
2.17213e-05
2.16338e-05
2.16486e-05
2.18042e-05
2.21377e-05
2.22242e-05
2.21813e-05
2.206e-05
2.20131e-05
2.19969e-05
2.1948e-05
2.18751e-05
2.18645e-05
2.18688e-05
2.18706e-05
2.18721e-05
2.1881e-05
2.19255e-05
2.20785e-05
2.25316e-05
2.3352e-05
2.40898e-05
2.46341e-05
2.48881e-05
2.4912e-05
2.47994e-05
2.42087e-05
2.32054e-05
2.27036e-05
2.25897e-05
2.26303e-05
2.29201e-05
2.32518e-05
2.33396e-05
2.33238e-05
2.31864e-05
2.29951e-05
2.29269e-05
2.29316e-05
2.29592e-05
2.29496e-05
2.28954e-05
2.28638e-05
2.28665e-05
2.29274e-05
2.3266e-05
2.48535e-05
3.01257e-05
3.53472e-05
3.77063e-05
3.8029e-05
3.72168e-05
3.23548e-05
2.06747e-05
1.17148e-05
6.13294e-06
2.97936e-06
1.34645e-06
5.67001e-07
2.22741e-07
8.16863e-08
2.79725e-08
8.94928e-09
2.71568e-09
8.57054e-10
3.7699e-10
3.11984e-10
3.63903e-10
5.292e-10
8.88345e-10
1.42511e-09
2.07903e-09
3.41421e-09
4.97933e-09
7.52635e-09
1.12502e-08
1.52738e-08
2.14224e-08
2.75795e-08
3.15718e-08
3.82159e-08
4.57097e-08
4.71977e-08
3.72062e-08
8.25651e-09
2.05873e-05
2.08428e-05
2.14739e-05
2.19017e-05
2.19916e-05
2.19437e-05
2.17126e-05
2.1582e-05
2.15933e-05
2.16575e-05
2.16525e-05
2.15808e-05
2.15449e-05
2.15714e-05
2.16496e-05
2.16524e-05
2.16001e-05
2.14309e-05
2.13446e-05
2.13429e-05
2.13665e-05
2.14564e-05
2.17201e-05
2.19357e-05
2.19911e-05
2.19785e-05
2.1966e-05
2.20004e-05
2.21608e-05
2.24129e-05
2.27054e-05
2.29489e-05
2.30516e-05
2.30844e-05
2.31508e-05
2.32808e-05
2.35634e-05
2.40178e-05
2.43104e-05
2.43769e-05
2.43044e-05
2.38085e-05
2.29017e-05
2.24409e-05
2.23272e-05
2.23602e-05
2.26397e-05
2.30235e-05
2.31492e-05
2.31478e-05
2.30747e-05
2.30115e-05
2.30162e-05
2.30724e-05
2.31244e-05
2.31303e-05
2.31064e-05
2.30889e-05
2.30959e-05
2.31592e-05
2.34923e-05
2.49522e-05
2.96858e-05
3.42109e-05
3.62751e-05
3.66328e-05
3.60493e-05
3.20074e-05
2.09678e-05
1.19519e-05
6.31212e-06
3.09525e-06
1.4128e-06
6.0121e-07
2.38782e-07
8.85728e-08
3.06927e-08
9.93631e-09
3.0129e-09
8.88393e-10
2.9383e-10
1.66567e-10
1.68463e-10
2.1868e-10
3.685e-10
6.31556e-10
9.31631e-10
1.5913e-09
2.365e-09
3.68697e-09
5.73107e-09
7.91904e-09
1.14643e-08
1.52401e-08
1.766e-08
2.18335e-08
2.72503e-08
2.87394e-08
2.31951e-08
5.3178e-09
2.11301e-05
2.10675e-05
2.11883e-05
2.11453e-05
2.11321e-05
2.11927e-05
2.14294e-05
2.16853e-05
2.18153e-05
2.18159e-05
2.16692e-05
2.13896e-05
2.12433e-05
2.1195e-05
2.11975e-05
2.12267e-05
2.13064e-05
2.13583e-05
2.13755e-05
2.13666e-05
2.13073e-05
2.12909e-05
2.13216e-05
2.14769e-05
2.15982e-05
2.16256e-05
2.16569e-05
2.17444e-05
2.20188e-05
2.27445e-05
2.34363e-05
2.38188e-05
2.39224e-05
2.39019e-05
2.37256e-05
2.34064e-05
2.32919e-05
2.32906e-05
2.33083e-05
2.33088e-05
2.32541e-05
2.2949e-05
2.23743e-05
2.20447e-05
2.19442e-05
2.19558e-05
2.21327e-05
2.26477e-05
2.29237e-05
2.30211e-05
2.31184e-05
2.3282e-05
2.3427e-05
2.34802e-05
2.34649e-05
2.33291e-05
2.31834e-05
2.31396e-05
2.31415e-05
2.32001e-05
2.35257e-05
2.49558e-05
2.94185e-05
3.34454e-05
3.52332e-05
3.55029e-05
3.49306e-05
3.1285e-05
2.08888e-05
1.20004e-05
6.39661e-06
3.16641e-06
1.45902e-06
6.26854e-07
2.51412e-07
9.41979e-08
3.29828e-08
1.07938e-08
3.30261e-09
9.52452e-10
2.79661e-10
1.07979e-10
8.49917e-11
9.68626e-11
1.50966e-10
2.78132e-10
4.18893e-10
7.40933e-10
1.12165e-09
1.80159e-09
2.9252e-09
4.11001e-09
6.14455e-09
8.44942e-09
9.93384e-09
1.24992e-08
1.63116e-08
1.76092e-08
1.45107e-08
3.43956e-09
2.067e-05
2.14754e-05
2.1624e-05
2.15175e-05
2.13955e-05
2.14119e-05
2.16122e-05
2.18977e-05
2.19347e-05
2.18159e-05
2.17833e-05
2.18971e-05
2.1915e-05
2.18047e-05
2.16404e-05
2.15635e-05
2.15398e-05
2.15263e-05
2.15024e-05
2.14174e-05
2.13282e-05
2.13124e-05
2.13325e-05
2.1404e-05
2.1428e-05
2.14281e-05
2.14386e-05
2.15064e-05
2.17966e-05
2.26578e-05
2.33998e-05
2.37246e-05
2.37796e-05
2.3742e-05
2.35297e-05
2.32227e-05
2.30377e-05
2.29283e-05
2.2865e-05
2.28222e-05
2.27529e-05
2.25691e-05
2.21959e-05
2.19492e-05
2.1872e-05
2.18793e-05
2.19635e-05
2.22042e-05
2.24985e-05
2.27821e-05
2.31204e-05
2.34859e-05
2.36669e-05
2.36772e-05
2.35939e-05
2.333e-05
2.31659e-05
2.3115e-05
2.31156e-05
2.3172e-05
2.3493e-05
2.49046e-05
2.92314e-05
3.30245e-05
3.46779e-05
3.49121e-05
3.43559e-05
3.08613e-05
2.08255e-05
1.20539e-05
6.47141e-06
3.22804e-06
1.49957e-06
6.49844e-07
2.63022e-07
9.95108e-08
3.52098e-08
1.16539e-08
3.60951e-09
1.04794e-09
2.93879e-10
9.03876e-11
4.78016e-11
4.7349e-11
6.40882e-11
1.19948e-10
1.88116e-10
3.44664e-10
5.33214e-10
8.76926e-10
1.49461e-09
2.13502e-09
3.29649e-09
4.69863e-09
5.61651e-09
7.17152e-09
9.80054e-09
1.08527e-08
9.11343e-09
2.23381e-09
2.076e-05
2.14332e-05
2.1738e-05
2.18419e-05
2.18698e-05
2.18443e-05
2.18241e-05
2.18979e-05
2.20358e-05
2.20765e-05
2.20608e-05
2.20205e-05
2.20427e-05
2.21472e-05
2.21434e-05
2.19926e-05
2.18715e-05
2.18787e-05
2.19219e-05
2.19134e-05
2.18188e-05
2.16218e-05
2.1508e-05
2.14498e-05
2.1411e-05
2.13989e-05
2.14114e-05
2.15047e-05
2.18996e-05
2.26247e-05
2.30361e-05
2.31455e-05
2.31367e-05
2.30135e-05
2.27877e-05
2.2683e-05
2.26598e-05
2.26896e-05
2.27574e-05
2.27572e-05
2.27281e-05
2.26109e-05
2.23082e-05
2.20715e-05
2.19871e-05
2.19899e-05
2.20581e-05
2.22234e-05
2.23117e-05
2.24549e-05
2.28807e-05
2.33565e-05
2.35811e-05
2.36038e-05
2.35384e-05
2.3261e-05
2.30311e-05
2.29579e-05
2.29555e-05
2.30087e-05
2.33257e-05
2.47239e-05
2.90348e-05
3.28053e-05
3.44383e-05
3.46728e-05
3.41472e-05
3.08079e-05
2.09362e-05
1.21772e-05
6.58081e-06
3.30643e-06
1.54808e-06
6.76547e-07
2.76293e-07
1.05525e-07
3.77137e-08
1.26179e-08
3.95395e-09
1.1615e-09
3.22291e-10
9.16259e-11
3.35649e-11
2.52745e-11
2.95287e-11
5.10486e-11
8.40767e-11
1.59904e-10
2.54601e-10
4.24589e-10
7.65146e-10
1.10747e-09
1.77047e-09
2.62041e-09
3.19126e-09
4.11925e-09
5.91334e-09
6.72644e-09
5.74794e-09
1.45678e-09
2.08595e-05
2.13378e-05
2.19385e-05
2.20488e-05
2.20014e-05
2.19144e-05
2.16982e-05
2.15043e-05
2.14542e-05
2.14772e-05
2.16785e-05
2.21776e-05
2.23572e-05
2.23308e-05
2.22227e-05
2.21933e-05
2.22543e-05
2.2668e-05
2.3274e-05
2.34699e-05
2.34205e-05
2.30099e-05
2.22556e-05
2.17784e-05
2.15356e-05
2.14528e-05
2.14537e-05
2.15406e-05
2.19282e-05
2.23008e-05
2.23837e-05
2.23586e-05
2.22022e-05
2.20301e-05
2.19862e-05
2.20088e-05
2.21812e-05
2.26466e-05
2.29293e-05
2.29979e-05
2.29891e-05
2.29306e-05
2.2778e-05
2.26711e-05
2.26445e-05
2.26507e-05
2.26572e-05
2.25957e-05
2.24775e-05
2.24812e-05
2.25603e-05
2.29047e-05
2.32588e-05
2.33665e-05
2.33548e-05
2.3202e-05
2.28547e-05
2.26771e-05
2.26419e-05