/*--------------------------------*- C++ -*----------------------------------*\
| =========                 |                                                 |
| \\      /  F ield         | OpenFOAM: The Open Source CFD Toolbox           |
|  \\    /   O peration     | Version:  4.1                                   |
|   \\  /    A nd           | Web:      www.OpenFOAM.org                      |
|    \\/     M anipulation  |                                                 |
\*---------------------------------------------------------------------------*/
FoamFile
{
    version     2.0;
    format      ascii;
    class       volScalarField;
    location    "0.15";
    object      k_0;
}
// * * * * * * * * * * * * * * * * * * * * * * * * * * * * * * * * * * * * * //

dimensions      [0 2 -2 0 0 0 0];

internalField   nonuniform List<scalar> 
43750
(
3.9981e-05
7.41873e-05
0.000101488
0.000116992
0.000121234
0.000120374
0.000112114
8.60672e-05
6.56211e-05
5.81884e-05
5.73315e-05
5.71463e-05
5.65058e-05
5.67557e-05
5.9521e-05
7.69026e-05
0.000180317
0.000707063
0.00138733
0.00154725
0.00147951
0.00106691
0.000609792
0.000498603
0.000520867
0.000597983
0.000596055
0.000481862
0.000302109
0.000271342
0.000322129
0.000714091
0.00192616
0.00259782
0.00264974
0.00236801
0.00157106
0.00124561
0.00125338
0.0015761
0.00310184
0.00600137
0.00795422
0.00873492
0.00876895
0.00825229
0.00596163
0.00335776
0.00191284
0.00114643
0.000706249
0.000463355
0.000375221
0.000373088
0.0004423
0.000793201
0.0013622
0.00168974
0.00182511
0.00190819
0.00207365
0.0025867
0.00447944
0.00745133
0.00941341
0.0103902
0.0107106
0.0107374
0.0106509
0.0102935
0.00984595
0.00945022
0.00907614
0.00871463
0.00836364
0.00802152
0.00768665
0.00735745
0.00703251
0.00670957
0.00638562
0.00605858
0.00572613
0.00538502
0.0050328
0.00466857
0.00429254
0.00390523
0.00350767
0.00310185
0.00269065
0.00228062
0.00187953
0.00149709
0.00114157
0.000823139
0.000545108
0.000317815
0.000142247
2.26387e-05
2.00428e-05
2.03631e-05
2.06715e-05
2.07368e-05
2.06883e-05
2.04504e-05
2.03295e-05
2.03703e-05
2.05479e-05
2.06041e-05
2.05738e-05
2.04828e-05
2.04787e-05
2.05472e-05
2.08232e-05
2.17919e-05
2.5237e-05
2.8793e-05
3.102e-05
3.67099e-05
4.65273e-05
4.88296e-05
4.80633e-05
4.64648e-05
4.48904e-05
4.11713e-05
3.48517e-05
3.06868e-05
2.97415e-05
3.0676e-05
3.75968e-05
7.1405e-05
0.000135956
0.000167576
0.000174596
0.000170811
0.000150217
0.000139182
0.000140709
0.000161996
0.000267196
0.000526285
0.000709472
0.000794643
0.000816679
0.000807587
0.000725614
0.000492994
0.000310579
0.000204139
0.000143312
0.000110255
9.62958e-05
9.38585e-05
9.69138e-05
0.000115777
0.000178188
0.000369745
0.000631068
0.000793247
0.000872593
0.000960457
0.00114962
0.00163415
0.00242768
0.0031338
0.00367627
0.00405674
0.00428802
0.00439725
0.00443763
0.00444127
0.00443724
0.004425
0.00440739
0.00438694
0.00436416
0.00433734
0.00430522
0.0042695
0.00422698
0.00417791
0.00412126
0.00405435
0.00397559
0.00387274
0.00374405
0.00358808
0.00340209
0.00318477
0.00294063
0.00266807
0.00236216
0.0020281
0.00166422
0.00129699
0.000919169
0.000608628
0.000249493
4.33329e-05
2.00258e-05
1.99955e-05
1.98278e-05
1.96015e-05
1.93748e-05
1.85693e-05
1.76041e-05
1.74999e-05
1.75624e-05
1.7396e-05
1.58585e-05
1.32653e-05
1.28715e-05
1.32667e-05
1.4407e-05
1.4837e-05
1.4805e-05
1.44005e-05
1.32288e-05
1.14245e-05
9.66802e-06
8.58351e-06
8.2439e-06
8.24427e-06
8.46036e-06
9.42505e-06
1.05121e-05
1.10076e-05
1.11804e-05
1.13413e-05
1.17253e-05
1.30445e-05
1.59611e-05
1.77484e-05
1.8232e-05
1.81694e-05
1.78701e-05
1.78689e-05
1.8364e-05
2.07507e-05
2.97002e-05
4.56753e-05
5.75883e-05
6.40351e-05
6.58446e-05
6.53314e-05
6.04056e-05
4.57474e-05
3.43257e-05
2.78857e-05
2.43013e-05
2.24295e-05
2.17013e-05
2.16127e-05
2.18517e-05
2.33091e-05
2.93109e-05
5.23505e-05
0.000109395
0.000151833
0.000173217
0.000188852
0.000217761
0.000289548
0.000456632
0.000635844
0.00079091
0.000913059
0.00100257
0.00106572
0.00111243
0.0011507
0.00118538
0.00122013
0.0012547
0.0012903
0.00132707
0.001363
0.00140084
0.00143591
0.00147225
0.00150551
0.00153553
0.00156561
0.0015868
0.00161691
0.00164477
0.00166684
0.00168246
0.00168336
0.00167096
0.0016358
0.00156208
0.00145773
0.00130604
0.00109709
0.00080822
0.000532718
0.000216435
4.06243e-05
2.04344e-05
2.12346e-05
2.1706e-05
2.18381e-05
2.18971e-05
2.19454e-05
2.19434e-05
2.18063e-05
2.13983e-05
2.11213e-05
2.09861e-05
2.09464e-05
2.09571e-05
2.09819e-05
2.10324e-05
2.1155e-05
2.12585e-05
2.12714e-05
2.12348e-05
2.1131e-05
2.08365e-05
2.03655e-05
2.00046e-05
1.97791e-05
1.96519e-05
1.95851e-05
1.9559e-05
1.95627e-05
1.96366e-05
1.99401e-05
2.01485e-05
2.01649e-05
2.0094e-05
2.00198e-05
2.00312e-05
2.01803e-05
2.07814e-05
2.17883e-05
2.28441e-05
2.39859e-05
2.50458e-05
2.57692e-05
2.61128e-05
2.62722e-05
2.65059e-05
2.7124e-05
2.92736e-05
3.30574e-05
3.50673e-05
3.54739e-05
3.52587e-05
3.43625e-05
3.40069e-05
3.41171e-05
3.46779e-05
3.60974e-05
3.97502e-05
4.67908e-05
5.22648e-05
5.55758e-05
5.90535e-05
6.60695e-05
8.36694e-05
0.000134915
0.000215672
0.000290702
0.000352488
0.000397777
0.000429077
0.000452691
0.000473282
0.000494346
0.00051585
0.000539537
0.000564306
0.000590566
0.000618888
0.000647397
0.000678758
0.000709891
0.000742504
0.000776242
0.000808493
0.000841498
0.00087308
0.000900153
0.000926045
0.0009483
0.000956412
0.000955874
0.000950137
0.000931972
0.000888329
0.000822224
0.000734118
0.000620678
0.000477124
0.000301846
0.000130311
2.6585e-05
2.09367e-05
2.10881e-05
2.14288e-05
2.22914e-05
2.27462e-05
2.26627e-05
2.23055e-05
2.20244e-05
2.17191e-05
2.15243e-05
2.14266e-05
2.14037e-05
2.14194e-05
2.15187e-05
2.16355e-05
2.16603e-05
2.16118e-05
2.14049e-05
2.1197e-05
2.10669e-05
2.09916e-05
2.09646e-05
2.09666e-05
2.10255e-05
2.11119e-05
2.11094e-05
2.11038e-05
2.11305e-05
2.12769e-05
2.15697e-05
2.17526e-05
2.18303e-05
2.19069e-05
2.20987e-05
2.26946e-05
2.33313e-05
2.36474e-05
2.37927e-05
2.40075e-05
2.45821e-05
2.5322e-05
2.563e-05
2.55741e-05
2.49331e-05
2.41533e-05
2.4051e-05
2.43814e-05
2.6242e-05
2.90688e-05
3.02898e-05
3.04789e-05
3.02697e-05
2.94384e-05
2.88934e-05
2.88133e-05
2.89379e-05
2.94669e-05
2.94971e-05
2.95569e-05
2.9791e-05
3.06166e-05
3.34385e-05
4.29562e-05
6.69282e-05
9.21513e-05
0.000112379
0.000126733
0.000136364
0.000143096
0.000147654
0.000151694
0.000158822
0.000168181
0.00017954
0.000191924
0.000205262
0.000220146
0.000235377
0.000252595
0.000270322
0.000289091
0.000309595
0.000329579
0.000350977
0.000372454
0.000392213
0.000411919
0.000429168
0.000442655
0.000449124
0.000449205
0.00044608
0.000434804
0.000407295
0.00036813
0.000315253
0.0002471
0.000163391
7.41883e-05
1.52677e-05
2.06412e-05
2.11382e-05
2.13103e-05
2.13038e-05
2.12709e-05
2.12697e-05
2.14462e-05
2.17233e-05
2.17593e-05
2.16725e-05
2.14961e-05
2.14823e-05
2.15961e-05
2.17483e-05
2.17479e-05
2.16595e-05
2.13904e-05
2.12265e-05
2.1183e-05
2.11631e-05
2.11527e-05
2.1156e-05
2.11766e-05
2.12191e-05
2.12425e-05
2.12344e-05
2.12323e-05
2.12392e-05
2.12694e-05
2.13184e-05
2.13944e-05
2.15609e-05
2.18987e-05
2.22902e-05
2.25802e-05
2.26791e-05
2.26748e-05
2.26605e-05
2.26849e-05
2.28558e-05
2.36228e-05
2.45914e-05
2.48238e-05
2.46676e-05
2.4094e-05
2.39152e-05
2.40133e-05
2.47563e-05
2.5891e-05
2.63023e-05
2.63119e-05
2.60431e-05
2.54947e-05
2.52381e-05
2.51349e-05
2.51094e-05
2.51246e-05
2.51623e-05
2.52141e-05
2.53458e-05
2.58668e-05
2.7969e-05
3.50743e-05
4.47291e-05
5.18123e-05
5.57685e-05
5.70158e-05
5.6433e-05
5.27284e-05
5.0412e-05
5.03433e-05
5.09448e-05
5.28849e-05
5.75739e-05
6.32057e-05
6.91399e-05
7.59362e-05
8.2937e-05
9.10985e-05
9.96973e-05
0.000109014
0.000119504
0.000130053
0.000141703
0.000153729
0.000165647
0.000177688
0.000189129
0.000199247
0.000206921
0.000211013
0.000211361
0.00020966
0.000202336
0.00018564
0.000161985
0.000130422
9.00281e-05
4.22367e-05
8.78166e-06
2.0836e-05
2.11855e-05
2.14136e-05
2.13761e-05
2.11392e-05
2.10657e-05
2.11524e-05
2.14035e-05
2.15032e-05
2.16059e-05
2.1923e-05
2.2243e-05
2.22442e-05
2.21324e-05
2.20973e-05
2.21126e-05
2.22741e-05
2.27664e-05
2.29403e-05
2.28268e-05
2.22369e-05
2.17305e-05
2.15862e-05
2.15897e-05
2.16116e-05
2.15753e-05
2.14534e-05
2.13447e-05
2.12836e-05
2.12623e-05
2.12633e-05
2.12911e-05
2.14292e-05
2.16576e-05
2.1744e-05
2.17414e-05
2.16741e-05
2.16209e-05
2.16387e-05
2.18177e-05
2.26653e-05
2.37997e-05
2.41904e-05
2.41564e-05
2.38062e-05
2.35867e-05
2.35932e-05
2.37656e-05
2.40111e-05
2.40673e-05
2.40397e-05
2.39154e-05
2.38576e-05
2.38914e-05
2.41574e-05
2.48577e-05
2.54098e-05
2.5708e-05
2.58393e-05
2.6007e-05
2.65251e-05
2.87074e-05
3.43082e-05
3.84438e-05
4.02173e-05
4.03778e-05
3.911e-05
3.2859e-05
2.46314e-05
1.97976e-05
1.76893e-05
1.72905e-05
1.74524e-05
1.82611e-05
2.04295e-05
2.30151e-05
2.59654e-05
2.89995e-05
3.26531e-05
3.65843e-05
4.09805e-05
4.60348e-05
5.1348e-05
5.73245e-05
6.37286e-05
7.04063e-05
7.73267e-05
8.42771e-05
9.08429e-05
9.65699e-05
0.000100827
0.000102873
0.000102952
0.000101418
9.56967e-05
8.47029e-05
7.00397e-05
5.01624e-05
2.41211e-05
5.05002e-06
2.05975e-05
2.07003e-05
2.08637e-05
2.1167e-05
2.13845e-05
2.14747e-05
2.15211e-05
2.15354e-05
2.15467e-05
2.16335e-05
2.20284e-05
2.24784e-05
2.26864e-05
2.27206e-05
2.26574e-05
2.24179e-05
2.23471e-05
2.24705e-05
2.33569e-05
2.44895e-05
2.46099e-05
2.42475e-05
2.3207e-05
2.24864e-05
2.20274e-05
2.17776e-05
2.16965e-05
2.1686e-05
2.1679e-05
2.1656e-05
2.15768e-05
2.14641e-05
2.14117e-05
2.14037e-05
2.14137e-05
2.1455e-05
2.15002e-05
2.15522e-05
2.16745e-05
2.21706e-05
2.36871e-05
2.47317e-05
2.493e-05
2.47741e-05
2.39654e-05
2.30972e-05
2.27375e-05
2.26673e-05
2.26839e-05
2.2807e-05
2.32003e-05
2.34522e-05
2.35443e-05
2.36828e-05
2.4065e-05
2.48187e-05
2.54889e-05
2.59309e-05
2.62518e-05
2.67797e-05
2.80595e-05
3.16112e-05
3.55677e-05
3.76845e-05
3.81517e-05
3.77966e-05
3.51031e-05
2.58912e-05
1.66197e-05
1.0867e-05
7.76839e-06
6.44832e-06
6.15014e-06
6.21228e-06
6.5937e-06
7.57614e-06
8.84165e-06
1.01095e-05
1.16753e-05
1.33923e-05
1.53762e-05
1.76984e-05
2.02576e-05
2.31803e-05
2.64426e-05
2.99804e-05
3.37747e-05
3.7744e-05
4.17053e-05
4.54192e-05
4.85889e-05
5.07401e-05
5.15256e-05
5.13277e-05
4.96349e-05
4.4924e-05
3.81782e-05
2.82419e-05
1.38622e-05
2.916e-06
2.05614e-05
2.08816e-05
2.09089e-05
2.09917e-05
2.1222e-05
2.14401e-05
2.1677e-05
2.17681e-05
2.16836e-05
2.14259e-05
2.13091e-05
2.12829e-05
2.12896e-05
2.13758e-05
2.16985e-05
2.19327e-05
2.21403e-05
2.24946e-05
2.28112e-05
2.28699e-05
2.27365e-05
2.22251e-05
2.18734e-05
2.17892e-05
2.17963e-05
2.18331e-05
2.18504e-05
2.18539e-05
2.18506e-05
2.1838e-05
2.18096e-05
2.17266e-05
2.1567e-05
2.14433e-05
2.13768e-05
2.13679e-05
2.13922e-05
2.14734e-05
2.16397e-05
2.20887e-05
2.33385e-05
2.43269e-05
2.46468e-05
2.46273e-05
2.42945e-05
2.33893e-05
2.28478e-05
2.26996e-05
2.27122e-05
2.2887e-05
2.35226e-05
2.4004e-05
2.41201e-05
2.41288e-05
2.41875e-05
2.45142e-05
2.51869e-05
2.56182e-05
2.59473e-05
2.65359e-05
2.80833e-05
3.22466e-05
3.59666e-05
3.77156e-05
3.80072e-05
3.75369e-05
3.43804e-05
2.42236e-05
1.44856e-05
8.33956e-06
4.85575e-06
3.12438e-06
2.42919e-06
2.27609e-06
2.30813e-06
2.49542e-06
2.99243e-06
3.53008e-06
4.1867e-06
4.91694e-06
5.78622e-06
6.82079e-06
8.01345e-06
9.39694e-06
1.10012e-05
1.28025e-05
1.48029e-05
1.69707e-05
1.92362e-05
2.14776e-05
2.35432e-05
2.51909e-05
2.61235e-05
2.62715e-05
2.58599e-05
2.40925e-05
2.10488e-05
1.6068e-05
8.03149e-06
1.69574e-06
2.06381e-05
2.06906e-05
2.07231e-05
2.07033e-05
2.06663e-05
2.06769e-05
2.07736e-05
2.08193e-05
2.08905e-05
2.10845e-05
2.13566e-05
2.15902e-05
2.17351e-05
2.17739e-05
2.1746e-05
2.16904e-05
2.16892e-05
2.17253e-05
2.17613e-05
2.17578e-05
2.16963e-05
2.16312e-05
2.1643e-05
2.17944e-05
2.20183e-05
2.20607e-05
2.20116e-05
2.18244e-05
2.17158e-05
2.17044e-05
2.17383e-05
2.17908e-05
2.17916e-05
2.1736e-05
2.15584e-05
2.14871e-05
2.15153e-05
2.16732e-05
2.18152e-05
2.19806e-05
2.24072e-05
2.31458e-05
2.36196e-05
2.3759e-05
2.37115e-05
2.3334e-05
2.28309e-05
2.26852e-05
2.27025e-05
2.29e-05
2.35226e-05
2.39066e-05
2.39734e-05
2.39595e-05
2.3967e-05
2.40545e-05
2.4412e-05
2.47947e-05
2.51372e-05
2.57963e-05
2.75536e-05
3.20363e-05
3.5873e-05
3.76671e-05
3.79657e-05
3.74963e-05
3.43356e-05
2.40527e-05
1.40409e-05
7.68515e-06
4.02866e-06
2.13115e-06
1.26023e-06
9.3706e-07
8.74358e-07
8.94103e-07
1.00394e-06
1.23106e-06
1.50715e-06
1.81451e-06
2.1889e-06
2.64141e-06
3.18544e-06
3.82756e-06
4.5979e-06
5.49208e-06
6.51843e-06
7.66816e-06
8.91808e-06
1.02124e-05
1.14723e-05
1.25753e-05
1.33461e-05
1.36343e-05
1.35741e-05
1.30046e-05
1.16889e-05
9.25252e-06
4.68651e-06
9.94299e-07
2.08402e-05
2.07652e-05
2.08675e-05
2.08677e-05
2.08661e-05
2.09502e-05
2.12483e-05
2.13036e-05
2.12327e-05
2.11884e-05
2.121e-05
2.13687e-05
2.18024e-05
2.20018e-05
2.19783e-05
2.1725e-05
2.14171e-05
2.13306e-05
2.13342e-05
2.14139e-05
2.15484e-05
2.16994e-05
2.21026e-05
2.27285e-05
2.29929e-05
2.29783e-05
2.27016e-05
2.2261e-05
2.21353e-05
2.21747e-05
2.25113e-05
2.29558e-05
2.30493e-05
2.29601e-05
2.24939e-05
2.21046e-05
2.20383e-05
2.2118e-05
2.23795e-05
2.25123e-05
2.26756e-05
2.29459e-05
2.32417e-05
2.34295e-05
2.34653e-05
2.33751e-05
2.29778e-05
2.27278e-05
2.27072e-05
2.28096e-05
2.31409e-05
2.32842e-05
2.32863e-05
2.32196e-05
2.31497e-05
2.31586e-05
2.33054e-05
2.35347e-05
2.37663e-05
2.42707e-05
2.58632e-05
3.06332e-05
3.5143e-05
3.72755e-05
3.76902e-05
3.72732e-05
3.42695e-05
2.41718e-05
1.40742e-05
7.60777e-06
3.8419e-06
1.8566e-06
9.07018e-07
5.04586e-07
3.68713e-07
3.47904e-07
3.62618e-07
4.22968e-07
5.42776e-07
6.72526e-07
8.32348e-07
1.02788e-06
1.27251e-06
1.56657e-06
1.93056e-06
2.36692e-06
2.88365e-06
3.48164e-06
4.15491e-06
4.88167e-06
5.6215e-06
6.31228e-06
6.85711e-06
7.15634e-06
7.19406e-06
7.03849e-06
6.52369e-06
5.36514e-06
2.79814e-06
5.9051e-07
2.04151e-05
2.05925e-05
2.11285e-05
2.14952e-05
2.15639e-05
2.15377e-05
2.13255e-05
2.10866e-05
2.1033e-05
2.10469e-05
2.10996e-05
2.11913e-05
2.14164e-05
2.18862e-05
2.21476e-05
2.21389e-05
2.19686e-05
2.16334e-05
2.14256e-05
2.1345e-05
2.13179e-05
2.13206e-05
2.13926e-05
2.17679e-05
2.28381e-05
2.35203e-05
2.36274e-05
2.35048e-05
2.3187e-05
2.31182e-05
2.31886e-05
2.36537e-05
2.43304e-05
2.45128e-05
2.44632e-05
2.4138e-05
2.36794e-05
2.34209e-05
2.32339e-05
2.30778e-05
2.29955e-05
2.29892e-05
2.30444e-05
2.3242e-05
2.33395e-05
2.33197e-05
2.30994e-05
2.27246e-05
2.25463e-05
2.24727e-05
2.2442e-05
2.24323e-05
2.2433e-05
2.24481e-05
2.25373e-05
2.28047e-05
2.30014e-05
2.30983e-05
2.32188e-05
2.35167e-05
2.45605e-05
2.84118e-05
3.36068e-05
3.63223e-05
3.69777e-05
3.66751e-05
3.40738e-05
2.45416e-05
1.42354e-05
7.66839e-06
3.85218e-06
1.81057e-06
8.13717e-07
3.72437e-07
2.00035e-07
1.48189e-07
1.43611e-07
1.5368e-07
1.9173e-07
2.49409e-07
3.17966e-07
4.01813e-07
5.10864e-07
6.44189e-07
8.1435e-07
1.02468e-06
1.28121e-06
1.58805e-06
1.94429e-06
2.34461e-06
2.76849e-06
3.18406e-06
3.54272e-06
3.77773e-06
3.86029e-06
3.82815e-06
3.64829e-06
3.1239e-06
1.70488e-06
3.5548e-07
2.10171e-05
2.11427e-05
2.13108e-05
2.13317e-05
2.1297e-05
2.11261e-05
2.09727e-05
2.09374e-05
2.09497e-05
2.10245e-05
2.1089e-05
2.11104e-05
2.11381e-05
2.12078e-05
2.12468e-05
2.12546e-05
2.12501e-05
2.12218e-05
2.12035e-05
2.12114e-05
2.12175e-05
2.12139e-05
2.12555e-05
2.15157e-05
2.19951e-05
2.22429e-05
2.23486e-05
2.2459e-05
2.27104e-05
2.31087e-05
2.35292e-05
2.39035e-05
2.4141e-05
2.42076e-05
2.41944e-05
2.40828e-05
2.37117e-05
2.32744e-05
2.29593e-05
2.27856e-05
2.27323e-05
2.27323e-05
2.27914e-05
2.30685e-05
2.32673e-05
2.32797e-05
2.31745e-05
2.28353e-05
2.24985e-05
2.21887e-05
2.19829e-05
2.19142e-05
2.19137e-05
2.19612e-05
2.22043e-05
2.25495e-05
2.27045e-05
2.27631e-05
2.28395e-05
2.30506e-05
2.38617e-05
2.71402e-05
3.27149e-05
3.58513e-05
3.67105e-05
3.64822e-05
3.41181e-05
2.49809e-05
1.4524e-05
7.8169e-06
3.90841e-06
1.82865e-06
8.05363e-07
3.39201e-07
1.47597e-07
7.88773e-08
6.13867e-08
6.13398e-08
6.91177e-08
9.15382e-08
1.21806e-07
1.57647e-07
2.06104e-07
2.66083e-07
3.45153e-07
4.4575e-07
5.71908e-07
7.28124e-07
9.14146e-07
1.13174e-06
1.37054e-06
1.61341e-06
1.84074e-06
2.00332e-06
2.08927e-06
2.09982e-06
2.04866e-06
1.82335e-06
1.05042e-06
2.16526e-07
2.06918e-05
2.05966e-05
2.0732e-05
2.11152e-05
2.12962e-05
2.13208e-05
2.12653e-05
2.1208e-05
2.12074e-05
2.1248e-05
2.13281e-05
2.13986e-05
2.14777e-05
2.1507e-05
2.14422e-05
2.13395e-05
2.1317e-05
2.133e-05
2.14401e-05
2.15745e-05
2.15678e-05
2.15185e-05
2.15606e-05
2.18069e-05
2.19642e-05
2.19626e-05
2.19143e-05
2.18983e-05
2.1931e-05
2.21327e-05
2.28391e-05
2.36122e-05
2.40431e-05
2.42126e-05
2.42394e-05
2.42134e-05
2.40615e-05
2.36351e-05
2.32285e-05
2.29316e-05
2.2702e-05
2.25568e-05
2.25262e-05
2.25796e-05
2.2833e-05
2.30258e-05
2.30491e-05
2.29966e-05
2.27557e-05
2.23286e-05
2.20042e-05
2.18118e-05
2.17521e-05
2.17629e-05
2.18841e-05
2.21312e-05
2.22535e-05
2.23084e-05
2.2387e-05
2.25985e-05
2.33981e-05
2.66489e-05
3.24848e-05
3.58232e-05
3.6762e-05
3.65683e-05
3.43947e-05
2.56341e-05
1.49672e-05
8.06829e-06
4.03294e-06
1.87906e-06
8.20624e-07
3.39988e-07
1.35164e-07
5.68352e-08
3.14328e-08
2.63764e-08
2.73581e-08
3.31522e-08
4.65057e-08
6.19252e-08
8.34883e-08
1.10251e-07
1.46837e-07
1.94654e-07
2.56185e-07
3.35361e-07
4.31559e-07
5.48844e-07
6.82097e-07
8.21275e-07
9.62016e-07
1.068e-06
1.13499e-06
1.16647e-06
1.15635e-06
1.06635e-06
6.50706e-07
1.33119e-07
2.08806e-05
2.0894e-05
2.09097e-05
2.11365e-05
2.17444e-05
2.21543e-05
2.23738e-05
2.2387e-05
2.2193e-05
2.16561e-05
2.14059e-05
2.13897e-05
2.15472e-05
2.20308e-05
2.2159e-05
2.2055e-05
2.16623e-05
2.14576e-05
2.14174e-05
2.13899e-05
2.13746e-05
2.13941e-05
2.157e-05
2.22516e-05
2.2759e-05
2.28356e-05
2.27672e-05
2.24248e-05
2.21188e-05
2.20684e-05
2.21249e-05
2.24608e-05
2.31968e-05
2.36618e-05
2.38535e-05
2.38855e-05
2.3859e-05
2.37535e-05
2.35088e-05
2.32018e-05
2.29088e-05
2.26948e-05
2.25888e-05
2.25806e-05
2.26641e-05
2.29644e-05
2.31572e-05
2.31862e-05
2.31057e-05
2.27166e-05
2.21721e-05
2.18683e-05
2.1749e-05
2.17331e-05
2.17697e-05
2.1899e-05
2.19803e-05
2.20243e-05
2.20992e-05
2.23067e-05
2.30941e-05
2.6317e-05
3.25011e-05
3.61463e-05
3.72645e-05
3.71476e-05
3.52925e-05
2.71385e-05
1.59712e-05
8.63108e-06
4.3162e-06
2.00161e-06
8.65888e-07
3.52591e-07
1.37461e-07
5.20382e-08
2.16539e-08
1.29222e-08
1.18409e-08
1.29126e-08
1.73232e-08
2.42096e-08
3.39266e-08
4.57639e-08
6.26417e-08
8.52635e-08
1.15027e-07
1.55049e-07
2.04369e-07
2.67163e-07
3.4106e-07
4.19692e-07
5.05482e-07
5.72664e-07
6.18689e-07
6.53213e-07
6.59633e-07
6.25344e-07
4.03435e-07
8.24007e-08
2.09129e-05
2.11406e-05
2.14949e-05
2.15013e-05
2.13829e-05
2.13047e-05
2.1298e-05
2.12925e-05
2.12839e-05
2.13003e-05
2.14167e-05
2.18565e-05
2.21744e-05
2.2198e-05
2.2079e-05
2.17099e-05
2.1451e-05
2.13485e-05
2.1332e-05
2.13515e-05
2.14562e-05
2.18211e-05
2.26017e-05
2.33156e-05
2.37681e-05
2.39376e-05
2.3936e-05
2.37578e-05
2.30473e-05
2.24256e-05
2.2218e-05
2.22059e-05
2.22693e-05
2.24416e-05
2.25864e-05
2.28278e-05
2.31097e-05
2.32453e-05
2.32555e-05
2.32372e-05
2.31892e-05
2.30539e-05
2.28916e-05
2.28206e-05
2.28337e-05
2.30077e-05
2.35526e-05
2.38515e-05
2.38669e-05
2.36393e-05
2.2791e-05
2.21312e-05
2.18476e-05
2.17788e-05
2.1789e-05
2.18552e-05
2.19097e-05
2.19443e-05
2.20103e-05
2.2205e-05
2.29613e-05
2.60427e-05
3.26157e-05
3.67581e-05
3.81551e-05
3.81207e-05
3.65242e-05
2.89326e-05
1.72455e-05
9.39291e-06
4.73066e-06
2.21095e-06
9.60374e-07
3.87705e-07
1.46774e-07
5.3737e-08
1.95226e-08
8.3179e-09
5.6005e-09
5.54957e-09
6.57439e-09
9.32627e-09
1.3811e-08
1.90049e-08
2.67762e-08
3.74404e-08
5.17077e-08
7.19146e-08
9.70027e-08
1.30431e-07
1.7124e-07
2.15186e-07
2.66835e-07
3.08802e-07
3.38517e-07
3.67562e-07
3.80672e-07
3.6824e-07
2.50081e-07
5.12734e-08
2.09885e-05
2.09894e-05
2.09395e-05
2.10181e-05
2.11205e-05
2.11263e-05
2.10667e-05
2.1e-05
2.10149e-05
2.11651e-05
2.16811e-05
2.22569e-05
2.25986e-05
2.2674e-05
2.26227e-05
2.23233e-05
2.17604e-05
2.14877e-05
2.14356e-05
2.14715e-05
2.16262e-05
2.17406e-05
2.18865e-05
2.22394e-05
2.30902e-05
2.38259e-05
2.41481e-05
2.41549e-05
2.39123e-05
2.31278e-05
2.26505e-05
2.25639e-05
2.26211e-05
2.27611e-05
2.28223e-05
2.28871e-05
2.30125e-05
2.31905e-05
2.33286e-05
2.33876e-05
2.33839e-05
2.33281e-05
2.31068e-05
2.28935e-05
2.28613e-05
2.29375e-05
2.33713e-05
2.39714e-05
2.41777e-05
2.41486e-05
2.38286e-05
2.29361e-05
2.22791e-05
2.19883e-05
2.19097e-05
2.19121e-05
2.193e-05
2.19562e-05
2.2012e-05
2.21866e-05
2.2896e-05
2.58384e-05
3.24935e-05
3.69087e-05
3.85407e-05
3.85838e-05
3.72408e-05
3.03502e-05
1.83657e-05
1.01002e-05
5.13333e-06
2.42119e-06
1.06202e-06
4.33881e-07
1.65251e-07
5.87345e-08
2.02942e-08
7.16682e-09
3.29115e-09
2.579e-09
2.74241e-09
3.54456e-09
5.58065e-09
7.87706e-09
1.14548e-08
1.64775e-08
2.32452e-08
3.34487e-08
4.61151e-08
6.38168e-08
8.62891e-08
1.10651e-07
1.41405e-07
1.67443e-07
1.85921e-07
2.07662e-07
2.21738e-07
2.18086e-07
1.55135e-07
3.20206e-08
2.06025e-05
2.09251e-05
2.12351e-05
2.13396e-05
2.12426e-05
2.11142e-05
2.10952e-05
2.11736e-05
2.16489e-05
2.20071e-05
2.19788e-05
2.18169e-05
2.18017e-05
2.18974e-05
2.20801e-05
2.21542e-05
2.21645e-05
2.21383e-05
2.20061e-05
2.18164e-05
2.17127e-05
2.16821e-05
2.17182e-05
2.19736e-05
2.26627e-05
2.31581e-05
2.33176e-05
2.33089e-05
2.31053e-05
2.25863e-05
2.23521e-05
2.23328e-05
2.24198e-05
2.28683e-05
2.33764e-05
2.35201e-05
2.36211e-05
2.38739e-05
2.41641e-05
2.42792e-05
2.42732e-05
2.41373e-05
2.35521e-05
2.30036e-05
2.28358e-05
2.28491e-05
2.31151e-05
2.38152e-05
2.4103e-05
2.41049e-05
2.39056e-05
2.32807e-05
2.28032e-05
2.24923e-05
2.22579e-05
2.21102e-05
2.20582e-05
2.20566e-05
2.20825e-05
2.22221e-05
2.28321e-05
2.54518e-05
3.21226e-05
3.67975e-05
3.85602e-05
3.86702e-05
3.75392e-05
3.13505e-05
1.92691e-05
1.07114e-05
5.49887e-06
2.61935e-06
1.16034e-06
4.78824e-07
1.84229e-07
6.61451e-08
2.22066e-08
7.34157e-09
2.59639e-09
1.37492e-09
1.26178e-09
1.43938e-09
2.19958e-09
3.23839e-09
4.89586e-09
7.26641e-09
1.04366e-08
1.5596e-08
2.19446e-08
3.12701e-08
4.36209e-08
5.70434e-08
7.51707e-08
9.12997e-08
1.02472e-07
1.17737e-07
1.30219e-07
1.29873e-07
9.63046e-08
2.02014e-08
2.15265e-05
2.19175e-05
2.19052e-05
2.2043e-05
2.23138e-05
2.22178e-05
2.1712e-05
2.12626e-05
2.11575e-05
2.11788e-05
2.13252e-05
2.1629e-05
2.18654e-05
2.20214e-05
2.20914e-05
2.21202e-05
2.21748e-05
2.23957e-05
2.27052e-05
2.27439e-05
2.26533e-05
2.23246e-05
2.21447e-05
2.21447e-05
2.22036e-05
2.22083e-05
2.21308e-05
2.1938e-05
2.18207e-05
2.1763e-05
2.17494e-05
2.17589e-05
2.18341e-05
2.21867e-05
2.29655e-05
2.36216e-05
2.41855e-05
2.46024e-05
2.48126e-05
2.48465e-05
2.47822e-05
2.43991e-05
2.34912e-05
2.29327e-05
2.27689e-05
2.27912e-05
2.30599e-05
2.36184e-05
2.38413e-05
2.38481e-05
2.3693e-05
2.32097e-05
2.28882e-05
2.27241e-05
2.26234e-05
2.25155e-05
2.24273e-05
2.23884e-05
2.23894e-05
2.24617e-05
2.29208e-05
2.49263e-05
3.11774e-05
3.63689e-05
3.83886e-05
3.85655e-05
3.75703e-05
3.20147e-05
2.00224e-05
1.12519e-05
5.83406e-06
2.80572e-06
1.2549e-06
5.22939e-07
2.03262e-07
7.37425e-08
2.49766e-08
7.93609e-09
2.53781e-09
9.53572e-10
6.29127e-10
6.42099e-10
8.6731e-10
1.32171e-09
2.08861e-09
3.21038e-09
4.67066e-09
7.28801e-09
1.04457e-08
1.53334e-08
2.21138e-08
2.94736e-08
4.00631e-08
5.00404e-08
5.67024e-08
6.6958e-08
7.6925e-08
7.79558e-08
5.97806e-08
1.2866e-08
2.11639e-05
2.11046e-05
2.10675e-05
2.11146e-05
2.142e-05
2.1568e-05
2.14049e-05
2.11463e-05
2.10967e-05
2.11505e-05
2.12809e-05
2.14205e-05
2.16151e-05
2.17696e-05
2.17957e-05
2.17204e-05
2.16335e-05
2.16485e-05
2.18053e-05
2.21382e-05
2.22237e-05
2.21804e-05
2.20593e-05
2.20129e-05
2.19966e-05
2.19476e-05
2.18749e-05
2.18644e-05
2.18687e-05
2.18705e-05
2.1872e-05
2.1881e-05
2.19258e-05
2.20795e-05
2.25346e-05
2.33553e-05
2.40924e-05
2.46356e-05
2.48883e-05
2.49116e-05
2.47981e-05
2.4204e-05
2.32018e-05
2.2702e-05
2.25892e-05
2.26305e-05
2.29217e-05
2.32523e-05
2.33394e-05
2.33234e-05
2.31852e-05
2.29945e-05
2.29268e-05
2.29317e-05
2.29594e-05
2.29497e-05
2.28955e-05
2.28641e-05
2.28669e-05
2.29283e-05
2.32686e-05
2.48636e-05
3.01471e-05
3.5359e-05
3.77093e-05
3.80283e-05
3.72104e-05
3.23262e-05
2.06398e-05
1.16929e-05
6.12015e-06
2.97255e-06
1.34313e-06
5.65503e-07
2.22116e-07
8.1444e-08
2.78854e-08
8.92016e-09
2.70673e-09
8.54328e-10
3.76101e-10
3.11489e-10
3.6347e-10
5.28696e-10
8.87541e-10
1.42365e-09
2.07694e-09
3.41078e-09
4.97411e-09
7.51861e-09
1.12381e-08
1.5257e-08
2.13988e-08
2.75479e-08
3.15351e-08
3.8173e-08
4.56602e-08
4.71468e-08
3.71645e-08
8.2464e-09
2.05905e-05
2.08446e-05
2.14769e-05
2.1903e-05
2.19919e-05
2.19431e-05
2.17112e-05
2.15817e-05
2.15933e-05
2.16575e-05
2.16522e-05
2.15802e-05
2.15448e-05
2.15716e-05
2.16497e-05
2.16523e-05
2.15995e-05
2.14301e-05
2.13443e-05
2.13427e-05
2.13665e-05
2.14568e-05
2.17211e-05
2.19361e-05
2.19909e-05
2.19783e-05
2.19659e-05
2.20007e-05
2.21618e-05
2.24142e-05
2.27069e-05
2.29501e-05
2.30523e-05
2.3085e-05
2.31515e-05
2.32817e-05
2.35648e-05
2.40188e-05
2.43104e-05
2.43762e-05
2.43029e-05
2.38042e-05
2.28984e-05
2.24394e-05
2.23266e-05
2.23602e-05
2.26412e-05
2.30243e-05
2.31493e-05
2.31477e-05
2.30742e-05
2.30114e-05
2.30163e-05
2.30728e-05
2.31246e-05
2.31304e-05
2.31064e-05
2.3089e-05
2.30961e-05
2.31598e-05
2.34946e-05
2.49617e-05
2.9705e-05
3.42212e-05
3.62776e-05
3.66314e-05
3.60434e-05
3.1982e-05
2.09315e-05
1.19293e-05
6.29888e-06
3.08815e-06
1.4093e-06
5.99615e-07
2.38109e-07
8.83092e-08
3.05967e-08
9.90382e-09
3.00267e-09
8.85398e-10
2.92947e-10
1.6624e-10
1.68203e-10
2.18445e-10
3.68181e-10
6.3088e-10
9.30649e-10
1.58965e-09
2.36242e-09
3.68305e-09
5.72467e-09
7.91003e-09
1.14512e-08
1.52219e-08
1.76387e-08
2.18081e-08
2.72197e-08
2.87072e-08
2.31682e-08
5.31102e-09
2.10803e-05
2.10626e-05
2.11855e-05
2.11441e-05
2.11319e-05
2.11931e-05
2.14309e-05
2.16863e-05
2.18156e-05
2.18157e-05
2.16676e-05
2.13884e-05
2.12427e-05
2.11948e-05
2.11974e-05
2.12269e-05
2.13067e-05
2.13585e-05
2.13755e-05
2.13665e-05
2.1307e-05
2.12908e-05
2.13217e-05
2.14775e-05
2.15982e-05
2.16255e-05
2.1657e-05
2.17449e-05
2.20207e-05
2.2748e-05
2.34386e-05
2.38196e-05
2.39223e-05
2.39014e-05
2.3724e-05
2.34054e-05
2.32914e-05
2.32903e-05
2.33079e-05
2.33083e-05
2.3253e-05
2.29462e-05
2.2372e-05
2.20435e-05
2.19438e-05
2.19557e-05
2.21339e-05
2.26493e-05
2.29242e-05
2.30213e-05
2.31189e-05
2.32829e-05
2.34277e-05
2.34805e-05
2.34649e-05
2.33283e-05
2.31831e-05
2.31395e-05
2.31415e-05
2.32005e-05
2.35279e-05
2.49651e-05
2.94362e-05
3.34548e-05
3.52357e-05
3.55021e-05
3.49255e-05
3.1262e-05
2.08527e-05
1.19777e-05
6.38321e-06
3.15915e-06
1.4554e-06
6.25187e-07
2.50701e-07
9.39165e-08
3.28793e-08
1.07584e-08
3.29133e-09
9.49103e-10
2.78707e-10
1.07695e-10
8.48465e-11
9.67326e-11
1.50824e-10
2.77838e-10
4.18433e-10
7.4014e-10
1.12037e-09
1.79962e-09
2.92181e-09
4.10516e-09
6.13729e-09
8.43896e-09
9.9214e-09
1.2484e-08
1.62926e-08
1.75887e-08
1.44932e-08
3.435e-09
2.06729e-05
2.14761e-05
2.16243e-05
2.15166e-05
2.13952e-05
2.1412e-05
2.16138e-05
2.18982e-05
2.19342e-05
2.18148e-05
2.17831e-05
2.18972e-05
2.19145e-05
2.18037e-05
2.16399e-05
2.15634e-05
2.15398e-05
2.15263e-05
2.15023e-05
2.14168e-05
2.13279e-05
2.13123e-05
2.13326e-05
2.14042e-05
2.14279e-05
2.1428e-05
2.14387e-05
2.15069e-05
2.17989e-05
2.26619e-05
2.34019e-05
2.37249e-05
2.37792e-05
2.37412e-05
2.35278e-05
2.32212e-05
2.30367e-05
2.29276e-05
2.28644e-05
2.28217e-05
2.27522e-05
2.25676e-05
2.21944e-05
2.19484e-05
2.18718e-05
2.18793e-05
2.1964e-05
2.22052e-05
2.24994e-05
2.27831e-05
2.31218e-05
2.3487e-05
2.36671e-05
2.36771e-05
2.35932e-05
2.33289e-05
2.31655e-05
2.31149e-05
2.31156e-05
2.31724e-05
2.3495e-05
2.49137e-05
2.92484e-05
3.30337e-05
3.46806e-05
3.49119e-05
3.43516e-05
3.08396e-05
2.07902e-05
1.20313e-05
6.45792e-06
3.22066e-06
1.49585e-06
6.4812e-07
2.62279e-07
9.92142e-08
3.50995e-08
1.16157e-08
3.59721e-09
1.04425e-09
2.92854e-10
9.01022e-11
4.77023e-11
4.72717e-11
6.40173e-11
1.19823e-10
1.87905e-10
3.44281e-10
5.32588e-10
8.7594e-10
1.49282e-09
2.13241e-09
3.29248e-09
4.6926e-09
5.60921e-09
7.16252e-09
9.78875e-09
1.08397e-08
9.10207e-09
2.23075e-09
2.07632e-05
2.14351e-05
2.1738e-05
2.1842e-05
2.18695e-05
2.18435e-05
2.18237e-05
2.18985e-05
2.20362e-05
2.20765e-05
2.20603e-05
2.202e-05
2.20426e-05
2.21472e-05
2.21429e-05
2.19914e-05
2.18713e-05
2.18788e-05
2.1922e-05
2.19132e-05
2.1818e-05
2.1621e-05
2.15076e-05
2.14496e-05
2.14108e-05
2.13988e-05
2.14115e-05
2.15055e-05
2.19026e-05
2.2627e-05
2.30366e-05
2.3145e-05
2.31358e-05
2.30116e-05
2.27862e-05
2.26821e-05
2.26591e-05
2.26894e-05
2.27573e-05
2.2757e-05
2.27277e-05
2.261e-05
2.2307e-05
2.2071e-05
2.19871e-05
2.19901e-05
2.20587e-05
2.22239e-05
2.2312e-05
2.24557e-05
2.28825e-05
2.33577e-05
2.35814e-05
2.36036e-05
2.35378e-05
2.32595e-05
2.30302e-05
2.29574e-05
2.29551e-05
2.30087e-05
2.33275e-05
2.47327e-05
2.90518e-05
3.28146e-05
3.44413e-05
3.4673e-05
3.41434e-05
3.07873e-05
2.09009e-05
1.21545e-05
6.56717e-06
3.29891e-06
1.54426e-06
6.74756e-07
2.75514e-07
1.0521e-07
3.75956e-08
1.25766e-08
3.94049e-09
1.15741e-09
3.21132e-10
9.13114e-11
3.34751e-11
2.52303e-11
2.94892e-11
5.09943e-11
8.39801e-11
1.59721e-10
2.54293e-10
4.24102e-10
7.64197e-10
1.10607e-09
1.76824e-09
2.61693e-09
3.18696e-09
4.1139e-09
5.90599e-09
6.71805e-09
5.74053e-09
1.45471e-09
2.08646e-05
2.13404e-05
2.194e-05
2.20488e-05
2.20007e-05
2.19131e-05
2.16965e-05
2.15035e-05
2.1454e-05
2.14773e-05
2.16801e-05
2.2179e-05
2.23569e-05
2.233e-05
2.22219e-05
2.2193e-05
2.22549e-05
2.26713e-05
2.32759e-05
2.34702e-05
2.34197e-05
2.30062e-05
2.22526e-05
2.17766e-05
2.15347e-05
2.14525e-05
2.14536e-05
2.15413e-05
2.19303e-05
2.23012e-05
2.23832e-05
2.23577e-05
2.22007e-05
2.20292e-05
2.19858e-05
2.20086e-05
2.21824e-05
2.26483e-05
2.29299e-05
2.29979e-05
2.2989e-05
2.29301e-05
2.27776e-05
2.26712e-05
2.26449e-05
2.26513e-05
2.26577e-05
2.25955e-05
2.24775e-05
2.24813e-05
2.25608e-05
2.29061e-05
2.32593e-05
2.33663e-05
2.33544e-05
2.32007e-05
2.28534e-05
2.26763e-05
2.26414e-05
2.26757e-05
2.2951e-05
2.42791e-05