/*--------------------------------*- C++ -*----------------------------------*\
| =========                 |                                                 |
| \\      /  F ield         | OpenFOAM: The Open Source CFD Toolbox           |
|  \\    /   O peration     | Version:  4.1                                   |
|   \\  /    A nd           | Web:      www.OpenFOAM.org                      |
|    \\/     M anipulation  |                                                 |
\*---------------------------------------------------------------------------*/
FoamFile
{
    version     2.0;
    format      ascii;
    class       volScalarField;
    location    "0.15";
    object      p;
}
// * * * * * * * * * * * * * * * * * * * * * * * * * * * * * * * * * * * * * //

dimensions      [0 2 -2 0 0 0 0];

internalField   nonuniform List<scalar> 
43750
(
-2665.29
-2727.75
-2735.26
-2725.45
-2711.66
-2698.54
-2687.58
-2679.18
-2673.14
-2669.17
-2666.92
-2666.09
-2666.38
-2667.58
-2669.48
-2671.9
-2674.7
-2677.74
-2680.92
-2684.15
-2687.37
-2690.53
-2693.58
-2696.47
-2699.17
-2701.65
-2703.87
-2705.84
-2707.53
-2708.97
-2710.13
-2711.02
-2711.64
-2711.97
-2712.03
-2711.82
-2711.36
-2710.64
-2709.68
-2708.48
-2707.04
-2705.39
-2703.51
-2701.43
-2699.15
-2696.68
-2694.04
-2691.24
-2688.27
-2685.14
-2681.88
-2678.5
-2675
-2671.39
-2667.67
-2663.83
-2659.9
-2655.91
-2651.89
-2647.85
-2643.79
-2639.68
-2635.52
-2631.32
-2627.08
-2622.82
-2618.56
-2614.31
-2610.09
-2605.91
-2601.77
-2597.68
-2593.64
-2589.68
-2585.78
-2581.97
-2578.25
-2574.62
-2571.09
-2567.68
-2564.37
-2561.19
-2558.13
-2555.21
-2552.42
-2549.77
-2547.27
-2544.92
-2542.71
-2540.67
-2538.78
-2537.07
-2535.52
-2534.15
-2532.96
-2531.96
-2531.16
-2530.54
-2530.14
-2529.93
-2825.31
-2783.05
-2754.29
-2730.57
-2711.46
-2696.46
-2685.12
-2676.84
-2671.1
-2667.45
-2665.51
-2664.96
-2665.51
-2666.92
-2668.98
-2671.54
-2674.44
-2677.58
-2680.86
-2684.19
-2687.49
-2690.7
-2693.77
-2696.67
-2699.38
-2701.86
-2704.1
-2706.1
-2707.82
-2709.27
-2710.44
-2711.33
-2711.93
-2712.26
-2712.32
-2712.11
-2711.64
-2710.92
-2709.95
-2708.74
-2707.29
-2705.62
-2703.74
-2701.65
-2699.36
-2696.88
-2694.23
-2691.42
-2688.45
-2685.33
-2682.07
-2678.68
-2675.17
-2671.55
-2667.82
-2663.99
-2660.08
-2656.1
-2652.08
-2648.02
-2643.93
-2639.79
-2635.61
-2631.38
-2627.12
-2622.86
-2618.59
-2614.34
-2610.12
-2605.93
-2601.78
-2597.68
-2593.64
-2589.67
-2585.77
-2581.95
-2578.21
-2574.58
-2571.04
-2567.61
-2564.3
-2561.11
-2558.04
-2555.11
-2552.31
-2549.65
-2547.13
-2544.77
-2542.55
-2540.5
-2538.6
-2536.88
-2535.33
-2533.95
-2532.76
-2531.75
-2530.94
-2530.33
-2529.92
-2529.71
-2949.58
-2832.89
-2766.49
-2729.56
-2706.24
-2690.48
-2679.51
-2671.92
-2666.94
-2664
-2662.71
-2662.71
-2663.73
-2665.55
-2667.96
-2670.82
-2673.97
-2677.32
-2680.76
-2684.21
-2687.62
-2690.93
-2694.09
-2697.07
-2699.84
-2702.37
-2704.64
-2706.64
-2708.37
-2709.82
-2711
-2711.89
-2712.49
-2712.81
-2712.86
-2712.64
-2712.16
-2711.42
-2710.44
-2709.21
-2707.76
-2706.07
-2704.17
-2702.07
-2699.76
-2697.27
-2694.6
-2691.77
-2688.78
-2685.64
-2682.37
-2678.97
-2675.45
-2671.82
-2668.08
-2664.25
-2660.33
-2656.35
-2652.32
-2648.23
-2644.1
-2639.93
-2635.72
-2631.48
-2627.22
-2622.95
-2618.68
-2614.42
-2610.19
-2605.99
-2601.83
-2597.72
-2593.67
-2589.68
-2585.77
-2581.94
-2578.19
-2574.54
-2570.99
-2567.54
-2564.21
-2561
-2557.92
-2554.96
-2552.14
-2549.46
-2546.93
-2544.55
-2542.32
-2540.25
-2538.34
-2536.6
-2535.03
-2533.65
-2532.45
-2531.43
-2530.62
-2530
-2529.58
-2529.38
-2909.51
-2800.59
-2748.56
-2715.82
-2694.41
-2680.11
-2670.57
-2664.41
-2660.73
-2658.95
-2658.64
-2659.48
-2661.21
-2663.61
-2666.52
-2669.8
-2673.31
-2676.95
-2680.64
-2684.31
-2687.9
-2691.35
-2694.62
-2697.69
-2700.52
-2703.1
-2705.42
-2707.46
-2709.21
-2710.68
-2711.86
-2712.75
-2713.34
-2713.66
-2713.69
-2713.46
-2712.96
-2712.2
-2711.19
-2709.93
-2708.45
-2706.74
-2704.82
-2702.69
-2700.36
-2697.85
-2695.15
-2692.3
-2689.28
-2686.12
-2682.83
-2679.4
-2675.86
-2672.2
-2668.45
-2664.59
-2660.66
-2656.66
-2652.6
-2648.49
-2644.33
-2640.13
-2635.9
-2631.63
-2627.35
-2623.06
-2618.77
-2614.49
-2610.24
-2606.03
-2601.85
-2597.72
-2593.66
-2589.65
-2585.72
-2581.87
-2578.11
-2574.44
-2570.87
-2567.4
-2564.05
-2560.82
-2557.72
-2554.74
-2551.9
-2549.21
-2546.65
-2544.25
-2542.01
-2539.92
-2538
-2536.24
-2534.67
-2533.27
-2532.06
-2531.04
-2530.21
-2529.59
-2529.17
-2528.96
-2731.01
-2734.66
-2710.27
-2689.52
-2674.77
-2664.71
-2658.23
-2654.42
-2652.63
-2652.4
-2653.39
-2655.31
-2657.96
-2661.14
-2664.71
-2668.53
-2672.51
-2676.54
-2680.55
-2684.49
-2688.29
-2691.92
-2695.35
-2698.54
-2701.47
-2704.12
-2706.49
-2708.57
-2710.35
-2711.83
-2713
-2713.89
-2714.48
-2714.78
-2714.79
-2714.53
-2714
-2713.21
-2712.17
-2710.89
-2709.38
-2707.64
-2705.68
-2703.52
-2701.16
-2698.61
-2695.89
-2692.99
-2689.95
-2686.75
-2683.42
-2679.97
-2676.39
-2672.7
-2668.92
-2665.04
-2661.08
-2657.04
-2652.95
-2648.81
-2644.61
-2640.38
-2636.11
-2631.81
-2627.5
-2623.19
-2618.87
-2614.58
-2610.3
-2606.06
-2601.86
-2597.71
-2593.62
-2589.6
-2585.64
-2581.77
-2577.98
-2574.28
-2570.69
-2567.21
-2563.83
-2560.58
-2557.45
-2554.46
-2551.6
-2548.88
-2546.31
-2543.89
-2541.63
-2539.52
-2537.59
-2535.83
-2534.24
-2532.84
-2531.62
-2530.59
-2529.76
-2529.14
-2528.72
-2528.51
-2770.49
-2695.5
-2671.48
-2658.68
-2650.64
-2645.76
-2643.19
-2642.39
-2642.99
-2644.69
-2647.26
-2650.49
-2654.22
-2658.31
-2662.65
-2667.13
-2671.65
-2676.15
-2680.55
-2684.81
-2688.88
-2692.72
-2696.32
-2699.65
-2702.68
-2705.42
-2707.86
-2709.98
-2711.78
-2713.28
-2714.46
-2715.34
-2715.91
-2716.19
-2716.18
-2715.89
-2715.33
-2714.51
-2713.43
-2712.1
-2710.55
-2708.76
-2706.76
-2704.55
-2702.15
-2699.56
-2696.8
-2693.87
-2690.78
-2687.54
-2684.17
-2680.67
-2677.05
-2673.33
-2669.5
-2665.58
-2661.58
-2657.51
-2653.38
-2649.2
-2644.96
-2640.69
-2636.38
-2632.04
-2627.7
-2623.35
-2619
-2614.67
-2610.37
-2606.1
-2601.87
-2597.69
-2593.57
-2589.51
-2585.52
-2581.62
-2577.8
-2574.08
-2570.46
-2566.94
-2563.54
-2560.26
-2557.11
-2554.09
-2551.2
-2548.46
-2545.87
-2543.43
-2541.15
-2539.04
-2537.09
-2535.32
-2533.72
-2532.31
-2531.09
-2530.06
-2529.23
-2528.6
-2528.18
-2527.97
-2550.48
-2606.86
-2619.19
-2622.17
-2623.34
-2624.58
-2626.43
-2628.98
-2632.21
-2636.04
-2640.37
-2645.09
-2650.08
-2655.23
-2660.45
-2665.67
-2670.82
-2675.84
-2680.68
-2685.31
-2689.67
-2693.77
-2697.56
-2701.05
-2704.21
-2707.04
-2709.54
-2711.7
-2713.54
-2715.04
-2716.22
-2717.09
-2717.64
-2717.89
-2717.85
-2717.52
-2716.92
-2716.05
-2714.93
-2713.55
-2711.95
-2710.11
-2708.06
-2705.8
-2703.34
-2700.7
-2697.89
-2694.9
-2691.76
-2688.48
-2685.06
-2681.51
-2677.84
-2674.07
-2670.19
-2666.23
-2662.18
-2658.07
-2653.89
-2649.66
-2645.38
-2641.05
-2636.7
-2632.32
-2627.93
-2623.54
-2619.15
-2614.79
-2610.44
-2606.13
-2601.87
-2597.65
-2593.49
-2589.4
-2585.38
-2581.44
-2577.58
-2573.83
-2570.17
-2566.62
-2563.19
-2559.87
-2556.69
-2553.64
-2550.73
-2547.96
-2545.35
-2542.89
-2540.59
-2538.46
-2536.5
-2534.71
-2533.11
-2531.69
-2530.47
-2529.44
-2528.6
-2527.98
-2527.56
-2527.35
-2562.87
-2566.87
-2578.14
-2587.79
-2595.87
-2602.71
-2608.91
-2614.9
-2620.91
-2627.01
-2633.21
-2639.49
-2645.8
-2652.07
-2658.26
-2664.29
-2670.13
-2675.73
-2681.05
-2686.06
-2690.76
-2695.11
-2699.12
-2702.77
-2706.06
-2708.99
-2711.55
-2713.76
-2715.62
-2717.14
-2718.31
-2719.16
-2719.69
-2719.91
-2719.82
-2719.45
-2718.79
-2717.87
-2716.68
-2715.25
-2713.58
-2711.68
-2709.57
-2707.25
-2704.73
-2702.03
-2699.15
-2696.11
-2692.91
-2689.57
-2686.09
-2682.48
-2678.76
-2674.92
-2670.99
-2666.97
-2662.87
-2658.71
-2654.48
-2650.19
-2645.86
-2641.48
-2637.07
-2632.64
-2628.2
-2623.76
-2619.33
-2614.92
-2610.53
-2606.18
-2601.87
-2597.61
-2593.4
-2589.27
-2585.2
-2581.22
-2577.33
-2573.53
-2569.83
-2566.24
-2562.77
-2559.42
-2556.2
-2553.12
-2550.17
-2547.38
-2544.74
-2542.25
-2539.93
-2537.78
-2535.8
-2534.01
-2532.39
-2530.97
-2529.74
-2528.7
-2527.87
-2527.24
-2526.82
-2526.61
-2495.77
-2510.73
-2536.43
-2555.67
-2570.01
-2581.61
-2591.63
-2600.77
-2609.4
-2617.74
-2625.87
-2633.81
-2641.53
-2649.01
-2656.22
-2663.12
-2669.68
-2675.88
-2681.71
-2687.14
-2692.18
-2696.81
-2701.04
-2704.86
-2708.28
-2711.3
-2713.93
-2716.18
-2718.06
-2719.57
-2720.73
-2721.55
-2722.05
-2722.22
-2722.08
-2721.65
-2720.93
-2719.94
-2718.69
-2717.19
-2715.45
-2713.49
-2711.3
-2708.91
-2706.32
-2703.55
-2700.6
-2697.49
-2694.22
-2690.81
-2687.26
-2683.59
-2679.79
-2675.9
-2671.9
-2667.82
-2663.66
-2659.44
-2655.15
-2650.8
-2646.4
-2641.96
-2637.5
-2633.01
-2628.51
-2624.02
-2619.53
-2615.07
-2610.63
-2606.22
-2601.86
-2597.55
-2593.3
-2589.12
-2585.01
-2580.98
-2577.04
-2573.19
-2569.45
-2565.82
-2562.3
-2558.91
-2555.65
-2552.53
-2549.55
-2546.72
-2544.04
-2541.53
-2539.18
-2537.01
-2535.01
-2533.2
-2531.57
-2530.14
-2528.9
-2527.86
-2527.02
-2526.39
-2525.97
-2525.76
-2407.18
-2479.08
-2505.27
-2527.84
-2546.55
-2561.98
-2575.27
-2587.23
-2598.33
-2608.82
-2618.82
-2628.38
-2637.52
-2646.22
-2654.48
-2662.27
-2669.58
-2676.42
-2682.76
-2688.63
-2694.01
-2698.92
-2703.36
-2707.35
-2710.9
-2714.01
-2716.69
-2718.97
-2720.86
-2722.37
-2723.5
-2724.29
-2724.73
-2724.85
-2724.65
-2724.15
-2723.36
-2722.29
-2720.96
-2719.38
-2717.56
-2715.51
-2713.24
-2710.77
-2708.1
-2705.25
-2702.23
-2699.04
-2695.69
-2692.2
-2688.58
-2684.83
-2680.96
-2676.99
-2672.93
-2668.78
-2664.55
-2660.25
-2655.89
-2651.48
-2647.01
-2642.51
-2637.97
-2633.42
-2628.87
-2624.31
-2619.76
-2615.24
-2610.74
-2606.28
-2601.86
-2597.49
-2593.19
-2588.95
-2584.78
-2580.7
-2576.71
-2572.81
-2569.02
-2565.34
-2561.77
-2558.34
-2555.03
-2551.86
-2548.84
-2545.97
-2543.26
-2540.72
-2538.34
-2536.14
-2534.12
-2532.29
-2530.64
-2529.19
-2527.94
-2526.9
-2526.06
-2525.42
-2525
-2524.79
-2330.51
-2410.92
-2470.54
-2503.65
-2526.38
-2544.47
-2560.15
-2574.41
-2587.71
-2600.25
-2612.12
-2623.35
-2633.93
-2643.89
-2653.21
-2661.9
-2669.97
-2677.44
-2684.3
-2690.59
-2696.32
-2701.5
-2706.15
-2710.29
-2713.95
-2717.13
-2719.87
-2722.17
-2724.05
-2725.53
-2726.63
-2727.36
-2727.74
-2727.79
-2727.52
-2726.94
-2726.06
-2724.91
-2723.49
-2721.82
-2719.91
-2717.77
-2715.41
-2712.84
-2710.08
-2707.14
-2704.03
-2700.75
-2697.32
-2693.74
-2690.03
-2686.2
-2682.25
-2678.21
-2674.06
-2669.84
-2665.53
-2661.16
-2656.72
-2652.23
-2647.69
-2643.11
-2638.51
-2633.88
-2629.26
-2624.63
-2620.02
-2615.43
-2610.86
-2606.34
-2601.86
-2597.43
-2593.06
-2588.76
-2584.53
-2580.39
-2576.34
-2572.39
-2568.54
-2564.8
-2561.19
-2557.7
-2554.35
-2551.13
-2548.07
-2545.15
-2542.4
-2539.82
-2537.41
-2535.17
-2533.13
-2531.27
-2529.6
-2528.14
-2526.87
-2525.82
-2524.97
-2524.33
-2523.9
-2523.69
-2394.18
-2443.31
-2465.86
-2490.02
-2510.94
-2529.49
-2546.59
-2562.71
-2577.99
-2592.47
-2606.13
-2618.97
-2630.99
-2642.18
-2652.56
-2662.15
-2670.97
-2679.05
-2686.42
-2693.12
-2699.17
-2704.6
-2709.44
-2713.73
-2717.48
-2720.72
-2723.48
-2725.78
-2727.64
-2729.08
-2730.13
-2730.8
-2731.1
-2731.07
-2730.7
-2730.03
-2729.06
-2727.8
-2726.28
-2724.51
-2722.49
-2720.24
-2717.78
-2715.12
-2712.26
-2709.22
-2706
-2702.63
-2699.1
-2695.43
-2691.63
-2687.7
-2683.67
-2679.53
-2675.3
-2670.99
-2666.6
-2662.14
-2657.62
-2653.05
-2648.43
-2643.77
-2639.09
-2634.39
-2629.68
-2624.98
-2620.3
-2615.63
-2611
-2606.4
-2601.85
-2597.36
-2592.92
-2588.55
-2584.26
-2580.05
-2575.94
-2571.92
-2568.01
-2564.22
-2560.55
-2557
-2553.59
-2550.33
-2547.21
-2544.25
-2541.45
-2538.83
-2536.38
-2534.11
-2532.03
-2530.14
-2528.45
-2526.97
-2525.69
-2524.61
-2523.75
-2523.11
-2522.67
-2522.46
-2396.13
-2426.27
-2458.11
-2478.87
-2497.37
-2515.62
-2533.81
-2551.67
-2568.94
-2585.4
-2600.91
-2615.41
-2628.87
-2641.29
-2652.72
-2663.17
-2672.71
-2681.38
-2689.22
-2696.3
-2702.64
-2708.29
-2713.3
-2717.69
-2721.51
-2724.79
-2727.55
-2729.83
-2731.65
-2733.04
-2734.01
-2734.59
-2734.81
-2734.67
-2734.2
-2733.42
-2732.34
-2730.97
-2729.33
-2727.44
-2725.31
-2722.95
-2720.38
-2717.6
-2714.63
-2711.47
-2708.15
-2704.67
-2701.04
-2697.26
-2693.36
-2689.34
-2685.2
-2680.97
-2676.64
-2672.23
-2667.75
-2663.2
-2658.59
-2653.93
-2649.23
-2644.49
-2639.72
-2634.94
-2630.15
-2625.37
-2620.6
-2615.86
-2611.15
-2606.47
-2601.85
-2597.27
-2592.76
-2588.32
-2583.96
-2579.68
-2575.5
-2571.42
-2567.44
-2563.58
-2559.84
-2556.24
-2552.77
-2549.45
-2546.28
-2543.27
-2540.42
-2537.75
-2535.26
-2532.95
-2530.83
-2528.91
-2527.19
-2525.68
-2524.38
-2523.29
-2522.41
-2521.76
-2521.32
-2521.1
-2432.94
-2458.33
-2462.74
-2470.94
-2484.78
-2502.27
-2521.58
-2541.39
-2560.81
-2579.35
-2596.75
-2612.9
-2627.77
-2641.4
-2653.82
-2665.11
-2675.32
-2684.53
-2692.8
-2700.21
-2706.8
-2712.64
-2717.77
-2722.24
-2726.1
-2729.38
-2732.11
-2734.35
-2736.1
-2737.4
-2738.29
-2738.77
-2738.87
-2738.62
-2738.02
-2737.11
-2735.9
-2734.41
-2732.64
-2730.63
-2728.37
-2725.88
-2723.18
-2720.28
-2717.19
-2713.91
-2710.47
-2706.87
-2703.13
-2699.24
-2695.23
-2691.1
-2686.86
-2682.52
-2678.09
-2673.58
-2668.99
-2664.34
-2659.64
-2654.89
-2650.09
-2645.26
-2640.4
-2635.53
-2630.65
-2625.78
-2620.93
-2616.1
-2611.3
-2606.54
-2601.84
-2597.18
-2592.59
-2588.08
-2583.64
-2579.28
-2575.02
-2570.87
-2566.82
-2562.89
-2559.08
-2555.41
-2551.88
-2548.49
-2545.26
-2542.19
-2539.3
-2536.57
-2534.03
-2531.68
-2529.53
-2527.57
-2525.82
-2524.28
-2522.95
-2521.84
-2520.95
-2520.28
-2519.83
-2519.61
-2638.92
-2504.75
-2462.21
-2456.56
-2467.67
-2486.65
-2508.7
-2531.38
-2553.47
-2574.37
-2593.8
-2611.65
-2627.94
-2642.72
-2656.08
-2668.12
-2678.93
-2688.62
-2697.26
-2704.93
-2711.72
-2717.69
-2722.9
-2727.4
-2731.26
-2734.5
-2737.19
-2739.34
-2741
-2742.2
-2742.96
-2743.32
-2743.29
-2742.9
-2742.17
-2741.12
-2739.77
-2738.13
-2736.22
-2734.06
-2731.66
-2729.04
-2726.2
-2723.16
-2719.94
-2716.53
-2712.97
-2709.24
-2705.37
-2701.36
-2697.23
-2692.98
-2688.63
-2684.18
-2679.63
-2675.01
-2670.32
-2665.57
-2660.76
-2655.9
-2651.01
-2646.08
-2641.13
-2636.16
-2631.19
-2626.22
-2621.28
-2616.35
-2611.47
-2606.62
-2601.82
-2597.08
-2592.41
-2587.81
-2583.28
-2578.85
-2574.51
-2570.27
-2566.14
-2562.14
-2558.26
-2554.52
-2550.91
-2547.46
-2544.17
-2541.04
-2538.08
-2535.3
-2532.71
-2530.31
-2528.11
-2526.11
-2524.32
-2522.75
-2521.4
-2520.26
-2519.35
-2518.67
-2518.21
-2517.98
-2598.81
-2469.87
-2427
-2426.12
-2443.64
-2468.35
-2495.29
-2522.03
-2547.41
-2570.93
-2592.45
-2611.98
-2629.6
-2645.45
-2659.66
-2672.36
-2683.68
-2693.75
-2702.67
-2710.55
-2717.46
-2723.5
-2728.74
-2733.23
-2737.03
-2740.21
-2742.79
-2744.83
-2746.37
-2747.43
-2748.05
-2748.26
-2748.08
-2747.53
-2746.64
-2745.43
-2743.92
-2742.12
-2740.06
-2737.74
-2735.19
-2732.41
-2729.43
-2726.24
-2722.87
-2719.33
-2715.62
-2711.76
-2707.76
-2703.62
-2699.36
-2694.99
-2690.51
-2685.94
-2681.28
-2676.54
-2671.73
-2666.87
-2661.95
-2656.98
-2651.98
-2646.95
-2641.89
-2636.83
-2631.75
-2626.69
-2621.64
-2616.62
-2611.64
-2606.7
-2601.81
-2596.97
-2592.21
-2587.51
-2582.9
-2578.38
-2573.95
-2569.63
-2565.42
-2561.33
-2557.37
-2553.55
-2549.88
-2546.35
-2542.99
-2539.79
-2536.77
-2533.93
-2531.28
-2528.83
-2526.58
-2524.54
-2522.71
-2521.1
-2519.72
-2518.55
-2517.62
-2516.92
-2516.46
-2516.22
-2368.84
-2340.37
-2350.16
-2377.47
-2411.83
-2447.61
-2482.02
-2513.98
-2543.12
-2569.44
-2593.07
-2614.2
-2633.05
-2649.83
-2664.74
-2677.97
-2689.68
-2700.03
-2709.14
-2717.12
-2724.09
-2730.13
-2735.32
-2739.73
-2743.44
-2746.49
-2748.95
-2750.84
-2752.21
-2753.11
-2753.55
-2753.59
-2753.23
-2752.51
-2751.44
-2750.05
-2748.37
-2746.4
-2744.16
-2741.67
-2738.95
-2736.01
-2732.87
-2729.52
-2726
-2722.31
-2718.45
-2714.44
-2710.29
-2706.02
-2701.62
-2697.11
-2692.51
-2687.81
-2683.02
-2678.16
-2673.23
-2668.24
-2663.21
-2658.12
-2653.01
-2647.86
-2642.7
-2637.53
-2632.35
-2627.18
-2622.03
-2616.91
-2611.82
-2606.78
-2601.78
-2596.85
-2591.99
-2587.2
-2582.49
-2577.87
-2573.35
-2568.94
-2564.64
-2560.47
-2556.43
-2552.52
-2548.76
-2545.16
-2541.72
-2538.45
-2535.36
-2532.46
-2529.75
-2527.24
-2524.94
-2522.85
-2520.98
-2519.33
-2517.91
-2516.72
-2515.76
-2515.04
-2514.56
-2514.32
-2059.33
-2166.38
-2251.37
-2321.03
-2378.91
-2428.31
-2471.24
-2508.78
-2541.72
-2570.7
-2596.22
-2618.72
-2638.57
-2656.07
-2671.51
-2685.1
-2697.06
-2707.54
-2716.72
-2724.71
-2731.63
-2737.59
-2742.67
-2746.96
-2750.51
-2753.4
-2755.66
-2757.37
-2758.55
-2759.24
-2759.48
-2759.31
-2758.75
-2757.83
-2756.56
-2754.98
-2753.1
-2750.93
-2748.51
-2745.84
-2742.94
-2739.82
-2736.5
-2732.99
-2729.31
-2725.45
-2721.44
-2717.28
-2712.98
-2708.55
-2704.01
-2699.36
-2694.62
-2689.78
-2684.86
-2679.87
-2674.81
-2669.7
-2664.53
-2659.33
-2654.09
-2648.83
-2643.54
-2638.26
-2632.97
-2627.69
-2622.43
-2617.2
-2612
-2606.85
-2601.76
-2596.72
-2591.75
-2586.86
-2582.05
-2577.33
-2572.71
-2568.21
-2563.81
-2559.55
-2555.41
-2551.42
-2547.58
-2543.89
-2540.37
-2537.02
-2533.86
-2530.89
-2528.11
-2525.54
-2523.18
-2521.04
-2519.12
-2517.42
-2515.97
-2514.74
-2513.76
-2513.03
-2512.53
-2512.29
-1848.36
-2041.26
-2178.79
-2278.03
-2354.3
-2415.47
-2465.81
-2508.13
-2544.23
-2575.35
-2602.35
-2625.87
-2646.41
-2664.39
-2680.12
-2693.88
-2705.9
-2716.38
-2725.49
-2733.37
-2740.15
-2745.94
-2750.83
-2754.91
-2758.25
-2760.91
-2762.95
-2764.42
-2765.36
-2765.82
-2765.84
-2765.43
-2764.64
-2763.49
-2762.01
-2760.21
-2758.12
-2755.75
-2753.12
-2750.25
-2747.16
-2743.85
-2740.35
-2736.66
-2732.79
-2728.76
-2724.58
-2720.26
-2715.8
-2711.22
-2706.53
-2701.73
-2696.83
-2691.85
-2686.79
-2681.66
-2676.47
-2671.22
-2665.93
-2660.59
-2655.23
-2649.84
-2644.43
-2639.02
-2633.62
-2628.22
-2622.85
-2617.5
-2612.19
-2606.93
-2601.72
-2596.57
-2591.49
-2586.49
-2581.58
-2576.75
-2572.03
-2567.42
-2562.93
-2558.56
-2554.33
-2550.24
-2546.31
-2542.53
-2538.93
-2535.5
-2532.26
-2529.21
-2526.36
-2523.72
-2521.3
-2519.1
-2517.13
-2515.39
-2513.89
-2512.63
-2511.63
-2510.87
-2510.36
-2510.11
-1671.27
-1952.27
-2131.51
-2254.87
-2344.74
-2413.42
-2468.42
-2513.74
-2551.79
-2584.18
-2611.99
-2636.02
-2656.85
-2674.95
-2690.69
-2704.39
-2716.28
-2726.59
-2735.49
-2743.14
-2749.67
-2755.19
-2759.81
-2763.61
-2766.67
-2769.05
-2770.81
-2772
-2772.67
-2772.86
-2772.61
-2771.95
-2770.9
-2769.51
-2767.78
-2765.74
-2763.42
-2760.82
-2757.98
-2754.9
-2751.6
-2748.09
-2744.39
-2740.5
-2736.45
-2732.24
-2727.88
-2723.38
-2718.76
-2714.01
-2709.16
-2704.2
-2699.16
-2694.02
-2688.81
-2683.54
-2678.2
-2672.81
-2667.39
-2661.92
-2656.42
-2650.9
-2645.36
-2639.82
-2634.29
-2628.77
-2623.27
-2617.81
-2612.38
-2607
-2601.67
-2596.41
-2591.21
-2586.1
-2581.07
-2576.14
-2571.31
-2566.59
-2561.99
-2557.52
-2553.18
-2549
-2544.96
-2541.09
-2537.4
-2533.88
-2530.55
-2527.42
-2524.5
-2521.79
-2519.3
-2517.03
-2515.01
-2513.22
-2511.68
-2510.38
-2509.35
-2508.56
-2508.04
-2507.78
-1732.57
-1992.24
-2156.85
-2270.25
-2356.51
-2425.12
-2480.68
-2526.53
-2564.96
-2597.54
-2625.4
-2649.34
-2670
-2687.86
-2703.32
-2716.7
-2728.25
-2738.2
-2746.74
-2754.03
-2760.19
-2765.35
-2769.61
-2773.05
-2775.76
-2777.8
-2779.23
-2780.1
-2780.46
-2780.35
-2779.8
-2778.85
-2777.52
-2775.85
-2773.86
-2771.56
-2768.99
-2766.16
-2763.08
-2759.77
-2756.25
-2752.53
-2748.62
-2744.53
-2740.28
-2735.88
-2731.33
-2726.65
-2721.84
-2716.93
-2711.9
-2706.79
-2701.58
-2696.29
-2690.93
-2685.5
-2680.01
-2674.48
-2668.91
-2663.3
-2657.66
-2652
-2646.33
-2640.66
-2634.99
-2629.34
-2623.71
-2618.12
-2612.57
-2607.06
-2601.61
-2596.23
-2590.91
-2585.68
-2580.53
-2575.48
-2570.54
-2565.7
-2560.99
-2556.41
-2551.97
-2547.67
-2543.54
-2539.57
-2535.77
-2532.16
-2528.74
-2525.52
-2522.52
-2519.73
-2517.17
-2514.84
-2512.75
-2510.91
-2509.32
-2507.99
-2506.92
-2506.11
-2505.57
-2505.3
-1951.58
-2082.39
-2203.66
-2304.97
-2385.41
-2449.81
-2502.69
-2546.81
-2584.02
-2615.67
-2642.73
-2665.97
-2685.96
-2703.19
-2718.04
-2730.83
-2741.82
-2751.23
-2759.25
-2766.03
-2771.71
-2776.41
-2780.22
-2783.24
-2785.54
-2787.18
-2788.23
-2788.73
-2788.73
-2788.28
-2787.4
-2786.13
-2784.49
-2782.53
-2780.24
-2777.68
-2774.84
-2771.74
-2768.41
-2764.86
-2761.11
-2757.16
-2753.03
-2748.73
-2744.28
-2739.67
-2734.93
-2730.05
-2725.06
-2719.96
-2714.76
-2709.47
-2704.1
-2698.65
-2693.12
-2687.53
-2681.89
-2676.21
-2670.49
-2664.74
-2658.95
-2653.15
-2647.33
-2641.51
-2635.71
-2629.92
-2624.16
-2618.44
-2612.75
-2607.12
-2601.54
-2596.03
-2590.59
-2585.23
-2579.96
-2574.79
-2569.72
-2564.77
-2559.94
-2555.24
-2550.68
-2546.28
-2542.03
-2537.95
-2534.05
-2530.34
-2526.83
-2523.52
-2520.42
-2517.55
-2514.91
-2512.51
-2510.36
-2508.46
-2506.82
-2505.45
-2504.34
-2503.51
-2502.95
-2502.67
-2148.85
-2221.4
-2296.11
-2367.61
-2430.96
-2486.08
-2533.41
-2573.93
-2608.62
-2638.36
-2663.88
-2685.81
-2704.67
-2720.89
-2734.82
-2746.77
-2756.98
-2765.66
-2772.99
-2779.14
-2784.22
-2788.35
-2791.63
-2794.14
-2795.96
-2797.15
-2797.76
-2797.85
-2797.46
-2796.63
-2795.39
-2793.77
-2791.81
-2789.52
-2786.93
-2784.07
-2780.94
-2777.58
-2773.98
-2770.18
-2766.17
-2761.98
-2757.62
-2753.1
-2748.42
-2743.61
-2738.66
-2733.59
-2728.41
-2723.12
-2717.73
-2712.26
-2706.71
-2701.09
-2695.39
-2689.64
-2683.84
-2678
-2672.13
-2666.22
-2660.29
-2654.33
-2648.37
-2642.4
-2636.45
-2630.52
-2624.62
-2618.76
-2612.94
-2607.17
-2601.46
-2595.82
-2590.25
-2584.76
-2579.36
-2574.06
-2568.86
-2563.78
-2558.83
-2554.01
-2549.33
-2544.8
-2540.44
-2536.25
-2532.24
-2528.42
-2524.8
-2521.39
-2518.21
-2515.25
-2512.52
-2510.05
-2507.83
-2505.86
-2504.17
-2502.75
-2501.61
-2500.75
-2500.17
-2499.88
-2268.4
-2332.03
-2384.31
-2435.13
-2484.55
-2530.18
-2571.03
-2606.94
-2638.2
-2665.27
-2688.63
-2708.74
-2726.04
-2740.89
-2753.6
-2764.44
-2773.65
-2781.42
-2787.93
-2793.3
-2797.67
-2801.14
-2803.81
-2805.74
-2807.02
-2807.69
-2807.83
-2807.46
-2806.63
-2805.39
-2803.76
-2801.77
-2799.44
-2796.82
-2793.9
-2790.72
-2787.29
-2783.64
-2779.76
-2775.69
-2771.43
-2766.99
-2762.38
-2757.63
-2752.73
-2747.69
-2742.53
-2737.25
-2731.87
-2726.38
-2720.81
-2715.15
-2709.41
-2703.61
-2697.74
-2691.82
-2685.86
-2679.86
-2673.82
-2667.75
-2661.66
-2655.55
-2649.44
-2643.32
-2637.22
-2631.14
-2625.1
-2619.09
-2613.13
-2607.22
-2601.37
-2595.59
-2589.88
-2584.25
-2578.72
-2573.28
-2567.95
-2562.74
-2557.66
-2552.71
-2547.9
-2543.25
-2538.77
-2534.46
-2530.33
-2526.4
-2522.67
-2519.16
-2515.87
-2512.81
-2510
-2507.45
-2505.15
-2503.12
-2501.37
-2499.9
-2498.72
-2497.82
-2497.23
-2496.93
-2553.85
-2477.86
-2475.87
-2505.12
-2541.88
-2578.92
-2613.46
-2644.54
-2671.96
-2695.87
-2716.6
-2734.48
-2749.85
-2763.01
-2774.23
-2783.75
-2791.78
-2798.47
-2804
-2808.48
-2812.03
-2814.75
-2816.72
-2818
-2818.67
-2818.79
-2818.39
-2817.52
-2816.23
-2814.53
-2812.48
-2810.09
-2807.39
-2804.4
-2801.14
-2797.63
-2793.89
-2789.92
-2785.76
-2781.4
-2776.87
-2772.17
-2767.31
-2762.31
-2757.17
-2751.9
-2746.52
-2741.03
-2735.44
-2729.76
-2723.98
-2718.13
-2712.21
-2706.22
-2700.17
-2694.07
-2687.94
-2681.76
-2675.56
-2669.33
-2663.08
-2656.81
-2650.53
-2644.26
-2638.01
-2631.78
-2625.58
-2619.43
-2613.32
-2607.26
-2601.27
-2595.34
-2589.49
-2583.72
-2578.04
-2572.47
-2567
-2561.65
-2556.43
-2551.35
-2546.41
-2541.63
-2537.01
-2532.57
-2528.32
-2524.27
-2520.42
-2516.8
-2513.41
-2510.25
-2507.35
-2504.7
-2502.32
-2500.22
-2498.41
-2496.89
-2495.66
-2494.74
-2494.12
-2493.81
-2473.38
-2499.9
-2535.41
-2566.75
-2598.95
-2630.32
-2659.51
-2685.87
-2709.23
-2729.69
-2747.44
-2762.75
-2775.87
-2787.07
-2796.57
-2804.55
-2811.21
-2816.68
-2821.11
-2824.59
-2827.23
-2829.11
-2830.31
-2830.88
-2830.89
-2830.39
-2829.42
-2828.02
-2826.22
-2824.05
-2821.55
-2818.73
-2815.63
-2812.26
-2808.63
-2804.78
-2800.7
-2796.42
-2791.95
-2787.3
-2782.49
-2777.51
-2772.39
-2767.14
-2761.75
-2756.25
-2750.64
-2744.92
-2739.12
-2733.22
-2727.25
-2721.2
-2715.09
-2708.91
-2702.67
-2696.39
-2690.07
-2683.73
-2677.35
-2670.96
-2664.54
-2658.1
-2651.66
-2645.23
-2638.82
-2632.43
-2626.08
-2619.77
-2613.5
-2607.3
-2601.15
-2595.08
-2589.08
-2583.16
-2577.34
-2571.61
-2566
-2560.51
-2555.14
-2549.92
-2544.84
-2539.92
-2535.17
-2530.6
-2526.22
-2522.04
-2518.07
-2514.33
-2510.82
-2507.55
-2504.55
-2501.81
-2499.35
-2497.17
-2495.29
-2493.71
-2492.44
-2491.48
-2490.84
-2490.52
-2556.63
-2572.17
-2599.25
-2628.53
-2656.88
-2683.7
-2708.21
-2730.11
-2749.38
-2766.18
-2780.7
-2793.17
-2803.82
-2812.84
-2820.41
-2826.7
-2831.85
-2835.96
-2839.17
-2841.55
-2843.18
-2844.15
-2844.52
-2844.32
-2843.63
-2842.47
-2840.89
-2838.92
-2836.58
-2833.92
-2830.94
-2827.68
-2824.15
-2820.37
-2816.37
-2812.15
-2807.72
-2803.11
-2798.32
-2793.37
-2788.26
-2783.01
-2777.62
-2772.1
-2766.47
-2760.72
-2754.87
-2748.93
-2742.89
-2736.78
-2730.6
-2724.35
-2718.03
-2711.66
-2705.24
-2698.77
-2692.27
-2685.74
-2679.19
-2672.62
-2666.03
-2659.42
-2652.82
-2646.22
-2639.64
-2633.09
-2626.58
-2620.11
-2613.69
-2607.32
-2601.02
-2594.79
-2588.64
-2582.57
-2576.6
-2570.72
-2564.96
-2559.31
-2553.8
-2548.43
-2543.2
-2538.14
-2533.24
-2528.53
-2524.01
-2519.7
-2515.6
-2511.73
-2508.1
-2504.72
-2501.61
-2498.77
-2496.22
-2493.96
-2492.01
-2490.36
-2489.04
-2488.04
-2487.38
-2487.04
-2561.85
-2638.74
-2660.99
-2689.45
-2716.26
-2739.55
-2759.67
-2777.05
-2792.06
-2804.97
-2816.03
-2825.45
-2833.4
-2840.05
-2845.54
-2849.98
-2853.48
-2856.14
-2858.04
-2859.24
-2859.81
-2859.81
-2859.28
-2858.28
-2856.83
-2854.98
-2852.75
-2850.17
-2847.28
-2844.08
-2840.62
-2836.89
-2832.92
-2828.73
-2824.32
-2819.72
-2814.94
-2809.99
-2804.87
-2799.6
-2794.19
-2788.65
-2782.98
-2777.2
-2771.3
-2765.3
-2759.21
-2753.03
-2746.77
-2740.43
-2734.03
-2727.57
-2721.06
-2714.49
-2707.87
-2701.21
-2694.52
-2687.8
-2681.07
-2674.32
-2667.55
-2660.78
-2654
-2647.23
-2640.49
-2633.77
-2627.09
-2620.45
-2613.87
-2607.35
-2600.88
-2594.49
-2588.18
-2581.95
-2575.82
-2569.79
-2563.87
-2558.07
-2552.4
-2546.87
-2541.49
-2536.27
-2531.23
-2526.37
-2521.71
-2517.25
-2513.01
-2509.01
-2505.26
-2501.76
-2498.53
-2495.58
-2492.93
-2490.58
-2488.55
-2486.84
-2485.47
-2484.43
-2483.74
-2483.39
-2640.88
-2654.88
-2716.24
-2753.68
-2779.22
-2798.45
-2813.74
-2826.29
-2836.77
-2845.58
-2852.98
-2859.17
-2864.28
-2868.43
-2871.72
-2874.21
-2875.98
-2877.1
-2877.61
-2877.57
-2877.02
-2875.99
-2874.54
-2872.67
-2870.44
-2867.86
-2864.96
-2861.76
-2858.28
-2854.53
-2850.55
-2846.34
-2841.91
-2837.29
-2832.48
-2827.49
-2822.34
-2817.03
-2811.57
-2805.98
-2800.26
-2794.42
-2788.47
-2782.41
-2776.25
-2769.99
-2763.65
-2757.23
-2750.74
-2744.17
-2737.55
-2730.87
-2724.15
-2717.37
-2710.55
-2703.7
-2696.82
-2689.91
-2682.99
-2676.06
-2669.11
-2662.16
-2655.2
-2648.26
-2641.34
-2634.45
-2627.6
-2620.8
-2614.05
-2607.36
-2600.73
-2594.18
-2587.7
-2581.31
-2575.01
-2568.82
-2562.73
-2556.77
-2550.94
-2545.25
-2539.71
-2534.34
-2529.13
-2524.12
-2519.3
-2514.7
-2510.32
-2506.17
-2502.28
-2498.65
-2495.3
-2492.24
-2489.48
-2487.04
-2484.93
-2483.15
-2481.71
-2480.63
-2479.91
-2479.54
-2592.86
-2742.76
-2798.6
-2829.31
-2848.48
-2861.38
-2870.66
-2877.7
-2883.22
-2887.64
-2891.18
-2893.98
-2896.13
-2897.68
-2898.68
-2899.15
-2899.13
-2898.65
-2897.74
-2896.41
-2894.69
-2892.61
-2890.19
-2887.44
-2884.4
-2881.07
-2877.47
-2873.62
-2869.53
-2865.23
-2860.72
-2856.01
-2851.11
-2846.04
-2840.81
-2835.43
-2829.89
-2824.22
-2818.42
-2812.5
-2806.46
-2800.32
-2794.08
-2787.73
-2781.3
-2774.78
-2768.19
-2761.52
-2754.79
-2747.99
-2741.15
-2734.25
-2727.3
-2720.32
-2713.29
-2706.24
-2699.16
-2692.06
-2684.95
-2677.83
-2670.7
-2663.56
-2656.42
-2649.3
-2642.2
-2635.14
-2628.12
-2621.14
-2614.22
-2607.36
-2600.56
-2593.84
-2587.19
-2580.63
-2574.17
-2567.8
-2561.55
-2555.42
-2549.43
-2543.57
-2537.86
-2532.32
-2526.96
-2521.78
-2516.8
-2512.04
-2507.5
-2503.21
-2499.17
-2495.41
-2491.92
-2488.74
-2485.87
-2483.33
-2481.12
-2479.27
-2477.77
-2476.64
-2475.88
-2475.5
-2842.06
-2879.22
-2902.33
-2916.11
-2923.82
-2927.84
-2929.76
-2930.55
-2930.72
-2930.52
-2930.08
-2929.43
-2928.57
-2927.49
-2926.17
-2924.59
-2922.76
-2920.65
-2918.28
-2915.64
-2912.74
-2909.58
-2906.17
-2902.52
-2898.65
-2894.55
-2890.24
-2885.72
-2881.02
-2876.14
-2871.08
-2865.87
-2860.49
-2854.97
-2849.31
-2843.51
-2837.59
-2831.55
-2825.4
-2819.14
-2812.78
-2806.33
-2799.78
-2793.15
-2786.45
-2779.66
-2772.81
-2765.89
-2758.91
-2751.88
-2744.8
-2737.68
-2730.52
-2723.32
-2716.08
-2708.82
-2701.54
-2694.25
-2686.94
-2679.63
-2672.31
-2664.98
-2657.66
-2650.36
-2643.08
-2635.83
-2628.63
-2621.48
-2614.39
-2607.35
-2600.38
-2593.48
-2586.66
-2579.93
-2573.29
-2566.76
-2560.33
-2554.03
-2547.86
-2541.82
-2535.95
-2530.23
-2524.69
-2519.35
-2514.2
-2509.27
-2504.57
-2500.12
-2495.93
-2492.02
-2488.4
-2485.09
-2482.1
-2479.44
-2477.14
-2475.2
-2473.64
-2472.46
-2471.66
-2471.27
-3046.81
-3022.02
-3015.3
-3009.78
-3003.17
-2996.45
-2990.03
-2984.06
-2978.63
-2973.71
-2969.24
-2965.11
-2961.24
-2957.53
-2953.9
-2950.29
-2946.64
-2942.92
-2939.09
-2935.14
-2931.04
-2926.79
-2922.39
-2917.83
-2913.11
-2908.24
-2903.21
-2898.02
-2892.7
-2887.23
-2881.62
-2875.89
-2870.02
-2864.04
-2857.94
-2851.73
-2845.41
-2839
-2832.49
-2825.89
-2819.2
-2812.43
-2805.58
-2798.66
-2791.67
-2784.61
-2777.5
-2770.33
-2763.1
-2755.83
-2748.52
-2741.17
-2733.78
-2726.36
-2718.92
-2711.45
-2703.96
-2696.47
-2688.97
-2681.46
-2673.95
-2666.43
-2658.92
-2651.43
-2643.96
-2636.54
-2629.15
-2621.82
-2614.55
-2607.34
-2600.19
-2593.11
-2586.11
-2579.2
-2572.39
-2565.67
-2559.07
-2552.58
-2546.23
-2540.02
-2533.96
-2528.07
-2522.35
-2516.83
-2511.5
-2506.4
-2501.53
-2496.91
-2492.56
-2488.49
-2484.72
-2481.27
-2478.15
-2475.38
-2472.98
-2470.95
-2469.31
-2468.07
-2467.24
-2466.82
-3211.05
-3162.51
-3127.94
-3102.18
-3081.91
-3064.72
-3049.84
-3037.03
-3025.98
-3016.39
-3007.99
-3000.51
-2993.74
-2987.5
-2981.63
-2976.03
-2970.61
-2965.3
-2960.03
-2954.77
-2949.49
-2944.17
-2938.77
-2933.3
-2927.74
-2922.08
-2916.33
-2910.47
-2904.51
-2898.45
-2892.29
-2886.04
-2879.68
-2873.23
-2866.69
-2860.06
-2853.34
-2846.55
-2839.67
-2832.72
-2825.7
-2818.61
-2811.45
-2804.23
-2796.96
-2789.63
-2782.25
-2774.82
-2767.35
-2759.83
-2752.28
-2744.7
-2737.09
-2729.45
-2721.79
-2714.11
-2706.42
-2698.72
-2691.02
-2683.32
-2675.61
-2667.9
-2660.2
-2652.52
-2644.86
-2637.25
-2629.68
-2622.16
-2614.7
-2607.31
-2599.98
-2592.72
-2585.54
-2578.45
-2571.45
-2564.55
-2557.76
-2551.09