/*--------------------------------*- C++ -*----------------------------------*\
| =========                 |                                                 |
| \\      /  F ield         | OpenFOAM: The Open Source CFD Toolbox           |
|  \\    /   O peration     | Version:  4.1                                   |
|   \\  /    A nd           | Web:      www.OpenFOAM.org                      |
|    \\/     M anipulation  |                                                 |
\*---------------------------------------------------------------------------*/
FoamFile
{
    version     2.0;
    format      ascii;
    class       surfaceScalarField;
    location    "0.15";
    object      phi;
}
// * * * * * * * * * * * * * * * * * * * * * * * * * * * * * * * * * * * * * //

dimensions      [0 3 -1 0 0 0 0];

internalField   nonuniform List<scalar> 
87025
(
0.0201869
3.37744e-05
0.020124
6.29043e-05
0.0200554
6.85958e-05
0.0199996
5.58633e-05
0.0199619
3.76383e-05
0.0199519
1.00591e-05
0.0199494
2.47994e-06
0.0199246
2.47769e-05
0.0198725
5.20905e-05
0.0198153
5.72033e-05
0.0197732
4.21247e-05
0.0197464
2.67804e-05
0.0197189
2.75438e-05
0.0196724
4.64719e-05
0.0196009
7.15031e-05
0.0195164
8.44795e-05
0.0194405
7.59533e-05
0.0193877
5.27709e-05
0.0193526
3.50436e-05
0.0193122
4.04051e-05
0.0192413
7.09853e-05
0.0191302
0.000111036
0.0189907
0.000139563
0.0188466
0.000144052
0.0187201
0.000126503
0.0186237
9.64128e-05
0.018556
6.76751e-05
0.0185015
5.44717e-05
0.0184372
6.43774e-05
0.0183449
9.223e-05
0.0182238
0.000121174
0.0180891
0.000134622
0.0179591
0.000130046
0.0178387
0.00012038
0.0177178
0.000120919
0.0175825
0.000135323
0.0174279
0.000154583
0.0172594
0.000168474
0.0170842
0.000175187
0.0169052
0.000179018
0.0167233
0.000181857
0.0165426
0.00018079
0.0163679
0.000174657
0.0161985
0.000169355
0.0160256
0.000172994
0.0158394
0.00018614
0.0156397
0.000199757
0.0154343
0.000205394
0.0152281
0.000206137
0.0150136
0.000214565
0.0147751
0.000238417
0.0145056
0.000269525
0.0142157
0.000289901
0.0139255
0.000290254
0.0136434
0.00028211
0.0133533
0.00029002
0.0130232
0.000330107
0.0126293
0.000393918
0.0121758
0.000453504
0.0116927
0.000483116
0.0112168
0.00047591
0.0107735
0.000443311
0.0103703
0.000403178
0.0100012
0.000369089
0.00965415
0.000347053
0.00931682
0.000337328
0.00898038
0.000336439
0.00863972
0.000340657
0.00829258
0.000347144
0.00793837
0.000354207
0.00757733
0.000361036
0.00721001
0.000367326
0.00683704
0.000372964
0.00645919
0.000377857
0.0060773
0.000381891
0.00569239
0.000384905
0.00530569
0.000386704
0.00491861
0.000387081
0.00453279
0.000385816
0.00415011
0.000382683
0.00377264
0.000377466
0.00340267
0.000369969
0.00304264
0.000360033
0.00269508
0.000347561
0.00236256
0.000332521
0.00204758
0.000314973
0.00175252
0.000295068
0.00147945
0.000273062
0.00123014
0.00024931
0.00100589
0.000224258
0.000807434
0.000198452
0.000634941
0.000172492
0.000487939
0.000147002
0.000365319
0.000122621
0.000265305
0.000100013
0.000185509
7.97962e-05
0.000122871
6.26376e-05
7.38837e-05
4.89875e-05
3.45147e-05
3.9369e-05
3.45146e-05
0.0201273
2.31032e-05
0.0201065
8.36918e-05
0.0201154
5.9631e-05
0.0201139
5.7381e-05
0.0200884
6.31189e-05
0.0200519
4.65761e-05
0.0200304
2.39794e-05
0.0200285
2.67201e-05
0.020023
5.75204e-05
0.0199938
8.64673e-05
0.0199453
9.06091e-05
0.0198978
7.423e-05
0.0198656
5.97846e-05
0.0198467
6.53526e-05
0.0198275
9.06949e-05
0.0197919
0.00012013
0.0197327
0.000135184
0.0196547
0.000130704
0.0195735
0.000116236
0.0195067
0.000107279
0.0194655
0.00011213
0.0194468
0.000129749
0.0194319
0.00015444
0.0193953
0.000180691
0.0193202
0.000201632
0.0192062
0.000210406
0.0190725
0.000201326
0.0189506
0.000176334
0.0188656
0.000149445
0.0188199
0.00013794
0.0187886
0.000152481
0.018734
0.000189145
0.0186338
0.000230321
0.0184985
0.000255692
0.0183634
0.000255942
0.0182607
0.000238029
0.0181963
0.000219027
0.0181507
0.000214063
0.0180984
0.000227504
0.0180243
0.000253123
0.0179245
0.000281584
0.0177982
0.000307159
0.0176437
0.000329086
0.0174657
0.00034743
0.0172794
0.000359233
0.0171052
0.000360341
0.0169537
0.000351244
0.0168189
0.000340238
0.0166856
0.000339446
0.0165441
0.000356092
0.0163959
0.000386617
0.0162463
0.00041904
0.0160945
0.000441728
0.0159329
0.000451906
0.0157559
0.000459071
0.0155679
0.000478025
0.01538
0.000518026
0.0151996
0.000574276
0.015024
0.000629085
0.014843
0.000664173
0.0146467
0.000672149
0.0144308
0.000659205
0.0141952
0.000638873
0.0139409
0.00062332
0.0136703
0.000617689
0.0133852
0.000622402
0.0130871
0.000634532
0.0127773
0.000650496
0.0124568
0.000667586
0.0121267
0.0006843
0.0117877
0.000700072
0.0114402
0.000714828
0.0110845
0.000728633
0.0107209
0.000741513
0.0103494
0.000753403
0.00997012
0.000764151
0.00958329
0.000773539
0.00918906
0.000781307
0.00878771
0.000787168
0.00837958
0.000790814
0.00796512
0.000791927
0.00754488
0.000790205
0.00711954
0.000785376
0.00668987
0.000777227
0.00625676
0.000765629
0.00582119
0.000750544
0.0053842
0.000732056
0.0049469
0.000710367
0.00451041
0.000685796
0.00407592
0.000658751
0.00364455
0.000629822
0.00321725
0.000599797
0.00279489
0.000569361
0.00237823
0.000539277
0.00196783
0.000510414
0.00156392
0.000483709
0.00116628
0.000460276
0.000774137
0.000441129
0.00038565
0.000427857
0.000420164
0.0202555
7.9235e-05
0.0202776
6.15861e-05
0.0202053
0.000131938
0.0200943
0.000168406
0.0200056
0.000151834
0.0199387
0.000113471
0.0198855
7.71579e-05
0.0198536
5.86694e-05
0.0198514
5.96806e-05
0.019868
6.98425e-05
0.0198773
8.13676e-05
0.0198557
9.58384e-05
0.0197978
0.000117698
0.0197184
0.00014467
0.0196427
0.000166383
0.0195894
0.000173506
0.0195572
0.00016731
0.0195303
0.000157677
0.0194928
0.000153723
0.0194423
0.000157811
0.0193865
0.000167907
0.0193335
0.000182711
0.0192855
0.000202443
0.0192397
0.000226473
0.0191888
0.000252533
0.0191233
0.000275942
0.019033
0.00029166
0.0189145
0.000294783
0.0187805
0.000283485
0.0186527
0.000265728
0.0185468
0.000258342
0.0184597
0.000276281
0.0183716
0.000318382
0.018263
0.000364271
0.0181302
0.000388809
0.0179863
0.000381936
0.0178498
0.000355531
0.0177315
0.000332294
0.0176308
0.000328248
0.0175396
0.00034433
0.0174495
0.000371652
0.0173549
0.000401737
0.0172524
0.000431578
0.0171394
0.000460501
0.0170123
0.000486324
0.016866
0.000506629
0.0166952
0.000522045
0.0164996
0.000535808
0.0162892
0.000549849
0.0160829
0.00056243
0.0158987
0.000570755
0.0157417
0.000576081
0.0155981
0.000585327
0.0154438
0.000606233
0.0152616
0.00064121
0.0150543
0.000685322
0.0148428
0.00072955
0.0146515
0.000765552
0.0144926
0.000788045
0.0143604
0.000796394
0.0142379
0.000794589
0.0141061
0.000791012
0.0139507
0.000794247
0.0137656
0.000808414
0.0135511
0.000832216
0.0133118
0.000861757
0.0130537
0.000892629
0.0127824
0.000921739
0.012502
0.00094798
0.0122148
0.000971528
0.0119218
0.000993047
0.0116235
0.00101317
0.0113198
0.00103229
0.0110108
0.00105059
0.0106961
0.00106805
0.0103757
0.0010846
0.0100491
0.00110007
0.00971616
0.00111426
0.00937638
0.00112695
0.0090293
0.00113789
0.00867443
0.0011468
0.00831119
0.00115344
0.007939
0.00115757
0.00755725
0.00115898
0.00716535
0.00115753
0.00676272
0.00115317
0.00634886
0.00114591
0.00592335
0.00113588
0.00548589
0.00112326
0.0050363
0.00110835
0.00457456
0.00109156
0.00410101
0.00107336
0.00361617
0.0010542
0.00312084
0.0010346
0.00261606
0.0010152
0.00210306
0.000996708
0.00158326
0.000980073
0.00105828
0.000966113
0.000529545
0.000956591
0.000949709
0.0200039
0.000108235
0.0200024
6.31423e-05
0.0199956
0.00013869
0.0199755
0.000188559
0.0199481
0.000179144
0.0199168
0.000144773
0.0198813
0.00011267
0.0198499
9.00534e-05
0.0198344
7.52423e-05
0.019831
7.32452e-05
0.019822
9.03058e-05
0.019795
0.000122862
0.0197566
0.00015611
0.019725
0.000176323
0.0197087
0.000182631
0.0196957
0.000186561
0.0196624
0.000200547
0.0195948
0.00022525
0.0195006
0.000247935
0.0194034
0.00025501
0.0193243
0.000247026
0.0192671
0.000239914
0.0192193
0.000250237
0.0191656
0.000280169
0.0191009
0.0003173
0.0190288
0.000347968
0.0189545
0.000365969
0.0188775
0.000371792
0.0187925
0.000368449
0.0186978
0.00036048
0.0185994
0.000356729
0.0185074
0.000368275
0.0184262
0.0003996
0.0183486
0.000441844
0.0182602
0.000477234
0.0181496
0.000492485
0.018016
0.000489156
0.0178668
0.000481532
0.0177108
0.000484204
0.0175542
0.000500929
0.0174012
0.000524716
0.0172554
0.000547535
0.0171179
0.000569092
0.0169829
0.000595495
0.0168382
0.000631021
0.0166722
0.000672549
0.0164827
0.000711611
0.0162781
0.000740387
0.0160723
0.000755601
0.0158763
0.000758518
0.0156931
0.000753897
0.0155193
0.000749906
0.0153478
0.000756799
0.015172
0.000782034
0.0149886
0.000824585
0.0147999
0.000874107
0.0146124
0.000917032
0.0144334
0.000944565
0.014265
0.000956391
0.0141022
0.000959255
0.0139341
0.000962654
0.0137505
0.000974581
0.0135461
0.000998683
0.0133208
0.00103365
0.0130782
0.00107491
0.0128226
0.00111736
0.0125579
0.00115733
0.0122864
0.00119315
0.0120097
0.00122477
0.0117282
0.00125298
0.0114425
0.00127875
0.0111528
0.00130288
0.0108593
0.00132583
0.010562
0.00134785
0.010261
0.00136901
0.00995636
0.00138929
0.00964779
0.00140864
0.0093351
0.00142695
0.00901797
0.00144408
0.00869596
0.0014599
0.00836849
0.00147427
0.00803489
0.00148705
0.00769433
0.00149812
0.00734591
0.0015074
0.00698859
0.00151485
0.00662126
0.0015205
0.00624275
0.00152443
0.00585186
0.00152677
0.00544739
0.00152772
0.00502822
0.00152751
0.00459339
0.00152639
0.00414217
0.00152458
0.00367413
0.00152224
0.00318925
0.00151948
0.00268803
0.00151642
0.00217155
0.00151318
0.00164159
0.00151004
0.00110063
0.00150707
0.000551803
0.00150542
0.00150151
0.0202097
0.000169725
0.0202035
6.92879e-05
0.0201943
0.000147912
0.0201618
0.00022102
0.0201121
0.000228904
0.0200649
0.000191944
0.0200284
0.000149184
0.0199891
0.000129379
0.0199401
0.000124223
0.0198927
0.000120675
0.0198593
0.000123669
0.0198386
0.000143569
0.0198172
0.000177461
0.0197811
0.000212417
0.0197233
0.000240516
0.0196479
0.000261914
0.0195694
0.000279049
0.0195022
0.00029245
0.019449
0.000301177
0.0193981
0.000305871
0.0193347
0.000310399
0.0192548
0.000319874
0.0191686
0.000336354
0.0190917
0.000357095
0.0190316
0.000377392
0.0189842
0.000395429
0.0189364
0.00041374
0.0188742
0.000433971
0.0187903
0.000452384
0.0186872
0.000463567
0.0185756
0.000468304
0.0184677
0.00047617
0.0183698
0.000497492
0.0182796
0.000532108
0.0181887
0.000568096
0.018088
0.000593147
0.0179704
0.000606757
0.0178319
0.000620117
0.0176725
0.000643527
0.0174989
0.000674589
0.0173233
0.00070025
0.0171599
0.000710962
0.0170173
0.000711743
0.0168937
0.000719034
0.0167785
0.000746236
0.0166583
0.000792736
0.0165236
0.000846338
0.0163698
0.00089416
0.0161959
0.000929516
0.0160034
0.000951059
0.0157974
0.000959816
0.0155874
0.00095995
0.0153833
0.000960933
0.0151905
0.000974775
0.0150071
0.00100801
0.0148254
0.00105581
0.014638
0.00110447
0.0144419
0.00114063
0.0142386
0.00115968
0.0140301
0.0011677
0.0138161
0.00117668
0.0135935
0.00119718
0.013359
0.00123324
0.0131109
0.00128174
0.0128501
0.0013357
0.012579
0.00138843
0.0123004
0.00143597
0.0120162
0.00147727
0.0117279
0.00151315
0.0114357
0.0015451
0.01114
0.00157444
0.0108409
0.00160206
0.0105383
0.00162844
0.0102323
0.0016538
0.00992309
0.00167822
0.00961067
0.00170171
0.00929506
0.00172425
0.00897622
0.00174579
0.00865404
0.00176626
0.00832833
0.00178561
0.00799881
0.0018038
0.00766506
0.0018208
0.00732657
0.00183661
0.00698268
0.00185128
0.00663262
0.00186492
0.00627545
0.00187766
0.00591015
0.00188973
0.00553556
0.00190136
0.00515043
0.00191285
0.00475348
0.00192446
0.0043434
0.00193646
0.003919
0.00194898
0.00347928
0.00196196
0.00302357
0.00197519
0.0025517
0.00198829
0.00206417
0.00200071
0.00156234
0.00201187
0.00104857
0.00202084
0.000526052
0.00202794
0.00202756
0.019965
3.65016e-05
0.0199319
0.000102454
0.0199129
0.000166911
0.0199157
0.000218178
0.0199444
0.000200183
0.0199888
0.000147532
0.0200035
0.000134554
0.0199758
0.000157036
0.0199284
0.000171677
0.0198874
0.000161605
0.0198599
0.000151232
0.0198348
0.000168664
0.0197971
0.000215118
0.0197393
0.000270259
0.0196671
0.000312725
0.0195945
0.000334513
0.0195345
0.000338975
0.0194916
0.00033542
0.0194586
0.000334133
0.0194227
0.000341794
0.0193743
0.00035883
0.019313
0.000381172
0.0192446
0.000404738
0.0191738
0.000427835
0.019101
0.000450257
0.0190251
0.000471289
0.0189491
0.000489771
0.0188772
0.000505834
0.0188078
0.000521811
0.0187301
0.000541283
0.0186314
0.000566976
0.0185088
0.000598788
0.018373
0.000633244
0.0182402
0.000664935
0.0181187
0.000689612
0.0180046
0.000707224
0.0178891
0.000722285
0.0177685
0.000740722
0.0176466
0.000765361
0.0175277
0.000793504
0.0174088
0.000819133
0.0172816
0.000838242
0.0171406
0.000852664
0.01699
0.000869646
0.0168389
0.000897408
0.0166916
0.00094002
0.0165433
0.000994604
0.0163851
0.00105237
0.0162127
0.00110191
0.0160302
0.00113357
0.0158458
0.00114421
0.015665
0.00114073
0.0154873
0.00113862
0.0153081
0.00115404
0.0151222
0.00119387
0.0149268
0.00125121
0.0147214
0.00130991
0.0145072
0.00135484
0.014286
0.00138086
0.0140588
0.00139492
0.0138249
0.00141062
0.0135825
0.00143958
0.01333
0.00148567
0.013067
0.00154477
0.012794
0.00160867
0.0125126
0.00166985
0.0122245
0.00172406
0.0119312
0.00177057
0.0116336
0.00181076
0.0113321
0.0018466
0.0110268
0.0018797
0.0107178
0.00191107
0.0104051
0.0019412
0.0100886
0.0019703
0.00976837
0.00199842
0.00944452
0.00202556
0.0091171
0.00205167
0.00878615
0.00207674
0.00845167
0.00210073
0.00811366
0.00212363
0.00777204
0.00214542
0.00742669
0.00216614
0.00707741
0.00218589
0.00672392
0.00220478
0.00636583
0.002223
0.00600267
0.00224082
0.00563385
0.00225855
0.00525866
0.00227656
0.00487628
0.00229523
0.0044858
0.00231494
0.00408625
0.00233601
0.00367657
0.00235865
0.00325577
0.00238276
0.00282308
0.00240788
0.00237806
0.00243331
0.00192082
0.00245795
0.00145217
0.00248052
0.000973864
0.00249915
0.000488316
0.00251349
0.00251588
0.0201945
0.000143885
0.0201393
0.000157687
0.0200851
0.000221049
0.0200426
0.000260713
0.0200197
0.000223026
0.0200064
0.0001609
0.0199982
0.000142719
0.0199859
0.000169376
0.0199559
0.000201656
0.0198977
0.000219761
0.0198164
0.000232555
0.019735
0.000250101
0.0196794
0.00027068
0.0196579
0.000291739
0.0196547
0.000315928
0.0196439
0.000345319
0.0196083
0.000374611
0.0195491
0.000394611
0.0194813
0.000401934
0.0194206
0.000402468
0.0193736
0.000405845
0.0193361
0.000418707
0.0192973
0.000443537
0.019245
0.000480129
0.0191708
0.000524445
0.0190753
0.000566756
0.0189699
0.000595236
0.0188704
0.000605239
0.0187862
0.00060603
0.0187112
0.000616312
0.0186283
0.000649896
0.0185234
0.000703698
0.018397
0.000759592
0.0182631
0.000798875
0.0181364
0.000816338
0.0180214
0.000822148
0.0179123
0.000831414
0.0178012
0.000851794
0.0176867
0.000879884
0.0175725
0.000907678
0.0174598
0.000931914
0.0173411
0.000956926
0.0172048
0.000988926
0.0170453
0.00102913
0.016869
0.00107374
0.0166891
0.00111994
0.0165145
0.00116918
0.0163443
0.00122256
0.0161724
0.00127376
0.0159965
0.00130955
0.0158202
0.0013205
0.015648
0.00131288
0.0154778
0.0013088
0.0153
0.00133189
0.0151042
0.00138969
0.0148875
0.00146784
0.0146568
0.0015406
0.0144235
0.00158821
0.0141959
0.00160846
0.0139751
0.00161567
0.0137558
0.00162989
0.0135305
0.00166492
0.0132934
0.00172279
0.0130423
0.00179587
0.0127778
0.00187316
0.0125019
0.00194575
0.0122167
0.00200927
0.0119239
0.00206336
0.0116248
0.00210989
0.0113201
0.00215123
0.0110105
0.00218934
0.0106962
0.0022254
0.0103773
0.00226007
0.010054
0.0022936
0.00972632
0.00232609
0.00939433
0.00235755
0.00905806
0.00238794
0.00871756
0.00241725
0.00837286
0.00244543
0.008024
0.00247248
0.00767102
0.0024984
0.00731391
0.00252325
0.00695267
0.00254713
0.00658727
0.00257018
0.00621764
0.00259263
0.00584367
0.00261479
0.00546522
0.00263701
0.00508206
0.00265972
0.0046939
0.00268339
0.00430037
0.00270847
0.00390103
0.00273535
0.0034954
0.00276428
0.00308294
0.00279523
0.0026631
0.00282771
0.00223556
0.00286085
0.00180028
0.00289323
0.00135767
0.00292312
0.000908809
0.00294801
0.000455157
0.00296714
0.00297104
0.0201413
0.00027628
0.0201595
0.000139522
0.0201685
0.000211976
0.0201392
0.000290023
0.0201035
0.000258738
0.0200792
0.000185244
0.0200668
0.00015507
0.0200489
0.000187268
0.0200088
0.000241729
0.0199502
0.000278378
0.0198935
0.0002893
0.0198531
0.000290527
0.0198252
0.000298533
0.0198005
0.000316396
0.0197771
0.00033933
0.0197596
0.00036283
0.0197469
0.000387394
0.0197254
0.000416027
0.0196782
0.000449192
0.0195975
0.000483129
0.0194911
0.000512298
0.019376
0.000533743
0.01927
0.000549594
0.0191841
0.000565977
0.0191195
0.000589039
0.019066
0.000620327
0.0190063
0.000654907
0.0189265
0.00068506
0.0188245
0.000707975
0.0187107
0.000730181
0.0185982
0.000762321
0.0184942
0.000807679
0.0183974
0.000856454
0.0183029
0.000893349
0.0182072
0.000912052
0.0181071
0.000922226
0.017997
0.000941543
0.0178691
0.000979644
0.0177198
0.0010292
0.0175549
0.00107258
0.0173887
0.00109817
0.0172345
0.00111111
0.0170953
0.00112808
0.0169625
0.00116195
0.0168241
0.00121217
0.0166746
0.00126941
0.0165172
0.00132658
0.0163575
0.00138232
0.0161969
0.00143435
0.0160326
0.0014738
0.0158618
0.0014913
0.0156844
0.0014903
0.0155012
0.00149199
0.0153104
0.00152268
0.0151075
0.00159258
0.0148899
0.00168545
0.0146613
0.00176925
0.0144306
0.00181889
0.0142064
0.00183268
0.0139909
0.00183114
0.0137791
0.00184167
0.013562
0.001882
0.0133317
0.00195309
0.0130844
0.00204322
0.0128204
0.00213714
0.0125427
0.00222352
0.0122544
0.00229751
0.0119583
0.00235947
0.011656
0.00241224
0.0113482
0.00245896
0.0110355
0.00250203
0.010718
0.00254291
0.0103958
0.00258234
0.0100687
0.00262064
0.0097369
0.00265791
0.00940028
0.00269417
0.00905883
0.00272939
0.00871255
0.00276353
0.00836145
0.00279654
0.00800553
0.0028284
0.00764483
0.0028591
0.00727938
0.00288869
0.00690926
0.00291725
0.00653454
0.0029449
0.00615532
0.00297185
0.00577171
0.00299839
0.00538385
0.00302487
0.00499188
0.00305169
0.00459592
0.00307934
0.00419609
0.0031083
0.00379248
0.00313896
0.00338514
0.00317162
0.00297408
0.00320629
0.00255926
0.00324254
0.0021406
0.00327951
0.00171816
0.00331567
0.00129216
0.00334912
0.000863126
0.00337705
0.000431697
0.00339857
0.00340273
0.0200903
0.000182327
0.0200762
0.000153619
0.0200734
0.000214781
0.0201121
0.000251352
0.0201371
0.000233707
0.0201302
0.000192199
0.0200924
0.000192828
0.0200303
0.000249387
0.0199545
0.000317481
0.0198828
0.00035007
0.0198317
0.000340478
0.0198046
0.000317566
0.0197898
0.000313331
0.01977
0.000336242
0.019739
0.000370343
0.019702
0.000399763
0.0196634
0.000426006
0.0196176
0.000461861
0.019556
0.000510772
0.0194802
0.00055891
0.0194028
0.000589703
0.0193351
0.000601487
0.0192771
0.000607586
0.019221
0.000622025
0.0191605
0.000649548
0.0190931
0.000687737
0.0190156
0.00073245
0.018922
0.000778601
0.0188102
0.000819858
0.0186877
0.000852686
0.0185693
0.000880705
0.0184654
0.000911596
0.0183736
0.000948222
0.018282
0.000984889
0.0181797
0.00101441
0.0180639
0.00103802
0.0179396
0.00106578
0.0178137
0.00110561
0.0176899
0.00115299
0.0175685
0.00119398
0.0174472
0.00121945
0.0173227
0.00123564
0.0171917
0.00125905
0.0170524
0.0013012
0.0169056
0.00135901
0.0167548
0.00142019
0.0166055
0.00147592
0.0164614
0.00152645
0.0163209
0.00157479
0.0161761
0.00161859
0.0160158
0.00165166
0.0158317
0.00167436
0.015624
0.0016997
0.0154007
0.00174596
0.015173
0.00182032
0.0149494
0.00190906
0.0147335
0.00198514
0.0145245
0.00202791
0.0143187
0.00203841
0.0141113
0.00203855
0.0138968
0.00205619
0.0136702
0.00210866
0.0134278
0.00219547
0.0131685
0.00230246
0.0128939
0.00241179
0.012607
0.00251045
0.0123111
0.00259332
0.0120091
0.00266153
0.0117023
0.00271905
0.0113913
0.00276998
0.0110761
0.00281724
0.0107565
0.0028625
0.0104323
0.00290655
0.0101032
0.00294966
0.00976926
0.00299189
0.00943021
0.00303322
0.00908601
0.00307359
0.0087366
0.00311294
0.00838194
0.0031512
0.00802199
0.00318834
0.00765677
0.00322433
0.00728629
0.00325917
0.00691063
0.0032929
0.0065299
0.00332563
0.00614424
0.00335751
0.00575387
0.00338877
0.00535905
0.00341968
0.00496013
0.00345061
0.0045575
0.00348198
0.00415159
0.00351421
0.00374287
0.00354769
0.00333181
0.00358268
0.00291887
0.00361923
0.0025044
0.00365701
0.00208871
0.00369519
0.00167205
0.00373233
0.0012546
0.00376658
0.000836542
0.0037951
0.000417934
0.00381717
0.00382067
0.0198017
-2.98188e-05
0.0199131
4.22307e-05
0.0199573
0.000170566
0.0199652
0.000243538
0.0199634
0.000235439
0.0199402
0.000215394
0.0199014
0.000231638
0.0198733
0.000277494
0.0198701
0.00032074
0.0198763
0.000343802
0.0198648
0.00035203
0.0198246
0.000357754
0.0197705
0.000367412
0.0197246
0.000382165
0.0196929
0.00040204
0.0196651
0.000427527
0.0196292
0.000461888
0.0195837
0.000507342
0.0195352
0.000559298
0.0194876
0.000606497
0.019437
0.000640294
0.0193759
0.000662616
0.019301
0.000682474
0.0192167
0.000706373
0.019131
0.000735266
0.0190492
0.000769536
0.01897
0.00081161
0.0188875
0.000861087
0.0187969
0.000910447
0.0186995
0.000950111
0.0186017
0.000978497
0.0185088
0.00100451
0.0184186
0.00103844
0.0183219
0.00108159
0.0182098
0.00112646
0.0180817
0.00116619
0.0179461
0.00120135
0.0178156
0.00123613
0.0176981
0.00127044
0.0175925
0.00129965
0.0174887
0.00132325
0.0173741
0.00135017
0.0172414
0.00139176
0.0170934
0.0014492
0.0169416
0.00151078
0.0167981
0.00156376
0.0166661
0.00160785
0.016538
0.00165463
0.0163996
0.00171314
0.01624
0.00177815
0.0160569
0.00183484
0.0158559
0.00187533
0.0156465
0.00190907
0.0154371
0.00195537
0.0152327
0.00202479
0.0150342
0.00210752
0.0148392
0.00218017
0.0146425
0.00222457
0.0144387
0.00224223
0.0142237
0.00225354
0.0139956
0.00228431
0.0137538
0.00235046
0.0134983
0.00245088
0.0132299
0.00257095
0.0129495
0.0026921
0.0126594
0.00280058
0.0123617
0.00289104
0.0120583
0.00296495
0.0117503
0.00302702
0.0114382
0.00308204
0.0111221
0.00313343
0.0108015
0.00318306
0.0104763
0.00323174
0.0101462
0.00327973
0.00981109
0.00332703
0.00947073
0.00337358
0.00912502
0.00341929
0.00877389
0.00346407
0.00841724
0.00350785
0.00805504
0.00355054
0.00768726
0.00359211
0.00731391
0.00363252
0.00693504
0.00367177
0.00655075
0.00370993
0.00616119
0.00374707
0.0057666
0.00378336
0.0053673
0.00381898
0.00496369
0.00385422
0.00455629
0.00388938
0.00414569
0.00392481
0.00373258
0.0039608
0.00331767
0.00399758
0.00290171
0.0040352
0.00248536
0.00407335
0.00206921
0.00411134
0.00165368
0.00414786
0.00123898
0.00418128
0.000825181
0.0042089
0.000411966
0.00423039
0.00423263
0.0202823
0.000198346
0.0200987
0.000225841
0.0200296
0.000239641
0.0200256
0.000247539
0.020029
0.000232023
0.0200136
0.000230827
0.0199856
0.000259579
0.0199624
0.000300783
0.0199459
0.000337217
0.0199215
0.00036821
0.0198757
0.000397779
0.0198108
0.000422689
0.0197408
0.000437379
0.0196809
0.000442131
0.0196362
0.000446729
0.0196011
0.000462548
0.0195692
0.000493802
0.01954
0.000536597
0.0195146
0.00058466
0.0194865
0.000634622
0.0194409
0.000685895
0.0193674
0.000736119
0.0192708
0.000779017
0.019168
0.000809164
0.0190741
0.000829216
0.0189931
0.00085056
0.0189199
0.000884741
0.0188474
0.00093362
0.0187697
0.000988159
0.0186829
0.00103691
0.0185858
0.0010756
0.0184816
0.00110868
0.0183774
0.00114265
0.0182797
0.00117925
0.0181905
0.00121573
0.0181058
0.0012509
0.0180188
0.00128831
0.0179235
0.00133146
0.0178169
0.00137698
0.0177005
0.00141613
0.017578
0.00144575
0.0174524
0.00147576
0.0173225
0.00152159
0.0171843
0.00158745
0.0170353
0.00165974
0.0168788
0.00172032
0.0167206
0.001766
0.0165632
0.00181202
0.0164018
0.00187457
0.0162283
0.00195169
0.016039
0.00202412
0.0158388
0.00207555
0.0156375
0.00211037
0.0154431
0.00214971
0.0152573
0.00221057
0.0150756
0.00228929
0.0148906
0.00236511
0.0146962
0.002419
0.0144886
0.00244981
0.0142669
0.00247527
0.0140318
0.0025194
0.0137848
0.00259746
0.0135271
0.00270852
0.0132596
0.00283848
0.0129827
0.002969
0.0126971
0.00308619
0.0124038
0.00318438
0.0121038
0.00326495
0.011798
0.00333277
0.0114871
0.00339295
0.0111713
0.00344923
0.0108507
0.0035037
0.0105251
0.00355731
0.0101945
0.00361037
0.00985861
0.00366288
0.00951741
0.00371478
0.00917073
0.00376597
0.00881848
0.00381632
0.00846059
0.00386574
0.00809698
0.00391415
0.00772762
0.00396147
0.00735252
0.00400762
0.0069717
0.00405259
0.00658526
0.00409637
0.00619335
0.00413899
0.00579619
0.00418052
0.0053941
0.00422108
0.00498749
0.00426083
0.0045769
0.00429997
0.00416297
0.00433874
0.00374645
0.00437731
0.00332819
0.00441585
0.00290904
0.00445434
0.00248986
0.00449253
0.00207139
0.00452982
0.00165418
0.00456507
0.00123851
0.00459694
0.00082442
0.004623
0.000411448
0.00464336
0.00464408
0.0197072
4.45414e-05
0.0198563
7.6721e-05
0.0199285
0.000167442
0.0199703
0.000205756
0.0199857
0.000216697
0.0199752
0.000241323
0.0199483
0.000286451
0.0199145
0.000334613
0.0198792
0.00037246
0.0198508
0.000396663
0.0198362
0.0004123
0.019833
0.000425904
0.0198298
0.000440602
0.0198116
0.000460323
0.0197675
0.00049086
0.019695
0.000535032
0.0196018
0.000586961
0.0195039
0.000634489
0.0194187
0.000669907
0.0193564
0.000696951
0.0193165
0.000725743
0.0192906
0.000762009
0.0192667
0.000802924
0.0192328
0.000843109
0.01918
0.000882036
0.0191067
0.000923849
0.0190203
0.00097107
0.0189329
0.00102107
0.0188521
0.00106897
0.0187765
0.0011125
0.0186987
0.00115337
0.0186128
0.0011946
0.0185181
0.00123735
0.0184173
0.00128001
0.0183127
0.00132033
0.018205
0.00135859
0.0180947
0.00139869
0.0179814
0.0014447
0.0178631
0.00149529
0.017736
0.00154321
0.0175988
0.00158301
0.0174547
0.00161978
0.0173094
0.00166695
0.0171643
0.00173255
0.0170152
0.00180884
0.0168566
0.00187888
0.0166883
0.00193429
0.0165163
0.00198403
0.0163472
0.00204364
0.016182
0.00211691
0.0160148
0.00219131
0.015838
0.00225237
0.0156483
0.00230011
0.0154489
0.00234908
0.0152471
0.00241237
0.0150492
0.00248723
0.0148571
0.00255717
0.0146682
0.00260789
0.0144764
0.00264159
0.0142747
0.00267702
0.0140575
0.00273665
0.0138226
0.00283234
0.0135712
0.0029599
0.0133062
0.00310349
0.0130304
0.0032448
0.0127458
0.00337074
0.0124538
0.00347639
0.0121552
0.00356357
0.0118506
0.00363739
0.0115404
0.00370313
0.0112249
0.00376469
0.0109043
0.00382433
0.0105785
0.00388311
0.0102475
0.0039414
0.0099111
0.00399926
0.00956925
0.00405663
0.00922182
0.0041134
0.00886871
0.00416943
0.00850983
0.00422462
0.00814514
0.00427884
0.0077746
0.00433201
0.00739821
0.00438402
0.007016
0.0044348
0.00662805
0.00448431
0.00623452
0.00453252
0.00583561
0.00457943
0.00543162
0.00462506
0.00502295
0.00466949
0.00461011
0.00471281
0.00419373
0.00475512
0.00377454
0.0047965
0.00335338
0.004837
0.00293116
0.00487657
0.00250876
0.00491493
0.00208699
0.00495158
0.00166649
0.00498557
0.00124761
0.00501583
0.0008304
0.00504021
0.000414414
0.00505935
0.0050585
0.0201537
0.000153736
0.0201062
0.000124256
0.0200918
0.000181871
0.0200468
0.000250685
0.0199825
0.000281034
0.019939
0.000284773
0.0199347
0.000290766
0.0199424
0.00032694
0.0199291
0.00038577
0.019887
0.000438738
0.0198315
0.000467798
0.0197811
0.00047633
0.0197443
0.000477373
0.0197201
0.0004845
0.0196994
0.000511628
0.0196688
0.000565632
0.0196193
0.000636409
0.019552
0.000701825
0.0194754
0.0007465
0.0193977
0.000774626
0.0193218
0.000801709
0.0192477
0.000836045
0.0191782
0.000872477
0.0191173
0.000903949
0.0190652
0.000934206
0.0190137
0.000975322
0.0189513
0.00103346
0.0188719
0.00110044
0.0187802
0.00116071
0.0186873
0.0012054
0.0186019
0.00123871
0.0185244
0.00127218
0.0184477
0.00131398
0.0183642
0.0013635
0.01827
0.00141453
0.0181664
0.00146228
0.0180577
0.00150738
0.0179484
0.00155395
0.0178395
0.00160425
0.0177261
0.00165653
0.0176004
0.00170875
0.0174568
0.00176342
0.0172976
0.00182609
0.0171328
0.0018974
0.0169729
0.00196876
0.0168222
0.00202958
0.0166767
0.00207977
0.0165286
0.00213206
0.0163731
0.00219918
0.0162107
0.00227934
0.0160447
0.00235729
0.0158763
0.00242074
0.0157023
0.00247414
0.0155173
0.00253403
0.0153191
0.0026106
0.0151111
0.00269524
0.0149012
0.00276707
0.0146967
0.00281243
0.0144991
0.00283912
0.0143031
0.00287302
0.014099
0.00294081
0.013878
0.00305333
0.0136364
0.0032015
0.0133755
0.00336435
0.0130995
0.00352081
0.0128126
0.00365762
0.0125179
0.00377108
0.0122172
0.00386434
0.0119111
0.00394344
0.0116001
0.00401417
0.0112841
0.00408067
0.0109631
0.00414532
0.010637
0.00420924
0.0103056
0.00427281
0.00996873
0.0043361
0.00962632
0.00439904
0.00927823
0.00446149
0.00892434
0.00452332
0.00856459
0.00458437
0.00819891
0.00464452
0.00782729
0.00470362
0.00744973
0.00476158
0.00706628
0.00481826
0.00667701
0.00487358
0.00628208
0.00492746
0.00588168
0.00497982
0.00547611
0.00503064
0.00506572
0.00507988
0.004651
0.00512754
0.00423252
0.0051736
0.00381096
0.00521806
0.00338712
0.00526084
0.00296185
0.00530184
0.00253602
0.00534076
0.00211042
0.00537717
0.00168573
0.00541027
0.00126233
0.00543922
0.000840362
0.00546217
0.000419443
0.00548027
0.00547794
0.0199238
0.000413795
0.0198682
0.000179831
0.0198708
0.000179291
0.0199085
0.000212959
0.0199243
0.000265233
0.0199004
0.000308723
0.0198691
0.000322014
0.0198646
0.000331425
0.0198791
0.000371268
0.0198845
0.000433339
0.0198646
0.000487734
0.0198243
0.000516641
0.019776
0.000525626
0.0197277
0.000532842
0.0196847
0.000554659
0.0196514
0.000598928
0.0196258
0.000662004
0.0195965
0.000731135
0.019549
0.000793958
0.0194775
0.000846128
0.0193894
0.000889824
0.0192988
0.000926658
0.0192161
0.000955171
0.0191439
0.000976137
0.01908
0.000998063
0.0190213
0.00103409
0.0189635
0.00109121
0.0189016
0.00116238
0.0188318
0.00123044
0.0187557
0.00128153
0.0186784
0.00131607
0.0186032
0.00134729
0.0185281
0.0013891
0.0184465
0.00144515
0.0183524
0.00150857
0.0182437
0.00157101
0.0181209
0.00163015
0.0179866
0.0016883
0.0178451
0.00174569
0.0177031
0.0017986
0.0175661
0.00184575
0.0174352
0.00189426
0.0173064
0.00195492
0.0171742
0.00202965
0.0170365
0.00210646
0.016895
0.00217104
0.0167511
0.00222372
0.0166018
0.00228131
0.0164419
0.00235911
0.0162689
0.00245228
0.0160874
0.00253884
0.0159053
0.00260281
0.015727
0.00265246
0.0155482
0.00271286
0.0153592
0.00279956
0.0151539
0.00290056
0.0149356
0.00298533
0.0147156
0.00303243
0.0145046