/*--------------------------------*- C++ -*----------------------------------*\
| =========                 |                                                 |
| \\      /  F ield         | OpenFOAM: The Open Source CFD Toolbox           |
|  \\    /   O peration     | Version:  4.1                                   |
|   \\  /    A nd           | Web:      www.OpenFOAM.org                      |
|    \\/     M anipulation  |                                                 |
\*---------------------------------------------------------------------------*/
FoamFile
{
    version     2.0;
    format      ascii;
    class       surfaceScalarField;
    location    "0.15";
    object      phi_0;
}
// * * * * * * * * * * * * * * * * * * * * * * * * * * * * * * * * * * * * * //

dimensions      [0 3 -1 0 0 0 0];

internalField   nonuniform List<scalar> 
87025
(
0.0201205
-0.000103312
0.020106
1.44946e-05
0.0200537
5.23454e-05
0.0200039
4.97994e-05
0.0199685
3.54257e-05
0.0199591
9.34695e-06
0.0199566
2.54395e-06
0.0199315
2.50954e-05
0.0198791
5.24277e-05
0.0198216
5.74238e-05
0.0197794
4.22563e-05
0.0197525
2.69054e-05
0.0197248
2.77087e-05
0.0196781
4.66567e-05
0.0196065
7.16398e-05
0.019522
8.45032e-05
0.0194461
7.58641e-05
0.0193935
5.26331e-05
0.0193585
3.49506e-05
0.0193181
4.04091e-05
0.0192471
7.10585e-05
0.019136
0.000111094
0.0189964
0.00013953
0.0188525
0.000143909
0.0187262
0.00012628
0.0186301
9.6165e-05
0.0185626
6.74639e-05
0.0185083
5.43483e-05
0.0184439
6.43458e-05
0.0183517
9.22443e-05
0.0182305
0.000121159
0.018096
0.000134535
0.0179661
0.000129911
0.0178458
0.000120262
0.0177249
0.00012086
0.0175896
0.000135311
0.0174351
0.000154574
0.0172666
0.000168442
0.0170915
0.000175137
0.0169125
0.000178968
0.0167307
0.000181806
0.01655
0.000180728
0.0163754
0.000174593
0.0162061
0.000169316
0.0160331
0.000172999
0.0158469
0.000186171
0.0156471
0.000199777
0.0154417
0.000205391
0.0152356
0.00020614
0.015021
0.000214616
0.0147825
0.000238516
0.0145128
0.000269622
0.0142229
0.000289944
0.0139327
0.000290245
0.0136505
0.000282113
0.0133604
0.000290105
0.0130301
0.000330288
0.012636
0.000394132
0.0121823
0.000453664
0.0116992
0.000483177
0.0112233
0.000475887
0.01078
0.000443254
0.0103769
0.000403133
0.0100078
0.000369082
0.00966072
0.00034709
0.00932332
0.000337402
0.00898679
0.000336537
0.00864602
0.00034077
0.00829875
0.000347265
0.00794442
0.000354332
0.00758325
0.000361165
0.00721579
0.000367459
0.00684269
0.0003731
0.0064647
0.000377997
0.00608266
0.000382035
0.00569761
0.000385053
0.00531075
0.000386856
0.00492352
0.000387237
0.00453754
0.000385976
0.00415469
0.000382849
0.00377706
0.000377637
0.00340691
0.000370145
0.0030467
0.000360215
0.00269895
0.000347749
0.00236623
0.000332716
0.00205106
0.000315175
0.00175578
0.000295277
0.0014825
0.000273278
0.00123297
0.000249533
0.00100848
0.000224488
0.000809791
0.000198689
0.000637055
0.000172736
0.000489804
0.000147251
0.000366928
0.000122876
0.000266655
0.000100273
0.000186594
8.00606e-05
0.000123689
6.29056e-05
7.44302e-05
4.92584e-05
3.47884e-05
3.96418e-05
3.47884e-05
0.0201477
-5.7576e-05
0.0201167
4.54278e-05
0.0201253
4.37459e-05
0.020123
5.21142e-05
0.0200968
6.16232e-05
0.0200597
4.64496e-05
0.0200378
2.44072e-05
0.0200355
2.74027e-05
0.0200297
5.82648e-05
0.0200001
8.70662e-05
0.0199513
9.09955e-05
0.0199038
7.4474e-05
0.0198715
5.99979e-05
0.0198525
6.55888e-05
0.0198333
9.09206e-05
0.0197975
0.000120267
0.0197382
0.000135179
0.0196602
0.000130575
0.0195791
0.000116056
0.0195124
0.000107115
0.0194715
0.000112006
0.0194529
0.000129652
0.0194381
0.000154348
0.0194014
0.000180579
0.0193262
0.000201474
0.0192122
0.000210174
0.0190787
0.000201012
0.018957
0.000175976
0.0188723
0.000149123
0.0188268
0.00013772
0.0187956
0.000152384
0.018741
0.000189123
0.0186406
0.000230283
0.0185053
0.000255568
0.0183704
0.000255725
0.018268
0.000237777
0.0182037
0.000218814
0.0181582
0.000213938
0.0181059
0.000227462
0.0180318
0.000253127
0.017932
0.000281599
0.0178055
0.000307171
0.017651
0.000329094
0.0174729
0.000347428
0.0172867
0.000359205
0.0171126
0.000360279
0.0169612
0.000351167
0.0168264
0.000340191
0.0166931
0.000339468
0.0165515
0.000356189
0.0164033
0.000386752
0.0162537
0.000419164
0.0161019
0.000441813
0.0159401
0.000451967
0.0157631
0.000459155
0.015575
0.000478175
0.0153871
0.000518247
0.0152067
0.000574525
0.015031
0.000629301
0.0148499
0.000664318
0.0146535
0.000672229
0.0144375
0.00065926
0.0142017
0.000638947
0.0139474
0.000623437
0.0136766
0.000617854
0.0133914
0.000622606
0.0130932
0.000634761
0.0127832
0.00065074
0.0124626
0.000667839
0.0121324
0.000684559
0.0117932
0.000700335
0.0114456
0.000715097
0.0110898
0.000728909
0.010726
0.000741796
0.0103543
0.000753692
0.00997494
0.000764448
0.00958796
0.000773844
0.00919357
0.00078162
0.00879206
0.000787489
0.00838377
0.000791143
0.00796914
0.000792266
0.00754873
0.000790553
0.00712321
0.000785733
0.00669337
0.000777595
0.00626007
0.000766007
0.00582431
0.000750934
0.00538713
0.000732458
0.00494963
0.00071078
0.00451294
0.000686221
0.00407824
0.000659189
0.00364666
0.000630272
0.00321914
0.000600258
0.00279656
0.000569833
0.00237967
0.000539759
0.00196904
0.000510906
0.00156489
0.000484209
0.00116701
0.000460784
0.00077463
0.000441643
0.000385896
0.000428375
0.000420685
0.020338
0.000102741
0.0203195
6.39259e-05
0.0202253
0.000137925
0.0201066
0.000170788
0.0200149
0.000153324
0.0199467
0.000114635
0.0198929
7.82394e-05
0.0198606
5.9731e-05
0.0198582
6.06667e-05
0.0198745
7.06961e-05
0.0198834
8.20718e-05
0.0198615
9.64176e-05
0.0198033
0.000118172
0.0197239
0.000145023
0.0196482
0.000166574
0.019595
0.00017353
0.019563
0.000167207
0.019536
0.000157511
0.0194985
0.000153535
0.019448
0.000157613
0.0193923
0.000167697
0.0193395
0.000182493
0.0192916
0.000202223
0.019246
0.000226253
0.0191951
0.000252301
0.0191296
0.00027568
0.0190393
0.00029135
0.0189209
0.000294412
0.0187869
0.00028307
0.0186593
0.000265331
0.0185536
0.00025804
0.0184667
0.000276111
0.0183786
0.000318295
0.01827
0.000364158
0.0181372
0.000388589
0.0179933
0.000381613
0.017857
0.000355188
0.0177389
0.000332023
0.0176383
0.000328088
0.0175471
0.000344262
0.0174571
0.000371632
0.0173625
0.000401737
0.01726
0.00043159
0.0171469
0.000460521
0.0170198
0.000486341
0.0168734
0.000506643
0.0167025
0.000522064
0.0165069
0.000535845
0.0162965
0.000549902
0.0160902
0.000562486
0.0159061
0.000570808
0.0157491
0.000576146
0.0156055
0.000585434
0.0154511
0.000606405
0.0152688
0.000641442
0.0150614
0.000685584
0.0148498
0.000729805
0.0146586
0.000765775
0.0144996
0.000788227
0.0143674
0.000796549
0.0142449
0.000794743
0.0141129
0.000791201
0.0139574
0.000794493
0.0137721
0.000808718
0.0135574
0.000832564
0.0133179
0.000862132
0.0130596
0.000893015
0.0127882
0.000922129
0.0125077
0.000948373
0.0122203
0.000971925
0.0119272
0.000993451
0.0116287
0.00101358
0.0113249
0.00103272
0.0110157
0.00105102
0.0107009
0.0010685
0.0103803
0.00108506
0.0100536
0.00110054
0.00972048
0.00111474
0.00938053
0.00112744
0.00903328
0.00113839
0.00867823
0.00114732
0.00831481
0.00115397
0.00794244
0.00115811
0.0075605
0.00115953
0.00716841
0.0011581
0.0067656
0.00115375
0.00635155
0.00114651
0.00592584
0.00113648
0.00548818
0.00112388
0.00503839
0.00110898
0.00457645
0.00109221
0.00410269
0.00107402
0.00361765
0.00105487
0.00312212
0.00103529
0.00261713
0.0010159
0.00210392
0.000997419
0.00158391
0.000980794
0.00105871
0.000966841
0.000529761
0.000957324
0.000950446
0.0200613
0.000249331
0.0200264
9.87789e-05
0.0200119
0.000152416
0.0199876
0.00019517
0.0199578
0.000183055
0.0199251
0.000147392
0.0198887
0.000114641
0.0198568
9.16349e-05
0.0198409
7.65492e-05
0.0198372
7.43667e-05
0.019828
9.12753e-05
0.0198008
0.000123663
0.0197622
0.000156694
0.0197306
0.000176671
0.0197144
0.00018279
0.0197013
0.000186612
0.019668
0.000200545
0.0196003
0.000225182
0.0195061
0.000247747
0.019409
0.00025468
0.0193301
0.000246608
0.0192731
0.000239502
0.0192254
0.00024989
0.0191718
0.000279871
0.0191071
0.000316991
0.0190352
0.000347605
0.018961
0.000365546
0.0188841
0.000371322
0.0187992
0.000367957
0.0187045
0.00036
0.0186063
0.000356311
0.0185144
0.000367958
0.0184333
0.000399376
0.0183558
0.000441652
0.0182674
0.000477001
0.0181568
0.000492184
0.0180232
0.000488826
0.017874
0.000481243
0.0177181
0.000484
0.0175615
0.000500801
0.0174085
0.000524626
0.0172628
0.000547461
0.0171254
0.000569045
0.0169904
0.000595499
0.0168456
0.00063108
0.0166796
0.00067264
0.01649
0.000711699
0.0162854
0.000740449
0.0160797
0.000755633
0.0158836
0.000758533
0.0157005
0.000753919
0.0155267
0.000749971
0.0153552
0.000756942
0.0151793
0.000782265
0.0149959
0.000824882
0.0148071
0.000874422
0.0146195
0.000917323
0.0144405
0.000944816
0.0142721
0.000956617
0.0141092
0.000959488
0.013941
0.00096293
0.0137573
0.000974921
0.0135527
0.000999092
0.0133273
0.00103412
0.0130844
0.0010754
0.0128287
0.00111787
0.0125638
0.00115786
0.0122923
0.00119367
0.0120154
0.0012253
0.0117338
0.00125351
0.0114479
0.0012793
0.0111581
0.00130344
0.0108644
0.00132641
0.010567
0.00134844
0.0102659
0.00136961
0.00996101
0.00138991
0.00965227
0.00140928
0.00933941
0.0014276
0.00902211
0.00144475
0.00869991
0.00146058
0.00837226
0.00147497
0.00803847
0.00148776
0.00769773
0.00149885
0.00734911
0.00150814
0.0069916
0.00151561
0.00662407
0.00152128
0.00624536
0.00152522
0.00585427
0.00152758
0.0054496
0.00152855
0.00503023
0.00152835
0.00459519
0.00152724
0.00414377
0.00152544
0.00367553
0.00152312
0.00319045
0.00152037
0.00268902
0.00151732
0.00217235
0.00151409
0.00164218
0.00151096
0.00110103
0.001508
0.000552001
0.00150635
0.00150245
0.0201862
0.000117178
0.02021
7.503e-05
0.0202035
0.000158877
0.0201707
0.000228017
0.0201202
0.000233532
0.0200724
0.000195231
0.0200353
0.000151717
0.0199955
0.000131445
0.0199461
0.0001259
0.0198985
0.00012201
0.019865
0.000124755
0.0198442
0.000144468
0.0198227
0.000178161
0.0197865
0.00021289
0.0197285
0.000240775
0.0196531
0.00026199
0.0195747
0.000278972
0.0195077
0.000292239
0.0194546
0.00030085
0.0194038
0.000305457
0.0193405
0.000309939
0.0192606
0.0003194
0.0191746
0.000335875
0.0190978
0.000356603
0.019038
0.000376879
0.0189907
0.000394904
0.018943
0.000413221
0.0188808
0.000433462
0.0187969
0.000451868
0.0186939
0.000463036
0.0185824
0.000467785
0.0184747
0.000475714
0.0183769
0.000497128
0.0182868
0.000531807
0.018196
0.000567801
0.0180953
0.000592826
0.0179777
0.000606437
0.0178391
0.000619851
0.0176798
0.000643336
0.0175061
0.000674438
0.0173307
0.000700085
0.0171673
0.000710769
0.0170248
0.00071157
0.0169014
0.000718948
0.0167862
0.000746265
0.016666
0.000792851
0.0165312
0.000846483
0.0163773
0.000894295
0.0162034
0.000929627
0.0160107
0.000951146
0.0158048
0.000959887
0.0155947
0.000960031
0.0153906
0.000961065
0.0151979
0.000974996
0.0150144
0.00100833
0.0148327
0.00105618
0.0146451
0.00110484
0.014449
0.00114098
0.0142456
0.00116
0.014037
0.00116803
0.0138229
0.00117706
0.0136002
0.00119764
0.0133655
0.00123378
0.0131173
0.00128234
0.0128564
0.00133633
0.0125852
0.00138908
0.0123064
0.00143663
0.0120221
0.00147792
0.0117336
0.00151381
0.0114414
0.00154578
0.0111455
0.00157513
0.0108462
0.00160277
0.0105434
0.00162916
0.0102373
0.00165454
0.00992797
0.00167898
0.00961538
0.0017025
0.0092996
0.00172506
0.00898059
0.00174661
0.00865823
0.0017671
0.00833234
0.00178648
0.00800263
0.00180468
0.00766869
0.0018217
0.00733
0.00183753
0.00698592
0.00185223
0.00663566
0.00186588
0.00627829
0.00187864
0.00591278
0.00189073
0.00553798
0.00190238
0.00515265
0.00191388
0.00475549
0.00192551
0.00434521
0.00193752
0.0039206
0.00195005
0.00348067
0.00196305
0.00302476
0.00197628
0.00255268
0.00198939
0.00206496
0.00200182
0.00156293
0.00201299
0.00104896
0.00202196
0.000526245
0.00202906
0.00202869
0.0199895
0.000137059
0.0199398
0.000124689
0.019921
0.000177682
0.0199235
0.000225554
0.0199519
0.000205145
0.0199958
0.000151252
0.0200099
0.000137636
0.0199818
0.000159583
0.019934
0.000173641
0.019893
0.000163079
0.0198653
0.000152414
0.0198401
0.000169677
0.0198023
0.00021595
0.0197444
0.000270833
0.0196721
0.000312998
0.0195996
0.000334504
0.0195399
0.000338746
0.019497
0.000335045
0.0194642
0.000333678
0.0194284
0.000341299
0.01938
0.000358304
0.0193188
0.00038061
0.0192505
0.000404141
0.0191799
0.000427211
0.0191072
0.000449617
0.0190315
0.000470638
0.0189556
0.000489113
0.0188838
0.00050518
0.0188145
0.000521181
0.0187369
0.000540697
0.0186382
0.000566447
0.0185156
0.000598313
0.0183799
0.000632804
0.0182472
0.000664506
0.0181259
0.000689183
0.0180119
0.000706805
0.0178964
0.000721904
0.0177759
0.000740401
0.0176541
0.000765101
0.0175353
0.000793283
0.0174164
0.000818929
0.0172891
0.000838051
0.0171482
0.000852507
0.0169976
0.000869558
0.0168464
0.000897413
0.0166992
0.000940117
0.0165509
0.000994767
0.0163926
0.00105255
0.0162202
0.00110208
0.0160376
0.00113369
0.0158532
0.00114428
0.0156725
0.00114081
0.0154948
0.00113877
0.0153155
0.0011543
0.0151295
0.00119425
0.014934
0.00125166
0.0147285
0.00131038
0.0145142
0.00135528
0.0142929
0.00138126
0.0140656
0.00139533
0.0138316
0.00141109
0.0135891
0.00144014
0.0133366
0.00148632
0.0130734
0.00154548
0.0128003
0.00160942
0.0125188
0.00167061
0.0122306
0.00172483
0.0119372
0.00177135
0.0116394
0.00181155
0.0113378
0.00184741
0.0110324
0.00188053
0.0107232
0.00191192
0.0104103
0.00194208
0.0100937
0.0019712
0.0097733
0.00199935
0.00944929
0.0020265
0.0091217
0.00205265
0.00879057
0.00207774
0.00845592
0.00210176
0.00811772
0.00212467
0.00777592
0.00214649
0.00743038
0.00216724
0.00708091
0.002187
0.00672722
0.00220592
0.00636893
0.00222417
0.00600557
0.00224201
0.00563654
0.00225976
0.00526114
0.00227778
0.00487855
0.00229647
0.00448786
0.0023162
0.00408809
0.00233729
0.00367821
0.00235994
0.00325719
0.00238406
0.00282429
0.00240919
0.00237906
0.00243462
0.00192162
0.00245927
0.00145277
0.00248184
0.00097426
0.00250047
0.000488514
0.00251481
0.00251721
0.0201644
0.000103049
0.0201342
0.000154836
0.0200873
0.000224538
0.0200476
0.000265279
0.0200256
0.000227161
0.0200124
0.000164507
0.020004
0.000145938
0.0199915
0.000172167
0.0199612
0.000203923
0.0199027
0.000221521
0.0198212
0.000233908
0.0197398
0.00025111
0.0196844
0.000271368
0.0196631
0.000292152
0.01966
0.000316114
0.0196492
0.000345309
0.0196135
0.000374402
0.0195543
0.000394199
0.0194867
0.000401353
0.0194262
0.000401781
0.0193794
0.000405116
0.019342
0.000417977
0.0193033
0.000442826
0.0192511
0.000479441
0.019177
0.000523761
0.0190816
0.000566035
0.0189762
0.000594446
0.018877
0.000604397
0.018793
0.000605209
0.0187181
0.000615598
0.0186352
0.000649321
0.0185303
0.000703214
0.018404
0.000759113
0.0182702
0.000798344
0.0181436
0.000815769
0.0180288
0.000821601
0.0179197
0.000830947
0.0178087
0.000851418
0.0176942
0.000879574
0.0175801
0.000907404
0.0174674
0.000931675
0.0173487
0.000956745
0.0172124
0.000988822
0.0170528
0.0010291
0.0168765
0.00107377
0.0166966
0.00112002
0.016522
0.00116932
0.0163518
0.00122273
0.01618
0.00127394
0.016004
0.00130968
0.0158277
0.00132059
0.0156555
0.00131297
0.0154853
0.00130899
0.0153073
0.00133224
0.0151114
0.00139019
0.0148947
0.00146842
0.0146639
0.00154115
0.0144305
0.00158869
0.0142028
0.0016089
0.013982
0.00161613
0.0137627
0.00163043
0.0135373
0.00166558
0.0133
0.00172356
0.0130488
0.00179671
0.0127842
0.00187404
0.0125081
0.00194665
0.0122228
0.00201018
0.0119299
0.00206427
0.0116306
0.00211081
0.0113259
0.00215218
0.0110161
0.0021903
0.0107016
0.0022264
0.0103826
0.00226109
0.0100591
0.00229466
0.0097313
0.00232718
0.00939915
0.00235866
0.00906271
0.00238908
0.00872203
0.00241842
0.00837716
0.00244663
0.00802812
0.00247371
0.00767495
0.00249966
0.00731766
0.00252454
0.00695622
0.00254844
0.00659063
0.00257152
0.0062208
0.002594
0.00584663
0.00261617
0.00546797
0.00263842
0.0050846
0.00266115
0.00469623
0.00268484
0.00430249
0.00270994
0.00390293
0.00273684
0.00349709
0.00276579
0.00308441
0.00279674
0.00266436
0.00282923
0.0022366
0.00286238
0.00180111
0.00289476
0.00135829
0.00292465
0.000909221
0.00294954
0.000455362
0.00296867
0.00297257
0.0201524
0.000261706
0.0201686
0.00013855
0.0201742
0.000218987
0.0201442
0.000295229
0.0201086
0.000262766
0.0200844
0.00018872
0.020072
0.000158328
0.0200539
0.000190256
0.0200136
0.000244222
0.0199549
0.000280273
0.0198981
0.000290657
0.0198578
0.000291472
0.01983
0.00029916
0.0198054
0.000316744
0.0197821
0.000339416
0.0197647
0.000362681
0.0197521
0.00038706
0.0197307
0.000415553
0.0196835
0.000448602
0.0196028
0.000482431
0.0194964
0.000511492
0.0193816
0.000532847
0.0192757
0.000548646
0.0191902
0.000565024
0.0191258
0.000588114
0.0190724
0.000619435
0.0190128
0.000654028
0.0189331
0.000684178
0.0188312
0.000707104
0.0187174
0.000729368
0.0186051
0.000761602
0.0185013
0.000807043
0.0184045
0.000855842
0.0183102
0.000892712
0.0182145
0.000911401
0.0181145
0.000921627
0.0180044
0.000941063
0.0178765
0.000979289
0.0177272
0.00102891
0.0175623
0.00107229
0.0173961
0.00109786
0.0172421
0.00111082
0.017103
0.00112789
0.0169702
0.00116189
0.0168318
0.0012122
0.0166823
0.00126951
0.0165249
0.00132672
0.0163651
0.0013825
0.0162045
0.00143453
0.0160402
0.00147396
0.0158694
0.00149142
0.0156919
0.00149044
0.0155087
0.00149224
0.0153178
0.00152311
0.0151148
0.00159318
0.0148971
0.00168612
0.0146684
0.00176987
0.0144377
0.00181942
0.0142134
0.00183315
0.0139979
0.00183164
0.0137861
0.00184229
0.0135689
0.00188276
0.0133385
0.00195399
0.013091
0.0020442
0.0128268
0.00213816
0.0125489
0.00222455
0.0122606
0.00229855
0.0119643
0.00236051
0.0116618
0.00241329
0.011354
0.00246004
0.0110411
0.00250314
0.0107235
0.00254405
0.0104011
0.00258351
0.0100739
0.00262184
0.00974192
0.00265915
0.00940513
0.00269545
0.00906352
0.0027307
0.00871707
0.00276487
0.00836579
0.00279791
0.00800969
0.0028298
0.00764881
0.00286054
0.00728318
0.00289016
0.00691287
0.00291875
0.00653795
0.00294643
0.00615853
0.00297342
0.00577472
0.00299998
0.00538665
0.00302648
0.00499447
0.00305333
0.0045983
0.00308101
0.00419826
0.00310998
0.00379443
0.00314067
0.00338687
0.00317334
0.0029756
0.00320802
0.00256056
0.00324428
0.00214168
0.00328126
0.00171902
0.00331742
0.00129281
0.00335087
0.000863556
0.0033788
0.000431912
0.00340031
0.00340448
0.0201023
0.000261141
0.0200765
0.000164259
0.0200772
0.000218342
0.0201171
0.000255295
0.0201422
0.000237706
0.020135
0.000195908
0.020097
0.000196355
0.0200346
0.0002526
0.0199587
0.000320113
0.019887
0.000351975
0.019836
0.00034174
0.019809
0.000318386
0.0197943
0.00031387
0.0197745
0.000336531
0.0197436
0.000370344
0.0197068
0.000399482
0.0196683
0.000425526
0.0196226
0.000461268
0.0195612
0.000510076
0.0194855
0.000558065
0.0194083
0.000588685
0.0193408
0.000600351
0.019283
0.000606422
0.0192272
0.000620901
0.0191668
0.000648482
0.0190995
0.000686723
0.0190221
0.000731477
0.0189286
0.000777651
0.0188168
0.000818915
0.0186944
0.000851754
0.0185762
0.000879815
0.0184724
0.000910776
0.0183808
0.000947469
0.0182894
0.000984177
0.018187
0.00101373
0.0180713
0.0010374
0.0179471
0.00106525
0.0178212
0.00110519
0.0176975
0.00115263
0.0175761
0.00119362
0.0174549
0.00121909
0.0173304
0.00123533
0.0171994
0.00125886
0.0170602
0.00130114
0.0169133
0.00135905
0.0167625
0.00142028
0.0166132
0.00147603
0.0164691
0.00152659
0.0163287
0.00157498
0.0161839
0.00161879
0.0160234
0.00165189
0.0158392
0.00167462
0.0156314
0.00170006
0.015408
0.00174647
0.0151803
0.00182096
0.0149566
0.00190974
0.0147407
0.00198578
0.0145317
0.00202846
0.0143259
0.00203892
0.0141184
0.00203912
0.0139038
0.0020569
0.013677
0.00210955
0.0134345
0.00219651
0.0131751
0.00230359
0.0129003
0.00241295
0.0126133
0.00251162
0.0123173
0.00259448
0.0120151
0.0026627
0.0117082
0.00272023
0.011397
0.00277118
0.0110817
0.00281848
0.010762
0.00286378
0.0104376
0.00290787
0.0101084
0.00295101
0.00977431
0.00299329
0.0094351
0.00303465
0.00909074
0.00307506
0.00874116
0.00311445
0.00838632
0.00315275
0.0080262
0.00318993
0.00766079
0.00322595
0.00729013
0.00326083
0.00691428
0.0032946
0.00653335
0.00332736
0.00614749
0.00335927
0.00575692
0.00339056
0.0053619
0.0034215
0.00496277
0.00345246
0.00455993
0.00348385
0.0041538
0.00351611
0.00374486
0.0035496
0.00333359
0.00358461
0.00292043
0.00362118
0.00250574
0.00365897
0.00208983
0.00369716
0.00167295
0.0037343
0.00125527
0.00376855
0.000836988
0.00379707
0.000418157
0.00381914
0.00382264
0.0198125
-0.000107664
0.0199308
4.58736e-05
0.0199655
0.000183728
0.0199704
0.000250345
0.019968
0.000240086
0.0199445
0.000219427
0.0199055
0.000235349
0.0198774
0.000280744
0.0198741
0.000323357
0.0198804
0.000345753
0.0198687
0.000353392
0.0198285
0.000358624
0.0197745
0.000367858
0.0197288
0.000382249
0.0196973
0.000401818
0.0196697
0.000427063
0.019634
0.000461248
0.0195887
0.000506568
0.0195404
0.000558389
0.019493
0.000605437
0.0194426
0.000639095
0.0193816
0.000661334
0.0193069
0.000681173
0.0192227
0.000705088
0.0191371
0.000734013
0.0190555
0.000768331
0.0189765
0.000810471
0.0188942
0.000860006
0.0188037
0.000909391
0.0187064
0.000949055
0.0186088
0.000977464
0.018516
0.00100355
0.0184259
0.00103758
0.0183292
0.00108083
0.0182172
0.00112575
0.0180891
0.00116553
0.0179536
0.00120075
0.0178232
0.00123559
0.0177058
0.00126995
0.0176002
0.00129921
0.0174965
0.00132286
0.0173819
0.00134988
0.0172492
0.00139161
0.0171012
0.00144916
0.0169494
0.0015108
0.0168059
0.0015638
0.016674
0.00160793
0.0165458
0.00165479
0.0164074
0.0017134
0.0162477
0.00177847
0.0160644
0.00183517
0.0158634
0.00187567
0.015654
0.00190947
0.0154445
0.00195589
0.0152401
0.00202543
0.0150416
0.00210821
0.0148465
0.00218084
0.0146498
0.00222519
0.0144459
0.00224283
0.0142308
0.00225423
0.0140025
0.00228515
0.0137606
0.00235148
0.013505
0.00245205
0.0132364
0.00257221
0.012956
0.00269339
0.0126657
0.00280188
0.0123679
0.00289232
0.0120644
0.00296623
0.0117563
0.00302832
0.0114441
0.00308338
0.0111277
0.00313481
0.010807
0.00318448
0.0104817
0.0032332
0.0101515
0.00328124
0.00981619
0.00332858
0.00947566
0.00337518
0.00912979
0.00342093
0.00877848
0.00346575
0.00842167
0.00350957
0.00805929
0.00355231
0.00769133
0.00359392
0.00731779
0.00363436
0.00693873
0.00367366
0.00655424
0.00371185
0.00616448
0.00374903
0.00576969
0.00378535
0.00537019
0.00382101
0.00496637
0.00385628
0.00455875
0.00389147
0.00414794
0.00392692
0.00373461
0.00396293
0.00331949
0.00399974
0.0029033
0.00403737
0.00248673
0.00407553
0.00207036
0.00411354
0.0016546
0.00415006
0.00123967
0.00418348
0.000825641
0.00421111
0.000412196
0.00423259
0.00423483
0.0202502
0.000231022
0.0200811
0.000214913
0.0200287
0.000236224
0.0200289
0.00025014
0.020033
0.000235932
0.0200174
0.000234993
0.0199893
0.000263515
0.0199658
0.00030418
0.0199493
0.000339937
0.0199248
0.000370252
0.019879
0.000399181
0.0198141
0.000423488
0.0197443
0.000437634
0.0196846
0.000441937
0.0196403
0.00044621
0.0196055
0.000461811
0.0195739
0.000492903
0.0195449
0.000535559
0.0195197
0.0005835
0.0194918
0.000633366
0.0194463
0.000684571
0.0193729
0.000734735
0.0192765
0.000777568
0.019174
0.00080766
0.0190803
0.000827707
0.0189995
0.000849116
0.0189266
0.000883407
0.0188542
0.000932387
0.0187766
0.000986982
0.0186899
0.00103576
0.0185929
0.00107448
0.0184888
0.00110761
0.0183847
0.00114167
0.0182872
0.00117835
0.018198
0.0012149
0.0181134
0.00125014
0.0180265
0.00128764
0.0179312
0.00133089
0.0178247
0.00137648
0.0177083
0.00141567
0.0175858
0.00144534
0.0174602
0.00147545
0.0173304
0.00152144
0.0171921
0.00158743
0.0170431
0.00165978
0.0168866
0.00172036
0.0167284
0.00176608
0.016571
0.00181219
0.0164095
0.00187487
0.0162359
0.00195209
0.0160466
0.00202452
0.0158463
0.00207594
0.015645
0.00211078
0.0154506
0.00215023
0.0152648
0.00221123
0.015083
0.00229003
0.014898
0.00236586
0.0147035
0.00241971
0.0144958
0.00245052
0.0142739
0.00247607
0.0140387
0.00252036
0.0137916
0.00259859
0.0135339
0.00270981
0.0132662
0.00283985
0.0129892
0.00297041
0.0127035
0.0030876
0.01241
0.00318579
0.0121099
0.00326636
0.011804
0.0033342
0.011493
0.00339442
0.011177
0.00345074
0.0108563
0.00350526
0.0105305
0.00355892
0.0101998
0.00361203
0.00986375
0.00366459
0.00952238
0.00371654
0.00917554
0.00376777
0.00882312
0.00381817
0.00846505
0.00386764
0.00810127
0.00391609
0.00773173
0.00396345
0.00735644
0.00400966
0.00697543
0.00405467
0.00658879
0.00409848
0.00619668
0.00414114
0.00579932
0.00418271
0.00539702
0.00422331
0.0049902
0.00426309
0.0045794
0.00430227
0.00416525
0.00434106
0.00374852
0.00437967
0.00333004
0.00441822
0.00291067
0.00445674
0.00249126
0.00449494
0.00207256
0.00453224
0.00165512
0.0045675
0.00123922
0.00459938
0.000824891
0.00462543
0.000411684
0.0046458
0.00464652
0.0197221
1.47536e-05
0.0198708
6.61525e-05
0.0199346
0.000172453
0.0199751
0.000209684
0.0199898
0.000221242
0.0199787
0.000246063
0.0199513
0.000290855
0.0199172
0.000338294
0.0198819
0.000375277
0.0198535
0.000398632
0.0198392
0.000413517
0.0198362
0.000426478
0.0198332
0.000440647
0.0198152
0.000459955
0.0197712
0.000490185
0.0196989
0.000534117
0.019606
0.000585827
0.0195084
0.000633139
0.0194235
0.000668374
0.0193616
0.000695309
0.0193221
0.000724067
0.0192965
0.000760335
0.0192728
0.000801254
0.019239
0.000841447
0.0191863
0.000880409
0.0191131
0.000922288
0.0190269
0.000969587
0.0189397
0.00101965
0.0188591
0.0010676
0.0187836
0.0011112
0.018706
0.00115213
0.0186201
0.00119345
0.0185255
0.00123628
0.0184248
0.00127903
0.0183203
0.00131942
0.0182127
0.00135777
0.0181024
0.00139797
0.0179892
0.00144408
0.0178709
0.00149476
0.0177438
0.00154274
0.0176066
0.0015826
0.0174625
0.00161946
0.0173172
0.00166678
0.0171721
0.00173252
0.017023
0.00180889
0.0168644
0.00187896
0.0166961
0.00193439
0.0165241
0.00198421
0.016355
0.00204394
0.0161898
0.00211731
0.0160226
0.00219175
0.0158457
0.00225281
0.0156559
0.00230059
0.0154565
0.00234966
0.0152546
0.00241307
0.0150566
0.00248801
0.0148645
0.00255796
0.0146756
0.00260867
0.0144837
0.00264238
0.0142819
0.00267792
0.0140645
0.00273771
0.0138295
0.0028336
0.013578
0.00296131
0.0133129
0.00310499
0.013037
0.00324634
0.0127523
0.00337228
0.0124601
0.00347792
0.0121614
0.00356511
0.0118566
0.00363896
0.0115463
0.00370474
0.0112307
0.00376634
0.0109099
0.00382603
0.010584
0.00388487
0.0102528
0.00394321
0.00991628
0.00400113
0.00957427
0.00405855
0.00922668
0.00411537
0.00887339
0.00417145
0.00851435
0.00422669
0.00814948
0.00428096
0.00777875
0.00433418
0.00740217
0.00438624
0.00701976
0.00443707
0.00663162
0.00448663
0.00623789
0.00453488
0.00583877
0.00458183
0.00543458
0.0046275
0.0050257
0.00467197
0.00461265
0.00471533
0.00419605
0.00475767
0.00377664
0.00479908
0.00335526
0.0048396
0.00293281
0.00487919
0.00251018
0.00491757
0.00208818
0.00495424
0.00166745
0.00498824
0.00124833
0.0050185
0.00083088
0.00504288
0.000414655
0.00506202
0.00506117
0.0201466
0.000178556
0.0201025
0.000110251
0.0200959
0.000178993
0.0200516
0.000254081
0.0199863
0.000286499
0.019942
0.000290329
0.0199372
0.000295671
0.0199445
0.000330978
0.019931
0.00038881
0.0198889
0.000440731
0.0198336
0.000468823
0.0197835
0.000476566
0.0197471
0.000477017
0.0197234
0.00048373
0.0197029
0.000510598
0.0196726
0.000564419
0.0196235
0.000635006
0.0195564
0.000700193
0.0194801
0.00074466
0.0194028
0.000772671
0.0193271
0.000799735
0.0192533
0.000834089
0.0191841
0.000870527
0.0191235
0.000902011
0.0190716
0.000932334
0.0190203
0.000973577
0.018958
0.00103185
0.0188788
0.00109891
0.0187871
0.00115922
0.0186944
0.00120392
0.0186093
0.0012373
0.0185318
0.00127088
0.0184553
0.00131281
0.0183719
0.00136245
0.0182777
0.00141358
0.0181741
0.0014614
0.0180655
0.0015066
0.0179563
0.00155327
0.0178474
0.00160367
0.0177341
0.00165605
0.0176083
0.00170836
0.0174646
0.00176314
0.0173055
0.00182593
0.0171406
0.00189735
0.0169808
0.00196876
0.0168301
0.00202961
0.0166846
0.00207985
0.0165366
0.00213226
0.016381
0.00219952
0.0162186
0.00227977
0.0160525
0.00235776
0.0158841
0.00242123
0.01571
0.00247469
0.015525
0.00253468
0.0153267
0.00261139
0.0151186
0.0026961
0.0149086
0.00276792
0.0147041
0.00281325
0.0145065
0.00283996
0.0143104
0.002874
0.0141061
0.00294198
0.013885
0.00305472
0.0136433
0.00320305
0.0133823
0.00336599
0.0131061
0.00352248
0.0128191
0.00365929
0.0125243
0.00377274
0.0122234
0.00386601
0.0119172
0.00394514
0.0116061
0.00401591
0.0112899
0.00408246
0.0109688
0.00414717
0.0106425
0.00421114
0.010311
0.00427477
0.00997397
0.00433812
0.0096314
0.00440112
0.00928314
0.00446363
0.00892908
0.00452551
0.00856915
0.00458662
0.00820329
0.00464682
0.00783149
0.00470598
0.00745374
0.00476399
0.00707009
0.00482072
0.00668063
0.00487609
0.00628549
0.00493002
0.00588489
0.00498243
0.00547911
0.00503329
0.00506851
0.00508257
0.00465357
0.00513027
0.00423487
0.00517637
0.00381309
0.00522086
0.00338902
0.00526367
0.00296352
0.00530469
0.00253746
0.00534363
0.00211163
0.00538006
0.0016867
0.00541317
0.00126306
0.00544213
0.00084085
0.00546509
0.000419688
0.00548318
0.00548086
0.0199063
0.000242294
0.019879
0.000137539
0.0198815
0.000176483
0.0199158
0.000219738
0.0199287
0.000273655
0.0199028
0.00031623
0.0198705
0.000327895
0.0198658
0.00033575
0.0198803
0.0003743
0.0198858
0.000435208
0.0198661
0.000488534
0.0198261
0.000516532
0.0197783
0.000524839
0.0197304
0.000531604
0.0196879
0.000553143
0.0196551
0.000597237
0.0196299
0.000660173
0.0196009
0.000729163
0.0195537
0.000791854
0.0194825
0.000843929
0.0193946
0.000887574
0.0193043
0.000924384
0.019222
0.000952893
0.0191501
0.000973897
0.0190865
0.00099593
0.019028
0.00103212
0.0189704
0.00108942
0.0189086
0.00116071
0.018839
0.00122881
0.018763
0.00127991
0.0186858
0.00131451
0.0186108
0.00134585
0.0185358
0.00138783
0.0184542
0.00144404
0.0183602
0.00150759
0.0182515
0.00157012
0.0181287
0.00162936
0.0179944
0.00168761
0.017853
0.00174508
0.017711
0.00179806
0.017574
0.00184529
0.0174433
0.00189392
0.0173145
0.00195473
0.0171822
0.00202958
0.0170445
0.00210646
0.0169031
0.00217108
0.0167591
0.00222382
0.0166098
0.00228155
0.0164498
0.0023595
0.0162768
0.00245277
0.0160952
0.00253935
0.0159131
0.00260332
0.0157348
0.00265302
0.0155559
0.00271357
0.0153669
0.00280044
0.0151614
0.00290151
0.0149431
0.00298626
0.014723
0.0030333