/*--------------------------------*- C++ -*----------------------------------*\
| =========                 |                                                 |
| \\      /  F ield         | OpenFOAM: The Open Source CFD Toolbox           |
|  \\    /   O peration     | Version:  4.1                                   |
|   \\  /    A nd           | Web:      www.OpenFOAM.org                      |
|    \\/     M anipulation  |                                                 |
\*---------------------------------------------------------------------------*/
FoamFile
{
    version     2.0;
    format      ascii;
    class       volScalarField;
    location    "0.15";
    object      pMean;
}
// * * * * * * * * * * * * * * * * * * * * * * * * * * * * * * * * * * * * * //

dimensions      [0 2 -2 0 0 0 0];

internalField   nonuniform List<scalar> 
43750
(
250.475
248.8
248.619
247.878
247.253
246.675
246.11
245.555
245.017
244.496
243.993
243.509
243.042
242.592
242.159
241.742
241.343
240.961
240.596
240.247
239.915
239.6
239.302
239.021
238.757
238.509
238.279
238.065
237.867
237.686
237.522
237.374
237.243
237.129
237.031
236.949
236.883
236.835
236.802
236.786
236.786
236.802
236.834
236.882
236.946
237.025
237.119
237.228
237.352
237.491
237.644
237.811
237.992
238.187
238.394
238.614
238.845
239.087
239.34
239.604
239.881
240.169
240.468
240.777
241.094
241.419
241.75
242.088
242.43
242.777
243.127
243.48
243.835
244.19
244.545
244.9
245.252
245.601
245.946
246.285
246.618
246.944
247.262
247.57
247.867
248.154
248.428
248.69
248.936
249.169
249.385
249.584
249.765
249.927
250.068
250.189
250.285
250.36
250.41
250.434
250.377
248.767
248.601
247.854
247.223
246.645
246.082
245.529
244.99
244.469
243.967
243.482
243.015
242.565
242.131
241.715
241.316
240.933
240.567
240.219
239.887
239.572
239.274
238.992
238.728
238.48
238.248
238.034
237.836
237.654
237.49
237.341
237.21
237.095
236.996
236.914
236.848
236.799
236.766
236.749
236.749
236.764
236.795
236.842
236.905
236.983
237.076
237.184
237.308
237.446
237.598
237.764
237.944
238.139
238.345
238.564
238.796
239.039
239.293
239.558
239.835
240.124
240.422
240.731
241.048
241.372
241.703
242.041
242.382
242.73
243.08
243.433
243.788
244.144
244.5
244.856
245.209
245.559
245.905
246.246
246.581
246.909
247.229
247.539
247.84
248.129
248.406
248.67
248.92
249.155
249.373
249.575
249.759
249.922
250.065
250.187
250.286
250.36
250.411
250.436
250.451
248.777
248.582
247.831
247.201
246.622
246.056
245.5
244.96
244.438
243.935
243.451
242.983
242.532
242.098
241.681
241.282
240.899
240.533
240.183
239.85
239.535
239.236
238.954
238.688
238.44
238.208
237.992
237.793
237.611
237.445
237.296
237.163
237.047
236.948
236.864
236.797
236.746
236.712
236.694
236.692
236.706
236.736
236.781
236.843
236.919
237.011
237.117
237.239
237.375
237.525
237.69
237.868
238.06
238.265
238.483
238.712
238.954
239.208
239.473
239.749
240.036
240.333
240.639
240.954
241.276
241.605
241.941
242.281
242.626
242.975
243.327
243.681
244.036
244.391
244.746
245.098
245.448
245.795
246.136
246.472
246.801
247.121
247.434
247.735
248.026
248.305
248.572
248.823
249.06
249.281
249.484
249.669
249.834
249.979
250.101
250.201
250.276
250.327
250.352
250.208
248.634
248.488
247.752
247.125
246.55
245.988
245.435
244.898
244.378
243.876
243.391
242.923
242.472
242.038
241.621
241.22
240.837
240.47
240.12
239.787
239.471
239.171
238.888
238.622
238.372
238.139
237.922
237.722
237.539
237.372
237.222
237.088
236.971
236.87
236.785
236.717
236.665
236.629
236.61
236.606
236.618
236.646
236.69
236.749
236.824
236.914
237.019
237.139
237.272
237.421
237.584
237.76
237.95
238.154
238.37
238.598
238.838
239.091
239.354
239.628
239.914
240.209
240.513
240.826
241.146
241.473
241.806
242.145
242.488
242.836
243.186
243.539
243.892
244.247
244.6
244.952
245.302
245.647
245.989
246.324
246.654
246.974
247.287
247.589
247.881
248.161
248.427
248.68
248.919
249.139
249.344
249.529
249.696
249.841
249.963
250.063
250.139
250.19
250.216
250.315
248.632
248.443
247.699
247.073
246.494
245.928
245.371
244.831
244.309
243.806
243.32
242.851
242.4
241.965
241.547
241.146
240.762
240.394
240.044
239.709
239.391
239.091
238.806
238.539
238.288
238.053
237.836
237.634
237.449
237.281
237.129
236.993
236.874
236.771
236.685
236.614
236.561
236.522
236.5
236.495
236.505
236.531
236.572
236.629
236.702
236.789
236.892
237.009
237.141
237.287
237.447
237.621
237.808
238.01
238.223
238.449
238.687
238.937
239.198
239.47
239.753
240.046
240.347
240.657
240.974
241.299
241.63
241.966
242.307
242.652
243.001
243.351
243.703
244.056
244.407
244.758
245.106
245.452
245.792
246.126
246.454
246.775
247.087
247.389
247.68
247.959
248.226
248.478
248.714
248.935
249.138
249.323
249.488
249.632
249.753
249.853
249.928
249.979
250.004
250.151
248.498
248.322
247.585
246.963
246.389
245.825
245.272
244.734
244.214
243.711
243.226
242.757
242.305
241.869
241.451
241.049
240.664
240.295
239.943
239.607
239.289
238.986
238.701
238.432
238.179
237.943
237.723
237.52
237.333
237.163
237.009
236.871
236.75
236.645
236.556
236.484
236.427
236.387
236.362
236.354
236.362
236.385
236.424
236.478
236.548
236.632
236.732
236.846
236.975
237.118
237.276
237.446
237.631
237.829
238.04
238.263
238.498
238.745
239.004
239.273
239.552
239.842
240.14
240.447
240.761
241.083
241.411
241.745
242.083
242.425
242.771
243.119
243.469
243.82
244.17
244.519
244.866
245.209
245.548
245.881
246.209
246.528
246.839
247.14
247.43
247.708
247.973
248.224
248.459
248.678
248.88
249.063
249.226
249.369
249.489
249.587
249.661
249.711
249.736
249.959
248.383
248.23
247.487
246.861
246.287
245.724
245.169
244.629
244.107
243.603
243.116
242.647
242.194
241.758
241.338
240.935
240.548
240.178
239.825
239.488
239.168
238.864
238.577
238.306
238.051
237.813
237.591
237.386
237.197
237.024
236.868
236.727
236.603
236.496
236.404
236.329
236.27
236.226
236.199
236.187
236.192
236.212
236.247
236.298
236.364
236.445
236.541
236.652
236.777
236.917
237.071
237.238
237.419
237.614
237.82
238.04
238.271
238.515
238.77
239.035
239.311
239.597
239.892
240.194
240.505
240.823
241.148
241.478
241.813
242.153
242.495
242.841
243.188
243.536
243.884
244.231
244.576
244.917
245.254
245.586
245.912
246.23
246.54
246.84
247.128
247.405
247.669
247.918
248.152
248.369
248.568
248.749
248.911
249.051
249.169
249.266
249.338
249.387
249.412
249.896
248.256
248.089
247.351
246.727
246.152
245.591
245.038
244.5
243.978
243.474
242.987
242.517
242.063
241.626
241.204
240.8
240.413
240.041
239.686
239.348
239.026
238.72
238.43
238.157
237.901
237.66
237.436
237.228
237.036
236.861
236.702
236.559
236.432
236.321
236.226
236.148
236.085
236.039
236.008
235.992
235.993
236.01
236.041
236.088
236.15
236.227
236.319
236.426
236.547
236.683
236.832
236.995
237.172
237.362
237.565
237.78
238.007
238.246
238.497
238.758
239.03
239.312
239.602
239.9
240.207
240.521
240.841
241.167
241.498
241.834
242.173
242.515
242.86
243.205
243.55
243.894
244.236
244.575
244.91
245.241
245.564
245.881
246.188
246.486
246.774
247.049
247.31
247.558
247.79
248.005
248.203
248.381
248.54
248.678
248.795
248.889
248.961
249.009
249.033
249.784
248.121
247.952
247.216
246.593
246.016
245.451
244.895
244.355
243.833
243.328
242.841
242.37
241.915
241.476
241.054
240.648
240.258
239.885
239.529
239.188
238.864
238.556
238.264
237.989
237.729
237.486
237.259
237.049
236.854
236.675
236.513
236.367
236.237
236.122
236.024
235.941
235.875
235.824
235.789
235.77
235.766
235.778
235.806
235.848
235.905
235.978
236.065
236.167
236.285
236.415
236.56
236.718
236.89
237.074
237.272
237.482
237.705
237.939
238.185
238.441
238.708
238.984
239.269
239.563
239.865
240.174
240.489
240.811
241.138
241.469
241.804
242.142
242.483
242.824
243.166
243.506
243.845
244.182
244.515
244.842
245.163
245.478
245.783
246.08
246.365
246.638
246.898
247.143
247.373
247.586
247.781
247.958
248.115
248.251
248.366
248.459
248.529
248.576
248.599
249.564
247.937
247.774
247.039
246.419
245.847
245.285
244.732
244.192
243.67
243.164
242.675
242.204
241.747
241.307
240.883
240.476
240.085
239.71
239.351
239.008
238.682
238.371
238.077
237.799
237.536
237.291
237.061
236.847
236.648
236.467
236.301
236.151
236.017
235.899
235.796
235.71
235.639
235.584
235.544
235.521
235.512
235.519
235.541
235.579
235.631
235.698
235.781
235.878
235.988
236.114
236.253
236.406
236.572
236.751
236.943
237.148
237.365
237.594
237.833
238.084
238.345
238.616
238.895
239.183
239.48
239.783
240.093
240.409
240.731
241.057
241.388
241.721
242.057
242.394
242.732
243.069
243.404
243.738
244.067
244.391
244.709
245.021
245.324
245.618
245.9
246.171
246.429
246.673
246.9
247.111
247.305
247.479
247.634
247.768
247.882
247.974
248.042
248.089
248.112
249.45
247.792
247.618
246.878
246.253
245.675
245.11
244.554
244.013
243.489
242.983
242.494
242.021
241.563
241.121
240.696
240.287
239.893
239.516
239.155
238.81
238.48
238.168
237.87
237.589
237.324
237.074
236.841
236.623
236.422
236.236
236.066
235.912
235.773
235.651
235.544
235.453
235.377
235.317
235.273
235.244
235.23
235.232
235.249
235.281
235.327
235.389
235.465
235.556
235.661
235.78
235.913
236.059
236.219
236.392
236.578
236.776
236.987
237.209
237.442
237.687
237.941
238.206
238.479
238.761
239.05
239.347
239.651
239.962
240.278
240.598
240.923
241.251
241.582
241.914
242.247
242.579
242.911
243.24
243.565
243.886
244.201
244.509
244.809
245.1
245.38
245.648
245.904
246.145
246.37
246.579
246.77
246.943
247.096
247.23
247.341
247.431
247.499
247.545
247.567
249.159
247.553
247.391
246.66
246.043
245.473
244.912
244.359
243.818
243.294
242.785
242.294
241.82
241.361
240.918
240.49
240.079
239.683
239.304
238.94
238.592
238.26
237.944
237.644
237.359
237.09
236.837
236.6
236.379
236.173
235.983
235.808
235.65
235.507
235.38
235.268
235.171
235.091
235.025
234.976
234.941
234.921
234.917
234.928
234.953
234.994
235.049
235.119
235.203
235.301
235.413
235.539
235.679
235.832
235.998
236.176
236.368
236.571
236.786
237.012
237.249
237.497
237.754
238.02
238.294
238.577
238.868
239.165
239.468
239.777
240.091
240.41
240.732
241.057
241.383
241.711
242.039
242.365
242.69
243.01
243.327
243.638
243.942
244.239
244.526
244.803
245.068
245.321
245.559
245.783
245.989
246.178
246.349
246.5
246.632
246.742
246.831
246.898
246.943
246.966
248.994
247.385
247.217
246.472
245.845
245.268
244.703
244.146
243.604
243.08
242.572
242.08
241.603
241.143
240.698
240.268
239.854
239.457
239.074
238.707
238.357
238.022
237.702
237.398
237.11
236.837
236.581
236.339
236.113
235.903
235.708
235.529
235.366
235.218
235.085
234.968
234.866
234.779
234.708
234.652
234.611
234.585
234.574
234.578
234.597
234.631
234.679
234.742
234.818
234.91
235.014
235.133
235.264
235.41
235.568
235.738
235.922
236.117
236.324
236.542
236.772
237.012
237.26
237.519
237.786
238.06
238.342
238.632
238.928
239.23
239.537
239.848
240.164
240.482
240.803
241.124
241.445
241.766
242.085
242.4
242.712
243.019
243.319
243.611
243.894
244.168
244.43
244.679
244.915
245.135
245.339
245.526
245.695
245.845
245.974
246.083
246.172
246.237
246.282
246.304
248.728
247.112
246.951
246.22
245.604
245.035
244.475
243.92
243.378
242.851
242.341
241.847
241.369
240.907
240.46
240.028
239.612
239.211
238.826
238.457
238.103
237.764
237.441
237.133
236.841
236.565
236.304
236.058
235.827
235.612
235.413
235.229
235.06
234.906
234.768
234.645
234.537
234.444
234.367
234.304
234.256
234.223
234.205
234.203
234.214
234.24
234.28
234.335
234.404
234.487
234.583
234.693
234.817
234.953
235.103
235.266
235.44
235.626
235.824
236.034
236.254
236.485
236.725
236.974
237.233
237.499
237.773
238.054
238.342
238.636
238.934
239.238
239.546
239.857
240.169
240.484
240.799
241.113
241.426
241.736
242.042
242.343
242.638
242.925
243.204
243.473
243.731
243.977
244.209
244.427
244.628
244.812
244.979
245.127
245.255
245.363
245.45
245.515
245.559
245.581
248.572
246.917
246.746
246.004
245.377
244.799
244.232
243.674
243.131
242.604
242.093
241.598
241.118
240.653
240.204
239.77
239.351
238.948
238.56
238.187
237.83
237.488
237.161
236.849
236.553
236.272
236.006
235.756
235.521
235.3
235.096
234.906
234.731
234.572
234.427
234.298
234.184
234.085
234
233.93
233.875
233.835
233.81
233.799
233.802
233.82
233.852
233.899
233.959
234.033
234.121
234.222
234.336
234.464
234.604
234.756
234.922
235.098
235.287
235.487
235.697
235.918
236.149
236.389
236.637
236.894
237.158
237.43
237.709
237.993
238.283
238.578
238.877
239.18
239.484
239.791
240.098
240.405
240.711
241.014
241.313
241.608
241.898
242.18
242.454
242.719
242.972
243.214
243.442
243.656
243.854
244.036
244.201
244.346
244.472
244.578
244.665
244.729
244.772
244.794
248.177
246.592
246.449
245.719
245.102
244.531
243.969
243.414
242.869
242.341
241.827
241.331
240.849
240.382
239.931
239.494
239.072
238.666
238.275
237.899
237.538
237.192
236.861
236.546
236.245
235.959
235.689
235.433
235.192
234.967
234.757
234.561
234.38
234.215
234.064
233.928
233.807
233.701
233.609
233.531
233.469
233.421
233.387
233.368
233.364
233.373
233.396
233.433
233.484
233.549
233.627
233.718
233.823
233.94
234.071
234.213
234.368
234.534
234.711
234.9
235.1
235.31
235.531
235.76
235.998
236.244
236.499
236.76
237.028
237.303
237.583
237.868
238.158
238.451
238.747
239.044
239.343
239.641
239.939
240.235
240.528
240.815
241.098
241.374
241.642
241.901
242.149
242.386
242.61
242.821
243.015
243.194
243.356
243.499
243.623
243.728
243.813
243.876
243.919
243.941
247.995
246.363
246.201
245.466
244.843
244.264
243.696
243.137
242.591
242.061
241.547
241.048
240.564
240.095
239.641
239.201
238.777
238.367
237.972
237.593
237.227
236.878
236.543
236.222
235.917
235.626
235.35
235.09
234.843
234.612
234.396
234.193
234.007
233.834
233.677
233.533
233.405
233.291
233.191
233.106
233.036
232.979
232.937
232.91
232.895
232.896
232.91
232.937
232.979
233.034
233.102
233.183
233.277
233.383
233.503
233.634
233.777
233.933
234.099
234.276
234.465
234.663
234.871
235.089
235.315
235.55
235.793
236.043
236.301
236.564
236.833
237.108
237.387
237.67
237.955
238.243
238.532
238.821
239.11
239.397
239.682
239.962
240.237
240.506
240.767
241.02
241.263
241.495
241.713
241.919
242.11
242.285
242.444
242.584
242.707
242.809
242.892
242.955
242.997
243.018
247.695
246.057
245.898
245.165
244.543
243.968
243.404
242.845
242.298
241.766
241.25
240.749
240.263
239.792
239.334
238.891
238.464
238.051
237.652
237.269
236.9
236.545
236.206
235.881
235.571
235.275
234.994
234.727
234.475
234.238
234.014
233.806
233.612
233.432
233.268
233.117
232.98
232.858
232.75
232.657
232.577
232.512
232.461
232.423
232.4
232.39
232.394
232.412
232.443
232.487
232.544
232.615
232.697
232.793
232.9
233.02
233.151
233.294
233.449
233.614
233.79
233.975
234.171
234.376
234.59
234.812
235.042
235.28
235.525
235.776
236.034
236.296
236.563
236.835
237.109
237.386
237.664
237.944
238.222
238.499
238.775
239.046
239.312
239.574
239.827
240.073
240.31
240.535
240.748
240.949
241.135
241.306
241.461
241.599
241.718
241.819
241.9
241.961
242.002
242.022
247.373
245.762
245.61
244.875
244.249
243.67
243.1
242.538
241.989
241.456
240.938
240.435
239.946
239.471
239.011
238.565
238.134
237.717
237.315
236.928
236.554
236.195
235.851
235.521
235.205
234.903
234.616
234.344
234.086
233.842
233.612
233.397
233.195
233.008
232.836
232.677
232.532
232.402
232.286
232.183
232.094
232.019
231.959
231.911
231.878
231.858
231.851
231.857
231.877
231.91
231.956
232.014
232.085
232.168
232.263
232.37
232.489
232.619
232.76
232.913
233.075
233.247
233.429
233.621
233.821
234.03
234.246
234.47
234.702
234.939
235.184
235.433
235.687
235.946
236.208
236.473
236.739
237.007
237.274
237.541
237.805
238.067
238.324
238.576
238.821
239.059
239.287
239.506
239.713
239.907
240.088
240.255
240.405
240.539
240.655
240.753
240.832
240.892
240.932
240.952
247.09
245.457
245.288
244.546
243.92
243.344
242.777
242.217
241.666
241.131
240.61
240.105
239.613
239.136
238.673
238.224
237.789
237.368
236.962
236.57
236.192
235.828
235.478
235.143
234.821
234.514
234.222
233.942
233.677
233.426
233.19
232.967
232.758
232.563
232.382
232.215
232.062
231.922
231.796
231.684
231.586
231.502
231.43
231.373
231.328
231.297
231.279
231.274
231.282
231.303
231.336
231.382
231.44
231.51
231.593
231.687
231.791
231.908
232.035
232.173
232.321
232.479
232.646
232.823
233.008
233.202
233.404
233.613
233.83
234.053
234.283
234.518
234.758
235.003
235.251
235.502
235.755
236.01
236.265
236.519
236.772
237.022
237.268
237.51
237.745
237.974
238.194
238.404
238.604
238.792
238.966
239.127
239.273
239.402
239.514
239.609
239.686
239.744
239.783
239.803
246.722
245.112
244.959
244.226
243.6
243.018
242.445
241.88
241.327
240.789
240.267
239.759
239.265
238.784
238.318
237.865
237.427
237.002
236.592
236.195
235.812
235.444
235.089
234.748
234.42
234.108
233.808
233.522
233.251
232.993
232.748
232.518
232.301
232.098
231.908
231.732
231.57
231.421
231.285
231.163
231.055
230.959
230.877
230.808
230.752
230.709
230.679
230.662
230.657
230.665
230.685
230.718
230.762
230.819
230.888
230.967
231.058
231.16
231.272
231.395
231.528
231.67
231.822
231.983
232.152
232.33
232.516
232.71
232.91
233.117
233.331
233.551
233.775
234.004
234.237
234.473
234.712
234.952
235.193
235.434
235.674
235.911
236.145
236.374
236.599
236.817
237.026
237.227
237.419
237.598
237.766
237.92
238.06
238.184
238.292
238.383
238.458
238.513
238.551
238.57
246.481
244.795
244.611
243.867
243.241
242.662
242.091
241.526
240.972
240.432
239.907
239.396
238.9
238.416
237.946
237.49
237.047
236.618
236.203
235.802
235.414
235.04
234.68
234.333
234
233.68
233.375
233.082
232.804
232.538
232.286
232.047
231.822
231.61
231.412
231.227
231.055
230.896
230.751
230.618
230.499
230.392
230.299
230.218
230.15
230.096
230.053
230.022
230.004
229.999
230.005
230.023
230.054
230.096
230.149
230.213
230.289
230.375
230.472
230.579
230.695
230.822
230.957
231.101
231.253
231.414
231.582
231.758
231.941
232.131
232.327
232.53
232.737
232.95
233.166
233.385
233.608
233.832
234.057
234.282
234.507
234.73
234.951
235.167
235.378
235.584
235.782
235.973
236.154
236.324
236.483
236.629
236.762
236.881
236.983
237.071
237.141
237.194
237.23
237.248
246.012
244.411
244.259
243.522
242.891
242.306
241.731
241.163
240.606
240.064
239.536
239.022
238.522
238.036
237.562
237.102
236.655
236.222
235.802
235.395
235.003
234.623
234.256
233.904
233.564
233.237
232.925
232.625
232.338
232.065
231.805
231.557
231.324
231.103
230.895
230.7
230.518
230.349
230.193
230.05
229.919
229.801
229.696
229.603
229.523
229.455
229.399
229.355
229.324
229.304
229.296
229.299
229.315
229.34
229.378
229.426
229.485
229.555
229.635
229.724
229.824
229.932
230.05
230.176
230.31
230.452
230.602
230.759
230.923
231.095
231.273
231.456
231.645
231.838
232.036
232.237
232.441
232.648
232.856
233.064
233.272
233.479
233.683
233.884
234.082
234.273
234.459
234.636
234.805
234.965
235.114
235.251
235.376
235.487
235.585
235.666
235.733
235.783
235.816
235.834
245.625
244.033
243.87
243.127
242.503
241.925
241.351
240.782
240.223
239.679
239.149
238.632
238.129
237.639
237.162
236.698
236.247
235.809
235.384
234.973
234.574
234.189
233.817
233.458
233.111
232.778
232.458
232.151
231.856
231.575
231.306
231.05
230.807
230.577
230.359
230.154
229.962
229.782
229.615
229.46
229.317
229.187
229.069
228.963
228.869
228.788
228.718
228.661
228.614
228.58
228.557
228.545
228.544
228.554
228.575
228.605
228.647
228.699
228.761
228.832
228.914
229.003
229.102
229.208
229.323
229.446
229.576
229.713
229.857
230.008
230.164
230.328
230.496
230.669
230.847
231.027
231.212
231.398
231.587
231.777
231.966
232.154
232.34
232.525
232.705
232.881
233.051
233.214
233.37
233.517
233.655
233.781
233.897
234
234.089
234.165
234.227
234.273
234.304
234.319
245.325
243.674
243.501
242.76
242.127
241.539
240.96
240.388
239.827
239.28
238.747
238.227
237.721
237.227
236.746
236.277
235.822
235.379
234.95
234.533
234.13
233.738
233.36
232.994
232.641
232.301
231.973
231.658
231.356
231.065
230.788
230.524
230.271
230.031
229.803
229.588
229.385
229.194
229.015
228.849
228.694
228.551
228.42
228.301
228.193
228.097
228.013
227.94
227.878
227.828
227.788
227.76
227.742
227.735
227.739
227.752
227.775
227.808
227.851
227.904
227.965
228.035
228.113
228.199
228.293
228.394
228.503
228.618
228.74
228.869
229.004
229.145
229.291
229.441
229.596
229.756
229.918
230.083
230.25
230.418
230.586
230.753
230.92
231.085
231.246
231.404
231.556
231.703
231.843
231.976
232.099
232.214
232.318
232.41
232.491
232.56
232.615
232.657
232.685
232.7
244.915
243.257
243.083
242.346
241.72
241.137
240.558
239.984
239.42
238.87
238.334
237.811
237.301
236.803
236.318
235.845
235.385
234.938
234.502
234.079
233.67
233.272
232.887
232.514
232.154
231.807
231.471
231.148
230.837
230.538
230.251
229.977
229.715
229.465
229.227
229
228.787
228.584
228.393
228.214
228.047
227.891
227.747
227.614
227.493
227.382
227.283
227.194
227.116
227.049
226.993
226.947
226.912
226.887
226.872
226.866
226.87
226.884
226.906
226.938
226.978
227.027
227.084
227.148
227.219
227.298
227.383
227.476
227.574
227.679
227.79
227.907
228.029
228.155
228.286
228.421
228.559
228.699
228.842
228.986
229.13
229.275
229.419
229.562
229.701
229.838
229.971
230.098
230.22
230.335
230.443
230.543
230.633
230.714
230.784
230.845
230.893
230.93
230.954
230.966
244.46
242.852
242.691
241.945
241.308
240.718
240.138
239.563
238.997
238.445
237.907
237.38
236.867
236.365
235.876
235.398
234.934
234.481
234.041
233.613
233.197
232.793
232.4
232.021
231.654
231.298
230.954
230.622
230.303
229.995
229.699
229.415
229.142
228.881
228.632
228.395
228.169
227.954
227.751
227.559
227.378
227.21
227.051
226.904
226.768
226.642
226.527
226.422
226.328
226.244
226.171
226.106
226.053
226.009
225.974
225.949
225.932
225.925
225.926
225.937
225.954
225.981
226.014
226.055
226.103
226.157
226.218
226.286
226.359
226.438
226.523
226.614
226.709
226.809
226.914
227.022
227.132
227.246
227.362
227.48
227.597
227.716
227.834
227.952
228.067
228.18
228.289
228.395
228.495
228.59
228.679
228.761
228.836
228.903
228.961
229.01
229.05
229.08
229.1
229.11
244.025
242.419
242.257
241.51
240.878
240.292
239.711
239.133
238.564
238.008
237.467
236.937
236.42
235.914
235.42
234.938
234.468
234.011
233.565
233.131
232.709
232.298
231.9
231.512
231.138
230.774
230.422
230.082
229.753
229.435
229.13
228.835
228.552
228.281
228.02
227.771
227.533
227.306
227.09
226.884
226.69
226.506
226.333
226.171
226.019
225.877
225.747
225.625
225.514
225.412
225.32
225.237
225.165
225.101
225.046
225
224.963
224.933
224.912
224.9
224.895
224.897
224.906
224.922
224.944
224.972
225.007
225.048
225.094
225.146
225.203
225.266
225.332
225.403
225.478
225.556
225.638
225.722
225.809
225.896
225.986
226.074
226.163
226.252
226.339
226.424
226.507
226.587
226.663
226.734
226.801
226.863
226.919
226.969
227.012
227.048
227.078
227.1
227.115
227.122
243.589
241.982
241.821
241.076
240.44
239.848
239.263
238.683
238.113
237.555
237.01
236.477
235.956
235.447
234.949
234.462
233.988
233.525
233.073
232.633
232.205
231.787
231.382
230.988
230.605
230.233
229.873
229.524
229.186
228.86
228.544
228.239
227.946
227.663
227.39
227.129
226.879
226.639
226.409
226.19
225.982
225.783
225.595
225.417
225.249
225.091
224.943
224.804
224.675
224.554
224.443
224.342
224.248
224.164
224.088
224.021
223.961
223.909
223.865
223.829
223.798
223.776
223.759
223.749
223.744
223.745
223.751
223.764
223.781
223.803
223.83
223.861
223.897
223.937
223.98
224.026
224.075
224.127
224.18
224.235
224.291
224.347
224.403
224.459
224.514
224.568
224.62
224.67
224.716
224.761
224.801
224.838
224.872
224.902
224.927
224.948
224.965
224.978
224.986
224.991
243.192
241.538
241.375
240.629
239.99
239.397
238.811
238.228
237.655
237.094
236.546
236.009
235.484
234.97
234.467
233.975
233.495
233.027
232.569
232.123
231.688
231.264
230.851
230.449
230.058
229.678
229.31
228.951
228.604
228.267
227.941
227.626
227.321
227.027
226.743
226.47
226.206
225.953
225.71
225.477
225.253
225.04
224.836
224.643
224.458
224.283
224.117
223.96
223.812
223.672
223.542
223.419
223.305
223.2
223.102
223.011
222.928
222.853
222.784
222.722
222.667
222.618
222.574
222.536
222.502
222.474
222.451
222.432
222.418
222.409
222.403
222.402
222.403
222.409
222.417
222.429
222.442
222.457
222.475
222.493
222.512
222.531
222.551
222.569
222.588
222.605
222.622
222.637
222.65
222.662
222.672
222.68
222.687
222.692
222.695
222.698
222.7
222.701
222.702
222.702
242.764
241.102
240.918
240.169
239.532
238.936
238.345
237.758
237.182
236.618
236.066
235.526
234.997
234.479
233.971
233.475
232.99
232.516
232.053
231.6
231.158
230.727
230.307
229.897
229.498
229.11
228.732
228.365
228.008
227.661
227.324
226.998
226.682
226.375
226.079
225.794
225.517
225.25
224.993
224.745
224.507
224.278
224.059
223.848
223.646
223.454
223.269
223.093
222.926
222.767
222.615
222.472
222.336
222.208
222.087
221.973
221.866
221.765
221.671
221.583
221.5
221.423
221.351
221.283
221.22
221.161
221.106
221.055
221.007
220.964
220.923
220.886
220.853
220.821
220.792
220.765
220.739
220.714
220.691
220.669
220.646
220.624
220.602
220.579
220.556
220.532
220.507
220.482
220.456
220.43
220.403
220.377
220.351
220.327
220.305
220.285
220.268
220.255
220.246
220.241
242.222
240.604
240.436
239.686
239.047
238.45
237.861
237.274
236.696
236.128
235.574
235.03
234.497
233.974
233.462
232.961
232.47
231.99
231.52
231.062
230.613
230.175
229.747
229.33
228.922
228.526
228.139
227.762
227.395
227.038
226.691
226.354
226.026
225.708
225.4
225.101
224.811
224.53
224.259
223.997
223.743
223.498
223.262
223.034
222.815
222.604
222.401
222.205
222.018
221.838
221.666
221.5
221.342
221.191
221.046
220.907
220.774
220.647
220.526
220.411
220.3
220.194
220.092
219.993
219.898
219.806
219.718
219.632
219.549
219.469
219.391
219.316
219.243
219.171
219.101
219.032
218.964
218.896
218.828
218.76
218.692
218.624
218.554
218.484
218.413
218.341
218.27
218.197
218.125
218.054
217.985
217.917
217.853
217.793
217.739
217.692
217.652
217.622
217.601
217.589
241.749
240.138
239.966
239.21
238.566
237.969
237.376
236.785
236.203
235.632
235.073
234.526
233.988
233.461
232.944
232.437
231.941
231.455
230.979
230.513
230.057
229.611
229.176
228.75
228.334
227.928
227.532
227.145
226.768
226.401
226.042
225.694
225.354
225.024
224.703
224.391
224.087
223.793
223.507
223.229
222.96
222.699
222.446
222.201
221.964
221.734
221.512
221.297
221.089
220.888
220.694
220.506
220.324
220.149
219.978
219.814
219.655
219.5
219.352
219.207
219.067
218.93
218.796
218.666
218.537
218.411
218.286
218.164
218.044
217.925
217.808
217.692
217.576
217.461
217.347
217.232
217.117
217.002
216.885
216.767
216.648
216.527
216.404
216.281
216.156
216.03
215.903
215.776
215.651
215.527
215.406
215.289
215.178
215.076
214.983
214.902
214.834
214.782
214.745
214.727
241.256
239.615
239.453
238.709
238.067
237.466
236.871
236.279
235.695
235.122
234.56
234.009
233.467
232.936
232.414
231.902
231.4
230.908
230.426
229.954
229.49
229.037
228.593
228.159
227.734
227.319
226.913
226.516
226.129
225.75
225.381
225.02
224.668
224.325
223.991
223.665
223.347
223.038
222.737
222.444
222.159
221.881
221.611
221.348
221.093
220.844
220.603
220.368
220.139
219.916
219.7
219.488
219.283
219.083
218.887
218.696
218.509
218.326
218.148
217.973
217.802
217.632
217.466
217.302
217.138
216.975
216.814
216.653
216.492
216.332
216.173
216.012
215.852
215.691
215.528
215.365
215.198
215.03
214.86
214.687
214.511
214.332
214.15
213.966
213.779
213.591
213.401
213.211
213.022
212.835
212.654
212.478
212.311
212.156
212.015
211.892
211.789
211.71
211.655
211.627
240.747
239.134
238.963
238.206
237.558
236.957
236.36
235.766
235.177
234.601
234.035
233.479
232.934
232.397
231.87
231.353
230.846
230.348
229.86
229.38
228.911
228.45
227.998
227.556
227.123
226.698
226.283
225.875
225.477
225.088
224.707
224.335
223.971
223.614
223.266
222.926
222.594
222.27
221.953
221.643
221.342
221.047
220.759
220.478
220.203
219.935
219.673
219.417
219.167
218.922
218.682
218.447
218.217
217.992
217.77
217.553
217.338
217.126
216.917
216.711
216.507
216.305
216.103
215.903
215.702
215.502
215.3
215.098
214.896
214.693
214.488
214.281
214.072
213.861
213.646
213.429
213.208
212.983
212.753
212.519
212.28
212.037
211.788
211.535
211.279
211.019
210.756
210.492
210.23
209.97
209.715
209.468
209.233
209.014
208.814
208.639
208.493
208.378
208.299
208.26
240.194
238.593
238.432
237.685
237.041
236.437
235.836
235.238
234.648
234.068
233.499
232.94
232.389
231.848
231.316
230.794
230.28
229.776
229.28
228.794
228.317
227.849
227.389
226.938
226.496
226.062
225.637
225.22
224.811
224.411
224.018
223.634
223.258
222.889
222.527
222.173
221.826
221.487
221.154
220.829
220.509
220.198
219.891
219.591
219.297
219.009
218.726
218.448
218.176
217.908
217.645
217.385
217.13
216.878
216.63
216.384
216.141
215.899
215.659
215.421
215.183
214.946
214.709
214.471
214.232
213.991
213.748
213.504
213.256
213.007
212.754
212.497
212.237
211.972
211.702
211.427
211.146
210.858
210.565
210.264
209.955
209.639
209.317
208.987
208.65
208.309
207.962
207.613
207.263
206.916
206.575
206.242
205.924
205.626
205.354
205.114
204.911
204.753
204.645
204.587
239.837
238.127
237.924
237.165
236.516
235.909
235.306
234.706
234.112
233.528
232.955
232.391
231.837
231.291
230.754
230.226
229.707
229.196
228.694
228.201
227.716
227.239
226.771
226.311
225.86
225.416
224.981
224.554
224.134
223.722
223.318
222.921
222.531
222.149
221.774
221.406
221.044
220.69
220.341
219.999
219.663
219.332
219.008
218.689
218.375
218.066
217.762
217.463
217.167
216.876
216.588
216.303
216.022
215.743
215.467
215.192
214.919
214.646
214.374
214.103
213.831
213.558
213.284
213.007
212.728
212.445
212.159
211.869
211.575
211.277
210.973
210.663
210.348
210.026
209.697
209.36
209.014
208.659
208.295
207.92
207.535
207.14
206.734
206.317
205.891
205.456
205.013
204.564
204.113
203.663
203.217
202.781
202.362
201.967
201.603