/*--------------------------------*- C++ -*----------------------------------*\
| =========                 |                                                 |
| \\      /  F ield         | OpenFOAM: The Open Source CFD Toolbox           |
|  \\    /   O peration     | Version:  4.1                                   |
|   \\  /    A nd           | Web:      www.OpenFOAM.org                      |
|    \\/     M anipulation  |                                                 |
\*---------------------------------------------------------------------------*/
FoamFile
{
    version     2.0;
    format      ascii;
    class       volScalarField;
    location    "0.15";
    object      pPrime2Mean;
}
// * * * * * * * * * * * * * * * * * * * * * * * * * * * * * * * * * * * * * //

dimensions      [0 4 -4 0 0 0 0];

internalField   nonuniform List<scalar> 
43750
(
2.43287e+09
2.41572e+09
2.3978e+09
2.38002e+09
2.36237e+09
2.34487e+09
2.3275e+09
2.31027e+09
2.29318e+09
2.27624e+09
2.25944e+09
2.24277e+09
2.22624e+09
2.20986e+09
2.19362e+09
2.17751e+09
2.16155e+09
2.14572e+09
2.13004e+09
2.11449e+09
2.09908e+09
2.08381e+09
2.06869e+09
2.0537e+09
2.03884e+09
2.02413e+09
2.00956e+09
1.99512e+09
1.98083e+09
1.96668e+09
1.95267e+09
1.93881e+09
1.92508e+09
1.9115e+09
1.89806e+09
1.88476e+09
1.87162e+09
1.85861e+09
1.84576e+09
1.83305e+09
1.82049e+09
1.80808e+09
1.79582e+09
1.78371e+09
1.77176e+09
1.75995e+09
1.74831e+09
1.73682e+09
1.72549e+09
1.71432e+09
1.70332e+09
1.69247e+09
1.6818e+09
1.67128e+09
1.66094e+09
1.65076e+09
1.64076e+09
1.63094e+09
1.62129e+09
1.61182e+09
1.60253e+09
1.59342e+09
1.5845e+09
1.57577e+09
1.56723e+09
1.55887e+09
1.55072e+09
1.54277e+09
1.53501e+09
1.52746e+09
1.52012e+09
1.51297e+09
1.50605e+09
1.49934e+09
1.49285e+09
1.48657e+09
1.48052e+09
1.4747e+09
1.4691e+09
1.46374e+09
1.45861e+09
1.45371e+09
1.44907e+09
1.44465e+09
1.44048e+09
1.43657e+09
1.43289e+09
1.42948e+09
1.42631e+09
1.4234e+09
1.42076e+09
1.41836e+09
1.41623e+09
1.41437e+09
1.41276e+09
1.41143e+09
1.41036e+09
1.40956e+09
1.40902e+09
1.40875e+09
2.4329e+09
2.41569e+09
2.39775e+09
2.37996e+09
2.36231e+09
2.3448e+09
2.32742e+09
2.3102e+09
2.29311e+09
2.27616e+09
2.25936e+09
2.2427e+09
2.22617e+09
2.20978e+09
2.19354e+09
2.17743e+09
2.16147e+09
2.14565e+09
2.12996e+09
2.11441e+09
2.099e+09
2.08373e+09
2.0686e+09
2.05361e+09
2.03876e+09
2.02405e+09
2.00947e+09
1.99503e+09
1.98075e+09
1.96659e+09
1.95258e+09
1.93871e+09
1.92499e+09
1.91141e+09
1.89796e+09
1.88467e+09
1.87152e+09
1.85851e+09
1.84566e+09
1.83294e+09
1.82038e+09
1.80797e+09
1.79571e+09
1.7836e+09
1.77164e+09
1.75984e+09
1.74819e+09
1.7367e+09
1.72537e+09
1.7142e+09
1.70319e+09
1.69234e+09
1.68166e+09
1.67115e+09
1.6608e+09
1.65062e+09
1.64062e+09
1.63079e+09
1.62114e+09
1.61166e+09
1.60238e+09
1.59326e+09
1.58434e+09
1.5756e+09
1.56705e+09
1.55871e+09
1.55054e+09
1.54259e+09
1.53483e+09
1.52727e+09
1.51992e+09
1.51278e+09
1.50585e+09
1.49914e+09
1.49264e+09
1.48636e+09
1.48031e+09
1.47448e+09
1.46888e+09
1.46351e+09
1.45838e+09
1.45349e+09
1.44882e+09
1.44441e+09
1.44024e+09
1.43632e+09
1.43265e+09
1.42922e+09
1.42606e+09
1.42315e+09
1.42049e+09
1.4181e+09
1.41597e+09
1.4141e+09
1.4125e+09
1.41116e+09
1.41009e+09
1.40929e+09
1.40875e+09
1.40848e+09
2.43277e+09
2.41559e+09
2.39764e+09
2.37984e+09
2.36217e+09
2.34466e+09
2.32729e+09
2.31005e+09
2.29296e+09
2.27602e+09
2.25921e+09
2.24254e+09
2.22602e+09
2.20963e+09
2.19338e+09
2.17728e+09
2.16131e+09
2.14548e+09
2.1298e+09
2.11425e+09
2.09884e+09
2.08356e+09
2.06843e+09
2.05344e+09
2.03858e+09
2.02387e+09
2.0093e+09
1.99486e+09
1.98057e+09
1.96642e+09
1.9524e+09
1.93853e+09
1.9248e+09
1.91122e+09
1.89777e+09
1.88448e+09
1.87132e+09
1.85831e+09
1.84545e+09
1.83273e+09
1.82017e+09
1.80775e+09
1.79549e+09
1.78338e+09
1.77141e+09
1.7596e+09
1.74796e+09
1.73646e+09
1.72513e+09
1.71395e+09
1.70293e+09
1.69208e+09
1.68139e+09
1.67087e+09
1.66052e+09
1.65034e+09
1.64033e+09
1.6305e+09
1.62084e+09
1.61136e+09
1.60206e+09
1.59294e+09
1.58401e+09
1.57527e+09
1.56672e+09
1.55836e+09
1.55019e+09
1.54222e+09
1.53446e+09
1.5269e+09
1.51954e+09
1.51239e+09
1.50546e+09
1.49873e+09
1.49223e+09
1.48594e+09
1.47988e+09
1.47405e+09
1.46844e+09
1.46307e+09
1.45793e+09
1.45302e+09
1.44835e+09
1.44393e+09
1.43976e+09
1.43583e+09
1.43215e+09
1.42873e+09
1.42555e+09
1.42264e+09
1.41998e+09
1.41759e+09
1.41545e+09
1.41358e+09
1.41197e+09
1.41063e+09
1.40956e+09
1.40875e+09
1.40822e+09
1.40795e+09
2.43262e+09
2.41542e+09
2.39746e+09
2.37965e+09
2.36198e+09
2.34446e+09
2.32707e+09
2.30984e+09
2.29275e+09
2.27579e+09
2.25898e+09
2.24232e+09
2.22579e+09
2.2094e+09
2.19315e+09
2.17705e+09
2.16108e+09
2.14525e+09
2.12955e+09
2.114e+09
2.09859e+09
2.08332e+09
2.06818e+09
2.05319e+09
2.03833e+09
2.02361e+09
2.00903e+09
1.9946e+09
1.9803e+09
1.96615e+09
1.95213e+09
1.93825e+09
1.92452e+09
1.91093e+09
1.89748e+09
1.88418e+09
1.87102e+09
1.85801e+09
1.84514e+09
1.83242e+09
1.81985e+09
1.80743e+09
1.79516e+09
1.78303e+09
1.77107e+09
1.75926e+09
1.7476e+09
1.7361e+09
1.72476e+09
1.71357e+09
1.70255e+09
1.69169e+09
1.681e+09
1.67046e+09
1.66011e+09
1.64992e+09
1.6399e+09
1.63005e+09
1.62038e+09
1.6109e+09
1.60159e+09
1.59247e+09
1.58352e+09
1.57477e+09
1.56621e+09
1.55783e+09
1.54966e+09
1.54168e+09
1.5339e+09
1.52633e+09
1.51896e+09
1.51181e+09
1.50486e+09
1.49812e+09
1.49161e+09
1.48531e+09
1.47924e+09
1.4734e+09
1.46778e+09
1.46239e+09
1.45724e+09
1.45233e+09
1.44765e+09
1.44322e+09
1.43904e+09
1.4351e+09
1.43141e+09
1.42798e+09
1.4248e+09
1.42187e+09
1.41921e+09
1.4168e+09
1.41467e+09
1.41279e+09
1.41118e+09
1.40984e+09
1.40876e+09
1.40795e+09
1.40741e+09
1.40714e+09
2.43244e+09
2.41521e+09
2.39723e+09
2.37939e+09
2.36171e+09
2.34418e+09
2.32679e+09
2.30955e+09
2.29245e+09
2.27549e+09
2.25868e+09
2.24201e+09
2.22548e+09
2.20909e+09
2.19284e+09
2.17673e+09
2.16076e+09
2.14493e+09
2.12924e+09
2.11368e+09
2.09826e+09
2.08299e+09
2.06785e+09
2.05285e+09
2.03799e+09
2.02327e+09
2.00869e+09
1.99425e+09
1.97994e+09
1.96578e+09
1.95176e+09
1.93788e+09
1.92415e+09
1.91055e+09
1.8971e+09
1.88379e+09
1.87062e+09
1.8576e+09
1.84473e+09
1.832e+09
1.81943e+09
1.80699e+09
1.79472e+09
1.78259e+09
1.77062e+09
1.75879e+09
1.74713e+09
1.73562e+09
1.72427e+09
1.71307e+09
1.70204e+09
1.69117e+09
1.68046e+09
1.66993e+09
1.65956e+09
1.64935e+09
1.63932e+09
1.62947e+09
1.61979e+09
1.61029e+09
1.60096e+09
1.59182e+09
1.58287e+09
1.57411e+09
1.56553e+09
1.55714e+09
1.54896e+09
1.54096e+09
1.53317e+09
1.52558e+09
1.5182e+09
1.51102e+09
1.50406e+09
1.49732e+09
1.49079e+09
1.48448e+09
1.47839e+09
1.47252e+09
1.46689e+09
1.46149e+09
1.45633e+09
1.4514e+09
1.44671e+09
1.44227e+09
1.43807e+09
1.43412e+09
1.43042e+09
1.42697e+09
1.42378e+09
1.42085e+09
1.41818e+09
1.41577e+09
1.41362e+09
1.41173e+09
1.41012e+09
1.40877e+09
1.40769e+09
1.40688e+09
1.40634e+09
1.40607e+09
2.43221e+09
2.41494e+09
2.39692e+09
2.37907e+09
2.36137e+09
2.34383e+09
2.32643e+09
2.30918e+09
2.29208e+09
2.27512e+09
2.25831e+09
2.24163e+09
2.2251e+09
2.2087e+09
2.19245e+09
2.17634e+09
2.16037e+09
2.14453e+09
2.12884e+09
2.11328e+09
2.09786e+09
2.08258e+09
2.06744e+09
2.05243e+09
2.03757e+09
2.02285e+09
2.00825e+09
1.99381e+09
1.9795e+09
1.96533e+09
1.95131e+09
1.93742e+09
1.92368e+09
1.91007e+09
1.89661e+09
1.8833e+09
1.87013e+09
1.8571e+09
1.84422e+09
1.83148e+09
1.8189e+09
1.80646e+09
1.79417e+09
1.78203e+09
1.77004e+09
1.75822e+09
1.74653e+09
1.73502e+09
1.72365e+09
1.71244e+09
1.7014e+09
1.69052e+09
1.6798e+09
1.66925e+09
1.65886e+09
1.64865e+09
1.6386e+09
1.62873e+09
1.61904e+09
1.60952e+09
1.60018e+09
1.59102e+09
1.58206e+09
1.57328e+09
1.56468e+09
1.55628e+09
1.54807e+09
1.54006e+09
1.53225e+09
1.52464e+09
1.51724e+09
1.51005e+09
1.50307e+09
1.49631e+09
1.48975e+09
1.48342e+09
1.47732e+09
1.47144e+09
1.46579e+09
1.46037e+09
1.45519e+09
1.45024e+09
1.44553e+09
1.44107e+09
1.43686e+09
1.43289e+09
1.42918e+09
1.42572e+09
1.42252e+09
1.41957e+09
1.41689e+09
1.41447e+09
1.41231e+09
1.41042e+09
1.40879e+09
1.40744e+09
1.40635e+09
1.40554e+09
1.40499e+09
1.40473e+09
2.43194e+09
2.41459e+09
2.39654e+09
2.37867e+09
2.36095e+09
2.3434e+09
2.32599e+09
2.30874e+09
2.29163e+09
2.27467e+09
2.25785e+09
2.24117e+09
2.22463e+09
2.20824e+09
2.19199e+09
2.17587e+09
2.15989e+09
2.14405e+09
2.12835e+09
2.11279e+09
2.09737e+09
2.08208e+09
2.06694e+09
2.05193e+09
2.03706e+09
2.02233e+09
2.00773e+09
1.99328e+09
1.97897e+09
1.96479e+09
1.95076e+09
1.93687e+09
1.92312e+09
1.9095e+09
1.89603e+09
1.88271e+09
1.86953e+09
1.85649e+09
1.8436e+09
1.83086e+09
1.81826e+09
1.80581e+09
1.79351e+09
1.78136e+09
1.76936e+09
1.75752e+09
1.74583e+09
1.73429e+09
1.72291e+09
1.71169e+09
1.70064e+09
1.68974e+09
1.67901e+09
1.66844e+09
1.65803e+09
1.6478e+09
1.63774e+09
1.62785e+09
1.61814e+09
1.6086e+09
1.59924e+09
1.59007e+09
1.58108e+09
1.57228e+09
1.56366e+09
1.55524e+09
1.54701e+09
1.53898e+09
1.53115e+09
1.52352e+09
1.5161e+09
1.50888e+09
1.50188e+09
1.49509e+09
1.48851e+09
1.48216e+09
1.47603e+09
1.47013e+09
1.46447e+09
1.45902e+09
1.45381e+09
1.44885e+09
1.44413e+09
1.43965e+09
1.43541e+09
1.43143e+09
1.4277e+09
1.42422e+09
1.421e+09
1.41804e+09
1.41534e+09
1.41291e+09
1.41073e+09
1.40883e+09
1.4072e+09
1.40584e+09
1.40475e+09
1.40393e+09
1.40338e+09
1.40311e+09
2.43144e+09
2.41414e+09
2.39607e+09
2.37818e+09
2.36046e+09
2.34289e+09
2.32548e+09
2.30822e+09
2.29111e+09
2.27414e+09
2.25732e+09
2.24064e+09
2.2241e+09
2.2077e+09
2.19144e+09
2.17532e+09
2.15934e+09
2.1435e+09
2.1278e+09
2.11223e+09
2.0968e+09
2.08151e+09
2.06636e+09
2.05134e+09
2.03647e+09
2.02173e+09
2.00713e+09
1.99267e+09
1.97835e+09
1.96417e+09
1.95013e+09
1.93622e+09
1.92246e+09
1.90884e+09
1.89536e+09
1.88203e+09
1.86884e+09
1.85579e+09
1.84288e+09
1.83013e+09
1.81752e+09
1.80505e+09
1.79274e+09
1.78058e+09
1.76857e+09
1.75671e+09
1.74501e+09
1.73345e+09
1.72206e+09
1.71082e+09
1.69974e+09
1.68883e+09
1.67808e+09
1.66749e+09
1.65707e+09
1.64682e+09
1.63674e+09
1.62683e+09
1.61709e+09
1.60753e+09
1.59816e+09
1.58896e+09
1.57994e+09
1.57112e+09
1.56248e+09
1.55403e+09
1.54578e+09
1.53772e+09
1.52986e+09
1.52221e+09
1.51476e+09
1.50752e+09
1.50049e+09
1.49367e+09
1.48707e+09
1.4807e+09
1.47454e+09
1.46861e+09
1.46292e+09
1.45745e+09
1.45222e+09
1.44723e+09
1.44248e+09
1.43797e+09
1.43372e+09
1.42971e+09
1.42596e+09
1.42246e+09
1.41922e+09
1.41625e+09
1.41353e+09
1.41108e+09
1.4089e+09
1.40698e+09
1.40534e+09
1.40397e+09
1.40287e+09
1.40205e+09
1.4015e+09
1.40122e+09
2.43101e+09
2.41361e+09
2.39551e+09
2.37761e+09
2.35987e+09
2.3423e+09
2.32489e+09
2.30762e+09
2.29051e+09
2.27354e+09
2.25671e+09
2.24002e+09
2.22349e+09
2.20708e+09
2.19082e+09
2.1747e+09
2.15871e+09
2.14287e+09
2.12716e+09
2.11158e+09
2.09615e+09
2.08086e+09
2.0657e+09
2.05068e+09
2.03579e+09
2.02105e+09
2.00644e+09
1.99197e+09
1.97764e+09
1.96345e+09
1.9494e+09
1.93549e+09
1.92172e+09
1.90808e+09
1.8946e+09
1.88125e+09
1.86804e+09
1.85499e+09
1.84207e+09
1.8293e+09
1.81667e+09
1.8042e+09
1.79187e+09
1.77969e+09
1.76766e+09
1.75579e+09
1.74407e+09
1.73249e+09
1.72108e+09
1.70983e+09
1.69873e+09
1.6878e+09
1.67702e+09
1.66641e+09
1.65597e+09
1.6457e+09
1.63559e+09
1.62566e+09
1.6159e+09
1.60632e+09
1.59691e+09
1.58769e+09
1.57865e+09
1.56979e+09
1.56113e+09
1.55265e+09
1.54437e+09
1.53629e+09
1.5284e+09
1.52072e+09
1.51323e+09
1.50597e+09
1.4989e+09
1.49206e+09
1.48543e+09
1.47902e+09
1.47283e+09
1.46688e+09
1.46115e+09
1.45565e+09
1.45039e+09
1.44537e+09
1.4406e+09
1.43606e+09
1.43178e+09
1.42775e+09
1.42397e+09
1.42045e+09
1.41719e+09
1.41419e+09
1.41146e+09
1.40899e+09
1.4068e+09
1.40487e+09
1.40321e+09
1.40183e+09
1.40072e+09
1.39989e+09
1.39934e+09
1.39906e+09
2.43041e+09
2.41296e+09
2.39485e+09
2.37694e+09
2.3592e+09
2.34163e+09
2.32421e+09
2.30695e+09
2.28983e+09
2.27286e+09
2.25603e+09
2.23934e+09
2.22279e+09
2.20639e+09
2.19012e+09
2.17399e+09
2.158e+09
2.14215e+09
2.12644e+09
2.11086e+09
2.09542e+09
2.08012e+09
2.06496e+09
2.04993e+09
2.03504e+09
2.02029e+09
2.00567e+09
1.99119e+09
1.97685e+09
1.96265e+09
1.94859e+09
1.93466e+09
1.92088e+09
1.90724e+09
1.89374e+09
1.88038e+09
1.86716e+09
1.85409e+09
1.84115e+09
1.82837e+09
1.81573e+09
1.80323e+09
1.79089e+09
1.77869e+09
1.76664e+09
1.75475e+09
1.74301e+09
1.73142e+09
1.71999e+09
1.70871e+09
1.69759e+09
1.68663e+09
1.67583e+09
1.6652e+09
1.65473e+09
1.64444e+09
1.6343e+09
1.62434e+09
1.61456e+09
1.60494e+09
1.59551e+09
1.58626e+09
1.57719e+09
1.5683e+09
1.55961e+09
1.5511e+09
1.54278e+09
1.53467e+09
1.52675e+09
1.51904e+09
1.51152e+09
1.50422e+09
1.49712e+09
1.49024e+09
1.48358e+09
1.47713e+09
1.47092e+09
1.46492e+09
1.45916e+09
1.45363e+09
1.44833e+09
1.44328e+09
1.43847e+09
1.43391e+09
1.4296e+09
1.42554e+09
1.42173e+09
1.41819e+09
1.4149e+09
1.41188e+09
1.40913e+09
1.40664e+09
1.40442e+09
1.40248e+09
1.40081e+09
1.39942e+09
1.3983e+09
1.39747e+09
1.3969e+09
1.39663e+09
2.42953e+09
2.41215e+09
2.39407e+09
2.37617e+09
2.35845e+09
2.34088e+09
2.32346e+09
2.3062e+09
2.28907e+09
2.2721e+09
2.25527e+09
2.23858e+09
2.22203e+09
2.20562e+09
2.18935e+09
2.17322e+09
2.15722e+09
2.14136e+09
2.12564e+09
2.11006e+09
2.09461e+09
2.07931e+09
2.06413e+09
2.0491e+09
2.0342e+09
2.01943e+09
2.00481e+09
1.99032e+09
1.97597e+09
1.96176e+09
1.94769e+09
1.93375e+09
1.91995e+09
1.9063e+09
1.89278e+09
1.87941e+09
1.86618e+09
1.85309e+09
1.84014e+09
1.82733e+09
1.81468e+09
1.80217e+09
1.7898e+09
1.77758e+09
1.76552e+09
1.7536e+09
1.74184e+09
1.73022e+09
1.71877e+09
1.70747e+09
1.69632e+09
1.68534e+09
1.67452e+09
1.66386e+09
1.65337e+09
1.64304e+09
1.63288e+09
1.62289e+09
1.61307e+09
1.60343e+09
1.59396e+09
1.58468e+09
1.57558e+09
1.56665e+09
1.55793e+09
1.54938e+09
1.54104e+09
1.53288e+09
1.52492e+09
1.51717e+09
1.50962e+09
1.50227e+09
1.49514e+09
1.48822e+09
1.48152e+09
1.47504e+09
1.46878e+09
1.46275e+09
1.45695e+09
1.45138e+09
1.44605e+09
1.44097e+09
1.43612e+09
1.43152e+09
1.42717e+09
1.42308e+09
1.41925e+09
1.41567e+09
1.41236e+09
1.40931e+09
1.40653e+09
1.40402e+09
1.40179e+09
1.39982e+09
1.39814e+09
1.39673e+09
1.3956e+09
1.39476e+09
1.3942e+09
1.39391e+09
2.42843e+09
2.41121e+09
2.3932e+09
2.37532e+09
2.35761e+09
2.34005e+09
2.32263e+09
2.30537e+09
2.28824e+09
2.27127e+09
2.25443e+09
2.23774e+09
2.22119e+09
2.20477e+09
2.18849e+09
2.17236e+09
2.15636e+09
2.14049e+09
2.12477e+09
2.10918e+09
2.09373e+09
2.07841e+09
2.06323e+09
2.04818e+09
2.03327e+09
2.0185e+09
2.00387e+09
1.98937e+09
1.975e+09
1.96078e+09
1.9467e+09
1.93275e+09
1.91894e+09
1.90527e+09
1.89173e+09
1.87835e+09
1.8651e+09
1.85199e+09
1.83902e+09
1.8262e+09
1.81353e+09
1.80099e+09
1.78861e+09
1.77637e+09
1.76428e+09
1.75234e+09
1.74056e+09
1.72892e+09
1.71744e+09
1.70611e+09
1.69494e+09
1.68393e+09
1.67308e+09
1.66239e+09
1.65186e+09
1.64151e+09
1.63131e+09
1.62129e+09
1.61144e+09
1.60177e+09
1.59227e+09
1.58294e+09
1.5738e+09
1.56485e+09
1.55608e+09
1.54749e+09
1.53911e+09
1.53091e+09
1.52291e+09
1.51512e+09
1.50753e+09
1.50014e+09
1.49297e+09
1.486e+09
1.47926e+09
1.47274e+09
1.46643e+09
1.46036e+09
1.45452e+09
1.44891e+09
1.44354e+09
1.43841e+09
1.43352e+09
1.42889e+09
1.42451e+09
1.42037e+09
1.4165e+09
1.4129e+09
1.40955e+09
1.40647e+09
1.40367e+09
1.40114e+09
1.39887e+09
1.3969e+09
1.39519e+09
1.39377e+09
1.39263e+09
1.39178e+09
1.39121e+09
1.39092e+09
2.42753e+09
2.41027e+09
2.39226e+09
2.3744e+09
2.35669e+09
2.33913e+09
2.32172e+09
2.30446e+09
2.28733e+09
2.27035e+09
2.25352e+09
2.23682e+09
2.22026e+09
2.20385e+09
2.18757e+09
2.17143e+09
2.15542e+09
2.13955e+09
2.12382e+09
2.10822e+09
2.09276e+09
2.07744e+09
2.06225e+09
2.04719e+09
2.03227e+09
2.01749e+09
2.00284e+09
1.98833e+09
1.97395e+09
1.95972e+09
1.94562e+09
1.93166e+09
1.91783e+09
1.90415e+09
1.8906e+09
1.87719e+09
1.86392e+09
1.8508e+09
1.83781e+09
1.82497e+09
1.81227e+09
1.79972e+09
1.78731e+09
1.77505e+09
1.76294e+09
1.75098e+09
1.73916e+09
1.7275e+09
1.71599e+09
1.70463e+09
1.69343e+09
1.68239e+09
1.67151e+09
1.66079e+09
1.65024e+09
1.63984e+09
1.62961e+09
1.61956e+09
1.60967e+09
1.59995e+09
1.59042e+09
1.58106e+09
1.57187e+09
1.56287e+09
1.55406e+09
1.54544e+09
1.53701e+09
1.52877e+09
1.52073e+09
1.51289e+09
1.50525e+09
1.49782e+09
1.4906e+09
1.48359e+09
1.4768e+09
1.47023e+09
1.46387e+09
1.45776e+09
1.45187e+09
1.44621e+09
1.4408e+09
1.43562e+09
1.4307e+09
1.42601e+09
1.42159e+09
1.41742e+09
1.41351e+09
1.40986e+09
1.40649e+09
1.40337e+09
1.40054e+09
1.39797e+09
1.39569e+09
1.39369e+09
1.39197e+09
1.39053e+09
1.38938e+09
1.38852e+09
1.38793e+09
1.38765e+09
2.42651e+09
2.40925e+09
2.39125e+09
2.3734e+09
2.3557e+09
2.33815e+09
2.32074e+09
2.30347e+09
2.28635e+09
2.26938e+09
2.25254e+09
2.23584e+09
2.21928e+09
2.20285e+09
2.18657e+09
2.17042e+09
2.15441e+09
2.13854e+09
2.12279e+09
2.10719e+09
2.09172e+09
2.07638e+09
2.06118e+09
2.04612e+09
2.03119e+09
2.01639e+09
2.00174e+09
1.98721e+09
1.97282e+09
1.95857e+09
1.94446e+09
1.93048e+09
1.91664e+09
1.90294e+09
1.88937e+09
1.87594e+09
1.86266e+09
1.84951e+09
1.8365e+09
1.82364e+09
1.81092e+09
1.79834e+09
1.78591e+09
1.77362e+09
1.76149e+09
1.74949e+09
1.73765e+09
1.72596e+09
1.71443e+09
1.70304e+09
1.69181e+09
1.68073e+09
1.66982e+09
1.65906e+09
1.64847e+09
1.63804e+09
1.62777e+09
1.61768e+09
1.60775e+09
1.59799e+09
1.58842e+09
1.57901e+09
1.56979e+09
1.56075e+09
1.55189e+09
1.54322e+09
1.53474e+09
1.52646e+09
1.51836e+09
1.51047e+09
1.50279e+09
1.49531e+09
1.48803e+09
1.48098e+09
1.47413e+09
1.4675e+09
1.46111e+09
1.45494e+09
1.449e+09
1.44329e+09
1.43782e+09
1.4326e+09
1.42763e+09
1.4229e+09
1.41842e+09
1.41421e+09
1.41026e+09
1.40657e+09
1.40316e+09
1.40001e+09
1.39714e+09
1.39454e+09
1.39223e+09
1.39021e+09
1.38846e+09
1.38701e+09
1.38584e+09
1.38497e+09
1.38438e+09
1.38409e+09
2.42536e+09
2.40817e+09
2.39019e+09
2.37234e+09
2.35464e+09
2.33709e+09
2.31969e+09
2.30242e+09
2.2853e+09
2.26832e+09
2.25148e+09
2.23477e+09
2.21821e+09
2.20179e+09
2.18549e+09
2.16934e+09
2.15332e+09
2.13743e+09
2.12169e+09
2.10608e+09
2.0906e+09
2.07525e+09
2.06004e+09
2.04497e+09
2.03003e+09
2.01522e+09
2.00055e+09
1.98601e+09
1.97161e+09
1.95734e+09
1.94321e+09
1.92922e+09
1.91535e+09
1.90163e+09
1.88805e+09
1.8746e+09
1.8613e+09
1.84813e+09
1.8351e+09
1.82222e+09
1.80947e+09
1.79687e+09
1.78441e+09
1.77209e+09
1.75993e+09
1.74791e+09
1.73604e+09
1.72431e+09
1.71274e+09
1.70132e+09
1.69006e+09
1.67895e+09
1.668e+09
1.65721e+09
1.64657e+09
1.63611e+09
1.6258e+09
1.61567e+09
1.6057e+09
1.5959e+09
1.58627e+09
1.57682e+09
1.56755e+09
1.55846e+09
1.54955e+09
1.54084e+09
1.5323e+09
1.52397e+09
1.51582e+09
1.50788e+09
1.50014e+09
1.49261e+09
1.48528e+09
1.47816e+09
1.47126e+09
1.46458e+09
1.45813e+09
1.4519e+09
1.4459e+09
1.44015e+09
1.43462e+09
1.42935e+09
1.42432e+09
1.41954e+09
1.41501e+09
1.41075e+09
1.40676e+09
1.40302e+09
1.39957e+09
1.39638e+09
1.39347e+09
1.39085e+09
1.3885e+09
1.38645e+09
1.38468e+09
1.3832e+09
1.38202e+09
1.38113e+09
1.38054e+09
1.38024e+09
2.42436e+09
2.40707e+09
2.38906e+09
2.37121e+09
2.35352e+09
2.33596e+09
2.31856e+09
2.3013e+09
2.28417e+09
2.26719e+09
2.25034e+09
2.23364e+09
2.21707e+09
2.20064e+09
2.18434e+09
2.16818e+09
2.15216e+09
2.13627e+09
2.12051e+09
2.10489e+09
2.0894e+09
2.07404e+09
2.05883e+09
2.04374e+09
2.02879e+09
2.01397e+09
1.99928e+09
1.98473e+09
1.97031e+09
1.95603e+09
1.94188e+09
1.92787e+09
1.91399e+09
1.90025e+09
1.88664e+09
1.87317e+09
1.85985e+09
1.84666e+09
1.8336e+09
1.82069e+09
1.80792e+09
1.79529e+09
1.78281e+09
1.77046e+09
1.75827e+09
1.74622e+09
1.73432e+09
1.72256e+09
1.71095e+09
1.6995e+09
1.6882e+09
1.67705e+09
1.66606e+09
1.65523e+09
1.64456e+09
1.63404e+09
1.6237e+09
1.61351e+09
1.6035e+09
1.59366e+09
1.58398e+09
1.57448e+09
1.56516e+09
1.55602e+09
1.54706e+09
1.53829e+09
1.5297e+09
1.52131e+09
1.51311e+09
1.50511e+09
1.49731e+09
1.48972e+09
1.48233e+09
1.47515e+09
1.46819e+09
1.46146e+09
1.45494e+09
1.44865e+09
1.44259e+09
1.43677e+09
1.43119e+09
1.42586e+09
1.42077e+09
1.41594e+09
1.41136e+09
1.40704e+09
1.40299e+09
1.39921e+09
1.39571e+09
1.39248e+09
1.38953e+09
1.38687e+09
1.38449e+09
1.38241e+09
1.38061e+09
1.37911e+09
1.37791e+09
1.37701e+09
1.37641e+09
1.37611e+09
2.42317e+09
2.40587e+09
2.38786e+09
2.37001e+09
2.35232e+09
2.33476e+09
2.31736e+09
2.30009e+09
2.28297e+09
2.26599e+09
2.24914e+09
2.23244e+09
2.21586e+09
2.19942e+09
2.18312e+09
2.16695e+09
2.15092e+09
2.13502e+09
2.11926e+09
2.10363e+09
2.08813e+09
2.07276e+09
2.05753e+09
2.04243e+09
2.02747e+09
2.01264e+09
1.99793e+09
1.98336e+09
1.96893e+09
1.95463e+09
1.94046e+09
1.92643e+09
1.91254e+09
1.89878e+09
1.88515e+09
1.87166e+09
1.8583e+09
1.84509e+09
1.83201e+09
1.81908e+09
1.80627e+09
1.79362e+09
1.7811e+09
1.76873e+09
1.7565e+09
1.74442e+09
1.73249e+09
1.72069e+09
1.70905e+09
1.69756e+09
1.68622e+09
1.67503e+09
1.66401e+09
1.65313e+09
1.64241e+09
1.63186e+09
1.62146e+09
1.61123e+09
1.60117e+09
1.59127e+09
1.58155e+09
1.572e+09
1.56262e+09
1.55342e+09
1.54441e+09
1.53558e+09
1.52694e+09
1.51848e+09
1.51022e+09
1.50216e+09
1.4943e+09
1.48664e+09
1.47919e+09
1.47194e+09
1.46492e+09
1.45812e+09
1.45154e+09
1.44518e+09
1.43906e+09
1.43317e+09
1.42753e+09
1.42213e+09
1.41698e+09
1.41209e+09
1.40745e+09
1.40308e+09
1.39897e+09
1.39514e+09
1.39158e+09
1.38831e+09
1.38531e+09
1.38261e+09
1.3802e+09
1.37807e+09
1.37625e+09
1.37473e+09
1.37351e+09
1.37259e+09
1.37198e+09
1.37168e+09
2.42178e+09
2.40457e+09
2.38658e+09
2.36874e+09
2.35104e+09
2.3335e+09
2.31609e+09
2.29882e+09
2.2817e+09
2.26472e+09
2.24786e+09
2.23116e+09
2.21458e+09
2.19814e+09
2.18183e+09
2.16566e+09
2.14962e+09
2.13371e+09
2.11794e+09
2.1023e+09
2.08679e+09
2.07141e+09
2.05617e+09
2.04105e+09
2.02607e+09
2.01122e+09
1.9965e+09
1.98192e+09
1.96748e+09
1.95316e+09
1.93897e+09
1.92492e+09
1.911e+09
1.89722e+09
1.88357e+09
1.87006e+09
1.85668e+09
1.84343e+09
1.83033e+09
1.81736e+09
1.80454e+09
1.79185e+09
1.7793e+09
1.7669e+09
1.75464e+09
1.74252e+09
1.73055e+09
1.71872e+09
1.70704e+09
1.69551e+09
1.68413e+09
1.6729e+09
1.66183e+09
1.6509e+09
1.64014e+09
1.62954e+09
1.61909e+09
1.60882e+09
1.5987e+09
1.58875e+09
1.57897e+09
1.56936e+09
1.55993e+09
1.55068e+09
1.5416e+09
1.53271e+09
1.524e+09
1.51549e+09
1.50716e+09
1.49903e+09
1.4911e+09
1.48338e+09
1.47586e+09
1.46855e+09
1.46145e+09
1.45458e+09
1.44793e+09
1.44151e+09
1.43531e+09
1.42935e+09
1.42364e+09
1.41818e+09
1.41296e+09
1.40799e+09
1.40329e+09
1.39886e+09
1.39469e+09
1.3908e+09
1.38719e+09
1.38386e+09
1.38082e+09
1.37807e+09
1.37561e+09
1.37346e+09
1.37161e+09
1.37006e+09
1.36882e+09
1.36789e+09
1.36726e+09
1.36695e+09
2.4204e+09
2.40321e+09
2.38523e+09
2.3674e+09
2.34971e+09
2.33216e+09
2.31475e+09
2.29749e+09
2.28037e+09
2.26337e+09
2.24652e+09
2.22981e+09
2.21322e+09
2.19678e+09
2.18046e+09
2.16428e+09
2.14824e+09
2.13232e+09
2.11654e+09
2.10089e+09
2.08537e+09
2.06998e+09
2.05472e+09
2.0396e+09
2.0246e+09
2.00974e+09
1.995e+09
1.9804e+09
1.96593e+09
1.9516e+09
1.93739e+09
1.92332e+09
1.90938e+09
1.89558e+09
1.8819e+09
1.86836e+09
1.85496e+09
1.84169e+09
1.82856e+09
1.81556e+09
1.8027e+09
1.78999e+09
1.77741e+09
1.76497e+09
1.75267e+09
1.74052e+09
1.72851e+09
1.71664e+09
1.70492e+09
1.69335e+09
1.68192e+09
1.67065e+09
1.65953e+09
1.64856e+09
1.63775e+09
1.6271e+09
1.6166e+09
1.60627e+09
1.5961e+09
1.58609e+09
1.57625e+09
1.56659e+09
1.55709e+09
1.54778e+09
1.53864e+09
1.52968e+09
1.52091e+09
1.51232e+09
1.50393e+09
1.49573e+09
1.48773e+09
1.47993e+09
1.47234e+09
1.46496e+09
1.45779e+09
1.45084e+09
1.44411e+09
1.43761e+09
1.43134e+09
1.42531e+09
1.41952e+09
1.41398e+09
1.40869e+09
1.40366e+09
1.39888e+09
1.39438e+09
1.39015e+09
1.3862e+09
1.38252e+09
1.37914e+09
1.37604e+09
1.37324e+09
1.37074e+09
1.36855e+09
1.36667e+09
1.36509e+09
1.36382e+09
1.36287e+09
1.36223e+09
1.36192e+09
2.41912e+09
2.40183e+09
2.38384e+09
2.366e+09
2.34831e+09
2.33075e+09
2.31335e+09
2.29608e+09
2.27896e+09
2.26196e+09
2.24511e+09
2.22839e+09
2.2118e+09
2.19535e+09
2.17903e+09
2.16284e+09
2.14679e+09
2.13086e+09
2.11507e+09
2.09941e+09
2.08388e+09
2.06848e+09
2.05321e+09
2.03807e+09
2.02306e+09
2.00818e+09
1.99343e+09
1.97881e+09
1.96432e+09
1.94996e+09
1.93574e+09
1.92164e+09
1.90768e+09
1.89385e+09
1.88015e+09
1.86658e+09
1.85315e+09
1.83986e+09
1.8267e+09
1.81367e+09
1.80078e+09
1.78803e+09
1.77542e+09
1.76294e+09
1.75061e+09
1.73842e+09
1.72636e+09
1.71445e+09
1.70269e+09
1.69108e+09
1.67961e+09
1.66829e+09
1.65712e+09
1.6461e+09
1.63524e+09
1.62453e+09
1.61398e+09
1.60359e+09
1.59336e+09
1.5833e+09
1.5734e+09
1.56367e+09
1.55412e+09
1.54473e+09
1.53553e+09
1.5265e+09
1.51766e+09
1.509e+09
1.50053e+09
1.49226e+09
1.48419e+09
1.47631e+09
1.46864e+09
1.46118e+09
1.45393e+09
1.4469e+09
1.44008e+09
1.43351e+09
1.42716e+09
1.42105e+09
1.41517e+09
1.40955e+09
1.40418e+09
1.39907e+09
1.39422e+09
1.38965e+09
1.38535e+09
1.38132e+09
1.37758e+09
1.37413e+09
1.37099e+09
1.36813e+09
1.36559e+09
1.36335e+09
1.36142e+09
1.35981e+09
1.35852e+09
1.35755e+09
1.3569e+09
1.35658e+09
2.41757e+09
2.40036e+09
2.38237e+09
2.36453e+09
2.34683e+09
2.32928e+09
2.31188e+09
2.29461e+09
2.27748e+09
2.26049e+09
2.24363e+09
2.22691e+09
2.21031e+09
2.19386e+09
2.17753e+09
2.16133e+09
2.14527e+09
2.12934e+09
2.11353e+09
2.09786e+09
2.08232e+09
2.0669e+09
2.05162e+09
2.03647e+09
2.02144e+09
2.00654e+09
1.99177e+09
1.97714e+09
1.96263e+09
1.94825e+09
1.934e+09
1.91988e+09
1.9059e+09
1.89204e+09
1.87831e+09
1.86473e+09
1.85126e+09
1.83794e+09
1.82474e+09
1.81169e+09
1.79877e+09
1.78598e+09
1.77333e+09
1.76082e+09
1.74844e+09
1.73621e+09
1.72412e+09
1.71217e+09
1.70037e+09
1.6887e+09
1.67718e+09
1.66581e+09
1.6546e+09
1.64353e+09
1.63261e+09
1.62185e+09
1.61124e+09
1.60079e+09
1.5905e+09
1.58038e+09
1.57042e+09
1.56062e+09
1.551e+09
1.54154e+09
1.53226e+09
1.52317e+09
1.51425e+09
1.50552e+09
1.49697e+09
1.48862e+09
1.48046e+09
1.4725e+09
1.46475e+09
1.4572e+09
1.44987e+09
1.44276e+09
1.43586e+09
1.42919e+09
1.42276e+09
1.41655e+09
1.4106e+09
1.40489e+09
1.39943e+09
1.39424e+09
1.38931e+09
1.38466e+09
1.38028e+09
1.37618e+09
1.37237e+09
1.36885e+09
1.36564e+09
1.36273e+09
1.36013e+09
1.35784e+09
1.35587e+09
1.35423e+09
1.35291e+09
1.35192e+09
1.35125e+09
1.35093e+09
2.41614e+09
2.39885e+09
2.38084e+09
2.36299e+09
2.34529e+09
2.32774e+09
2.31034e+09
2.29307e+09
2.27593e+09
2.25894e+09
2.24208e+09
2.22535e+09
2.20876e+09
2.19229e+09
2.17596e+09
2.15976e+09
2.14368e+09
2.12774e+09
2.11193e+09
2.09624e+09
2.08068e+09
2.06526e+09
2.04996e+09
2.03479e+09
2.01974e+09
2.00483e+09
1.99004e+09
1.97539e+09
1.96086e+09
1.94646e+09
1.93219e+09
1.91805e+09
1.90403e+09
1.89015e+09
1.87641e+09
1.86278e+09
1.8493e+09
1.83594e+09
1.82272e+09
1.80962e+09
1.79667e+09
1.78384e+09
1.77116e+09
1.75861e+09
1.74619e+09
1.73391e+09
1.72178e+09
1.70978e+09
1.69793e+09
1.68622e+09
1.67465e+09
1.66323e+09
1.65196e+09
1.64084e+09
1.62987e+09
1.61904e+09
1.60837e+09
1.59786e+09
1.58751e+09
1.57732e+09
1.56729e+09
1.55742e+09
1.54773e+09
1.53821e+09
1.52885e+09
1.51968e+09
1.51069e+09
1.50187e+09
1.49324e+09
1.48481e+09
1.47657e+09
1.46852e+09
1.46068e+09
1.45304e+09
1.44562e+09
1.43841e+09
1.43142e+09
1.42466e+09
1.41813e+09
1.41184e+09
1.40579e+09
1.39999e+09
1.39445e+09
1.38916e+09
1.38415e+09
1.3794e+09
1.37494e+09
1.37076e+09
1.36687e+09
1.36328e+09
1.36e+09
1.35703e+09
1.35437e+09
1.35204e+09
1.35002e+09
1.34834e+09
1.34699e+09
1.34598e+09
1.34529e+09
1.34496e+09
2.41454e+09
2.39725e+09
2.37923e+09
2.36138e+09
2.34369e+09
2.32614e+09
2.30873e+09
2.29146e+09
2.27433e+09
2.25733e+09
2.24047e+09
2.22373e+09
2.20713e+09
2.19066e+09
2.17432e+09
2.15811e+09
2.14203e+09
2.12607e+09
2.11025e+09
2.09456e+09
2.07899e+09
2.06354e+09
2.04823e+09
2.03304e+09
2.01799e+09
2.00305e+09
1.98825e+09
1.97357e+09
1.95902e+09
1.94459e+09
1.9303e+09
1.91614e+09
1.9021e+09
1.88819e+09
1.87441e+09
1.86076e+09
1.84724e+09
1.83385e+09
1.8206e+09
1.80747e+09
1.79447e+09
1.78161e+09
1.76889e+09
1.7563e+09
1.74384e+09
1.73152e+09
1.71934e+09
1.7073e+09
1.6954e+09
1.68364e+09
1.67202e+09
1.66055e+09
1.64922e+09
1.63804e+09
1.627e+09
1.61612e+09
1.6054e+09
1.59482e+09
1.5844e+09
1.57414e+09
1.56404e+09
1.5541e+09
1.54433e+09
1.53473e+09
1.5253e+09
1.51604e+09
1.50697e+09
1.49807e+09
1.48936e+09
1.48084e+09
1.4725e+09
1.46436e+09
1.45643e+09
1.4487e+09
1.44118e+09
1.43387e+09
1.42679e+09
1.41993e+09
1.4133e+09
1.40691e+09
1.40076e+09
1.39486e+09
1.38922e+09
1.38384e+09
1.37872e+09
1.37388e+09
1.36933e+09
1.36506e+09
1.36109e+09
1.35743e+09
1.35407e+09
1.35103e+09
1.34831e+09
1.34591e+09
1.34385e+09
1.34213e+09
1.34074e+09
1.3397e+09
1.339e+09
1.33865e+09
2.41286e+09
2.39555e+09
2.37754e+09
2.3597e+09
2.342e+09
2.32446e+09
2.30706e+09
2.28979e+09
2.27265e+09
2.25566e+09
2.23879e+09
2.22205e+09
2.20544e+09
2.18897e+09
2.17262e+09
2.1564e+09
2.14031e+09
2.12435e+09
2.10851e+09
2.0928e+09
2.07722e+09
2.06176e+09
2.04643e+09
2.03123e+09
2.01616e+09
2.0012e+09
1.98638e+09
1.97168e+09
1.95711e+09
1.94266e+09
1.92834e+09
1.91415e+09
1.90009e+09
1.88615e+09
1.87234e+09
1.85866e+09
1.84511e+09
1.83169e+09
1.81839e+09
1.80523e+09
1.7922e+09
1.7793e+09
1.76653e+09
1.7539e+09
1.7414e+09
1.72904e+09
1.71681e+09
1.70472e+09
1.69277e+09
1.68095e+09
1.66928e+09
1.65775e+09
1.64637e+09
1.63513e+09
1.62403e+09
1.61309e+09
1.60229e+09
1.59165e+09
1.58116e+09
1.57083e+09
1.56066e+09
1.55065e+09
1.5408e+09
1.53112e+09
1.52161e+09
1.51226e+09
1.5031e+09
1.49412e+09
1.48532e+09
1.47669e+09
1.46827e+09
1.46004e+09
1.452e+09
1.44417e+09
1.43655e+09
1.42914e+09
1.42196e+09
1.41499e+09
1.40825e+09
1.40175e+09
1.3955e+09
1.3895e+09
1.38374e+09
1.37826e+09
1.37305e+09
1.3681e+09
1.36346e+09
1.3591e+09
1.35504e+09
1.35128e+09
1.34784e+09
1.34473e+09
1.34194e+09
1.33948e+09
1.33737e+09
1.33559e+09
1.33417e+09
1.3331e+09
1.33238e+09
1.33203e+09
2.41093e+09
2.39374e+09
2.37577e+09
2.35794e+09
2.34026e+09
2.32272e+09
2.30532e+09
2.28805e+09
2.27092e+09
2.25392e+09
2.23704e+09
2.2203e+09
2.20369e+09
2.18721e+09
2.17085e+09
2.15462e+09
2.13853e+09
2.12255e+09
2.1067e+09
2.09098e+09
2.07538e+09
2.05991e+09
2.04457e+09
2.02935e+09
2.01425e+09
1.99928e+09
1.98444e+09
1.96972e+09
1.95513e+09
1.94065e+09
1.92631e+09
1.91209e+09
1.898e+09
1.88403e+09
1.87019e+09
1.85648e+09
1.8429e+09
1.82944e+09
1.81612e+09
1.80292e+09
1.78984e+09
1.7769e+09
1.7641e+09
1.75142e+09
1.73888e+09
1.72647e+09
1.71419e+09
1.70205e+09
1.69004e+09
1.67818e+09