/*--------------------------------*- C++ -*----------------------------------*\
| =========                 |                                                 |
| \\      /  F ield         | OpenFOAM: The Open Source CFD Toolbox           |
|  \\    /   O peration     | Version:  4.1                                   |
|   \\  /    A nd           | Web:      www.OpenFOAM.org                      |
|    \\/     M anipulation  |                                                 |
\*---------------------------------------------------------------------------*/
FoamFile
{
    version     2.0;
    format      ascii;
    class       volScalarField;
    location    "0.15";
    object      s;
}
// * * * * * * * * * * * * * * * * * * * * * * * * * * * * * * * * * * * * * //

dimensions      [0 0 0 0 0 0 0];

internalField   nonuniform List<scalar> 
43750
(
1
1
1
1
1
1
1
1
1
1
1
1
1
1
1
1
1
1
1
1
1
1
1
1
1
1
1
1
1
1
1
1
1
1
1
1
1
1
1
1
1
1
1
1
1
1
1
1
1
1
1
1
1
0.999999
0.999996
0.999978
0.999873
0.999287
0.996212
0.981359
0.916812
0.693383
0.422707
0.237153
0.123147
0.0593944
0.0266544
0.0111359
0.0043306
0.00156677
0.000526934
0.000164573
4.76709e-05
1.27865e-05
3.16977e-06
7.24607e-07
1.5235e-07
2.93733e-08
5.17573e-09
8.30345e-10
1.2078e-10
1.58554e-11
1.86899e-12
1.96742e-13
1.83853e-14
1.51558e-15
1.09477e-16
6.88276e-18
3.74203e-19
1.751e-20
7.05336e-22
2.47891e-23
7.93377e-25
2.51347e-26
8.48625e-28
2.94371e-29
9.20669e-31
2.25919e-32
3.73334e-34
3.07584e-36
1
1
1
1
1
1
1
1
1
1
1
1
1
1
1
1
1
1
1
1
1
1
1
1
1
1
1
1
1
1
1
1
1
1
1
1
1
1
1
1
1
1
1
1
1
1
1
1
1
1
1
1
1
1
1
0.999998
0.999987
0.999924
0.999599
0.998126
0.992502
0.976224
0.942246
0.871098
0.708084
0.514804
0.342606
0.209827
0.118834
0.0624698
0.0305686
0.0139521
0.00594794
0.00237041
0.000883446
0.000307919
0.000100331
3.05394e-05
8.67484e-06
2.29632e-06
5.65486e-07
1.29275e-07
2.73676e-08
5.34959e-09
9.62278e-10
1.58664e-10
2.38719e-11
3.26018e-12
4.01671e-13
4.43691e-14
4.37324e-15
3.80706e-16
2.89128e-17
1.88608e-18
1.03554e-19
4.65438e-21
1.64504e-22
4.29001e-24
7.34555e-26
6.19563e-28
1
1
1
1
1
1
1
1
1
1
1
1
1
1
1
1
1
1
1
1
1
1
1
1
1
1
1
1
1
1
1
1
1
1
1
1
1
1
1
1
1
1
1
1
1
1
1
1
1
1
1
1
1
1
1
0.999999
0.999997
0.999984
0.999928
0.999695
0.998799
0.995608
0.984562
0.945889
0.811061
0.570561
0.370074
0.22318
0.125397
0.0657558
0.032235
0.0147949
0.00636533
0.00256956
0.000973878
0.000346662
0.000115901
3.63871e-05
1.07215e-05
2.96251e-06
7.66769e-07
1.85624e-07
4.19542e-08
8.83308e-09
1.7277e-09
3.12921e-10
5.2278e-11
8.01863e-12
1.12293e-12
1.42562e-13
1.62594e-14
1.6498e-15
1.471e-16
1.13437e-17
7.40912e-19
3.98308e-20
1.69086e-21
5.30965e-23
1.09527e-24
1.11123e-26
1
1
1
1
1
1
1
1
1
1
1
1
1
1
1
1
1
1
1
1
1
1
1
1
1
1
1
1
1
1
1
1
1
1
1
1
1
1
1
1
1
1
1
1
1
1
1
1
1
1
1
1
1
1
1
0.999999
0.999997
0.999984
0.999929
0.999694
0.998728
0.994873
0.979932
0.923834
0.738689
0.496714
0.310777
0.181226
0.0986838
0.050282
0.0240165
0.0107694
0.004539
0.00179964
0.000671578
0.000235937
7.80306e-05
2.42867e-05
7.10969e-06
1.95585e-06
5.05032e-07
1.22224e-07
2.76725e-08
5.8483e-09
1.15061e-09
2.10063e-10
3.54499e-11
5.50456e-12
7.82102e-13
1.01e-13
1.17574e-14
1.22136e-15
1.11785e-16
8.86058e-18
5.95431e-19
3.29533e-20
1.44042e-21
4.65597e-23
9.87716e-25
1.02901e-26
1
1
1
1
1
1
1
1
1
1
1
1
1
1
1
1
1
1
1
1
1
1
1
1
1
1
1
1
1
1
1
1
1
1
1
1
1
1
1
1
1
1
1
1
1
1
1
1
1
1
1
1
1
1
1
0.999999
0.999996
0.999979
0.999905
0.999572
0.998135
0.99217
0.968537
0.87985
0.645152
0.418871
0.252946
0.142286
0.0747376
0.0367336
0.0169235
0.0073186
0.00297414
0.00113669
0.000408799
0.000138387
4.40982e-05
1.32252e-05
3.7312e-06
9.89577e-07
2.46477e-07
5.75784e-08
1.25946e-08
2.57429e-09
4.90444e-10
8.68281e-11
1.42322e-11
2.15025e-12
2.97833e-13
3.75729e-14
4.28242e-15
4.36585e-16
3.93176e-17
3.08644e-18
2.06714e-19
1.14675e-20
5.04883e-22
1.65006e-23
3.54903e-25
3.75401e-27
1
1
1
1
1
1
1
1
1
1
1
1
1
1
1
1
1
1
1
1
1
1
1
1
1
1
1
1
1
1
1
1
1
1
1
1
1
1
1
1
1
1
1
1
1
1
1
1
1
1
1
1
1
1
1
0.999999
0.999996
0.999979
0.999899
0.999539
0.997962
0.991355
0.964971
0.865386
0.619248
0.396614
0.23587
0.130568
0.067438
0.0325628
0.0147226
0.00624086
0.00248267
0.00092747
0.000325511
0.000107347
3.32615e-05
9.68043e-06
2.64497e-06
6.77941e-07
1.62843e-07
3.66095e-08
7.69086e-09
1.50684e-09
2.74695e-10
4.64611e-11
7.26601e-12
1.04633e-12
1.38046e-13
1.65835e-14
1.80015e-15
1.74894e-16
1.5024e-17
1.12339e-18
7.16099e-20
3.78093e-21
1.58562e-22
4.94356e-24
1.01642e-25
1.03011e-27
1
1
1
1
1
1
1
1
1
1
1
1
1
1
1
1
1
1
1
1
1
1
1
1
1
1
1
1
1
1
1
1
1
1
1
1
1
1
1
1
1
1
1
1
1
1
1
1
1
1
1
1
1
1
1
0.999999
0.999995
0.999977
0.999893
0.999514
0.997874
0.991064
0.96403
0.862298
0.614763
0.393091
0.23323
0.128731
0.0662512
0.0318504
0.0143253
0.00603489
0.00238336
0.000882889
0.000306861
0.000100068
3.06173e-05
8.78361e-06
2.36113e-06
5.94139e-07
1.3978e-07
3.07004e-08
6.2834e-09
1.19582e-09
2.11086e-10
3.44566e-11
5.18274e-12
7.15311e-13
9.0134e-14
1.03061e-14
1.06141e-15
9.75491e-17
7.90722e-18
5.56766e-19
3.33688e-20
1.65495e-21
6.51777e-23
1.90927e-24
3.69287e-26
3.52752e-28
1
1
1
1
1
1
1
1
1
1
1
1
1
1
1
1
1
1
1
1
1
1
1
1
1
1
1
1
1
1
1
1
1
1
1
1
1
1
1
1
1
1
1
1
1
1
1
1
1
1
1
1
1
1
1
0.999999
0.999995
0.999978
0.999897
0.999532
0.997954
0.991389
0.965278
0.866788
0.620786
0.396861
0.235412
0.129872
0.0667948
0.0320875
0.0144197
0.00606894
0.00239421
0.000885785
0.000307404
0.000100066
3.05385e-05
8.7318e-06
2.33707e-06
5.84861e-07
1.36653e-07
2.97586e-08
6.02739e-09
1.13267e-09
1.96919e-10
3.1568e-11
4.64986e-12
6.26353e-13
7.67498e-14
8.50074e-15
8.44547e-16
7.45568e-17
5.78e-18
3.87586e-19
2.20333e-20
1.03276e-21
3.8325e-23
1.0555e-24
1.91691e-26
1.71902e-28
1
1
1
1
1
1
1
1
1
1
1
1
1
1
1
1
1
1
1
1
1
1
1
1
1
1
1
1
1
1
1
1
1
1
1
1
1
1
1
1
1
1
1
1
1
1
1
1
1
1
1
1
1
1
1
0.999999
0.999996
0.999982
0.999915
0.999612
0.998286
0.992688
0.97009
0.883721
0.645948
0.412779
0.244785
0.134904
0.069279
0.033224
0.0149038
0.00626124
0.00246549
0.000910564
0.000315454
0.000102498
3.12255e-05
8.91325e-06
2.38163e-06
5.94959e-07
1.38743e-07
3.01474e-08
6.09056e-09
1.14109e-09
1.97672e-10
3.15508e-11
4.61863e-12
6.1706e-13
7.4813e-14
8.17599e-15
7.98947e-16
6.91283e-17
5.23219e-18
3.41286e-19
1.87983e-20
8.50482e-22
3.0353e-23
8.01376e-25
1.39155e-26
1.19109e-28
1
1
1
1
1
1
1
1
1
1
1
1
1
1
1
1
1
1
1
1
1
1
1
1
1
1
1
1
1
1
1
1
1
1
1
1
1
1
1
1
1
1
1
1
1
1
1
1
1
1
1
1
1
1
1
0.999999
0.999997
0.999985
0.999928
0.999668
0.99851
0.993553
0.973322
0.895356
0.666894
0.427824
0.254765
0.140951
0.0726377
0.0349434
0.015719
0.00662059
0.00261309
0.000966806
0.000335382
0.000109069
3.32395e-05
9.4865e-06
2.53303e-06
6.31993e-07
1.4711e-07
3.18862e-08
6.4212e-09
1.19819e-09
2.0663e-10
3.28156e-11
4.78065e-12
6.35681e-13
7.67001e-14
8.33982e-15
8.10488e-16
6.97016e-17
5.2397e-18
3.38799e-19
1.84532e-20
8.23378e-22
2.89049e-23
7.48758e-25
1.27277e-26
1.06455e-28
1
1
1
1
1
1
1
1
1
1
1
1
1
1
1
1
1
1
1
1
1
1
1
1
1
1
1
1
1
1
1
1
1
1
1
1
1
1
1
1
1
1
1
1
1
1
1
1
1
1
1
1
1
1
1
0.999999
0.999997
0.999986
0.999933
0.999686
0.998581
0.99384
0.974447
0.899568
0.675354
0.434495
0.259587
0.144146
0.0745776
0.0360258
0.016275
0.00688416
0.00272875
0.00101407
0.000353366
0.000115446
3.53462e-05
1.01346e-05
2.71854e-06
6.81351e-07
1.593e-07
3.4676e-08
7.01153e-09
1.31339e-09
2.27087e-10
3.61072e-11
5.25734e-12
6.97569e-13
8.38572e-14
9.07056e-15
8.75551e-16
7.47061e-17
5.56867e-18
3.57085e-19
1.93008e-20
8.55002e-22
2.98072e-23
7.66943e-25
1.29517e-26
1.07649e-28
1
1
1
1
1
1
1
1
1
1
1
1
1
1
1
1
1
1
1
1
1
1
1
1
1
1
1
1
1
1
1
1
1
1
1
1
1
1
1
1
1
1
1
1
1
1
1
1
1
1
1
1
1
1
1
0.999999
0.999997
0.999987
0.999937
0.999708
0.998687
0.994293
0.976247
0.906191
0.688828
0.444506
0.266405
0.148428
0.0770568
0.0373517
0.0169321
0.00718685
0.00285862
0.00106607
0.000372825
0.000122254
3.75734e-05
1.08156e-05
2.91301e-06
7.33153e-07
1.72151e-07
3.76396e-08
7.64536e-09
1.43877e-09
2.50057e-10
3.99871e-11
5.85801e-12
7.82224e-13
9.46419e-14
1.03029e-14
1.00076e-15
8.58204e-17
6.41384e-18
4.11297e-19
2.21776e-20
9.78004e-22
3.38794e-23
8.64873e-25
1.44727e-26
1.19164e-28
1
1
1
1
1
1
1
1
1
1
1
1
1
1
1
1
1
1
1
1
1
1
1
1
1
1
1
1
1
1
1
1
1
1
1
1
1
1
1
1
1
1
1
1
1
1
1
1
1
1
1
1
1
1
1
0.999999
0.999997
0.999988
0.999942
0.999737
0.998827
0.99493
0.978929
0.916598
0.712578
0.462381
0.278143
0.155448
0.0809192
0.0393232
0.0178705
0.00760455
0.00303277
0.00113412
0.000397751
0.00013081
4.03239e-05
1.16432e-05
3.14582e-06
7.94312e-07
1.87131e-07
4.10543e-08
8.36821e-09
1.5805e-09
2.75719e-10
4.42641e-11
6.51142e-12
8.73275e-13
1.06147e-13
1.16117e-14
1.13367e-15
9.77842e-17
7.35842e-18
4.75514e-19
2.58499e-20
1.14947e-21
4.01504e-23
1.03324e-24
1.74235e-26
1.44357e-28
1
1
1
1
1
1
1
1
1
1
1
1
1
1
1
1
1
1
1
1
1
1
1
1
1
1
1
1
1
1
1
1
1
1
1
1
1
1
1
1
1
1
1
1
1
1
1
1
1
1
1
1
1
1
1
1
0.999998
0.999988
0.999945
0.999749
0.998897
0.995301
0.98067
0.923897
0.731896
0.478901
0.289931
0.162943
0.0852348
0.0415989
0.0189785
0.00810548
0.00324384
0.0012172
0.000428344
0.000141356
4.37282e-05
1.26716e-05
3.43638e-06
8.70991e-07
2.06004e-07
4.53787e-08
9.28852e-09
1.76194e-09
3.08757e-10
4.98003e-11
7.36166e-12
9.92373e-13
1.21276e-13
1.33428e-14
1.31063e-15
1.13784e-16
8.62245e-18
5.61396e-19
3.07642e-20
1.37964e-21
4.86174e-23
1.2625e-24
2.14833e-26
1.79667e-28
1
1
1
1
1
1
1
1
1
1
1
1
1
1
1
1
1
1
1
1
1
1
1
1
1
1
1
1
1
1
1
1
1
1
1
1
1
1
1
1
1
1
1
1
1
1
1
1
1
1
1
1
1
1
1
1
0.999998
0.999988
0.999946
0.999755
0.99893
0.995477
0.981564
0.927935
0.744159
0.491316
0.299815
0.169744
0.0893995
0.0439107
0.0201554
0.00865885
0.00348524
0.00131517
0.000465392
0.000154422
4.80275e-05
1.39915e-05
3.81427e-06
9.7181e-07
2.31041e-07
5.11572e-08
1.05256e-08
2.007e-09
3.53547e-10
5.73271e-11
8.51981e-12
1.15474e-12
1.41892e-13
1.56972e-14
1.55039e-15
1.35339e-16
1.03123e-17
6.75137e-19
3.72041e-20
1.67788e-21
5.94641e-23
1.55298e-24
2.6576e-26
2.23509e-28
1
1
1
1
1
1
1
1
1
1
1
1
1
1
1
1
1
1
1
1
1
1
1
1
1
1
1
1
1
1
1
1
1
1
1
1
1
1
1
1
1
1
1
1
1
1
1
1
1
1
1
1
1
1
1
1
0.999998
0.999988
0.999946
0.999756
0.998934
0.995505
0.981758
0.929081
0.748678
0.497802
0.306105
0.174663
0.0926904
0.0458559
0.0211911
0.00916197
0.00371011
0.00140816
0.000501104
0.00016719
5.22822e-05
1.53139e-05
4.19761e-06
1.0754e-06
2.57108e-07
5.72572e-08
1.18507e-08
2.27364e-09
4.03114e-10
6.58135e-11
9.85307e-12
1.34612e-12
1.66864e-13
1.86408e-14
1.86145e-15
1.64449e-16
1.2692e-17
8.4227e-19
4.70785e-20
2.15486e-21
7.75452e-23
2.05723e-24
3.5772e-26
3.05733e-28
1
1
1
1
1
1
1
1
1
1
1
1
1
1
1
1
1
1
1
1
1
1
1
1
1
1
1
1
1
1
1
1
1
1
1
1
1
1
1
1
1
1
1
1
1
1
1
1
1
1
1
1
1
1
1
1
0.999998
0.999989
0.999947
0.999758
0.99894
0.995519
0.981799
0.929295
0.749914
0.500933
0.309922
0.178093
0.0952289
0.04748
0.0221141
0.00963558
0.00393186
0.00150355
0.00053898
0.000181113
5.70298e-05
1.68172e-05
4.63976e-06
1.19616e-06
2.87714e-07
6.44445e-08
1.34117e-08
2.58638e-09
4.60741e-10
7.55418e-11
1.13508e-11
1.55522e-12
1.93158e-13
2.15939e-14
2.15477e-15
1.90531e-16
1.47382e-17
9.81363e-19
5.50887e-20
2.53426e-21
9.1718e-23
2.44827e-24
4.28498e-26
3.68703e-28
1
1
1
1
1
1
1
1
1
1
1
1
1
1
1
1
1
1
1
1
1
1
1
1
1
1
1
1
1
1
1
1
1
1
1
1
1
1
1
1
1
1
1
1
1
1
1
1
1
1
1
1
1
1
1
1
0.999998
0.999989
0.999949
0.999766
0.998963
0.995585
0.981995
0.929923
0.751864
0.503976
0.313347
0.181186
0.0975782
0.0490278
0.0230181
0.0101111
0.00415953
0.00160357
0.000579512
0.000196318
6.23225e-05
1.85289e-05
5.15447e-06
1.34005e-06
3.25092e-07
7.34579e-08
1.54264e-08
3.00304e-09
5.40274e-10
8.95154e-11
1.36029e-11
1.88688e-12
2.37573e-13
2.6971e-14
2.73861e-15
2.45775e-16
1.92565e-17
1.2967e-18
7.35313e-20
3.4148e-21
1.2471e-22
3.35858e-24
5.92972e-26
5.14646e-28
1
1
1
1
1
1
1
1
1
1
1
1
1
1
1
1
1
1
1
1
1
1
1
1
1
1
1
1
1
1
1
1
1
1
1
1
1
1
1
1
1
1
1
1
1
1
1
1
1
1
1
1
1
1
1
1
0.999998
0.99999
0.999951
0.999776
0.999004
0.995731
0.982479
0.931488
0.756222
0.50906
0.318073
0.184987
0.100273
0.0507328
0.0239915
0.0106169
0.00440041
0.00170923
0.00062236
0.000212426
6.7945e-05
2.03529e-05
5.7045e-06
1.49419e-06
3.65199e-07
8.31338e-08
1.75865e-08
3.44817e-09
6.2467e-10
1.04178e-10
1.59254e-11
2.22017e-12
2.80585e-13
3.19191e-14
3.24148e-15
2.91012e-16
2.28533e-17
1.54714e-18
8.83522e-20
4.13563e-21
1.52294e-22
4.13618e-24
7.36436e-26
6.44516e-28
1
1
1
1
1
1
1
1
1
1
1
1
1
1
1
1
1
1
1
1
1
1
1
1
1
1
1
1
1
1
1
1
1
1
1
1
1
1
1
1
1
1
1
1
1
1
1
1
1
1
1
1
1
1
1
1
0.999998
0.99999
0.999954
0.999788
0.999052
0.995925
0.983232
0.934279
0.763859
0.516066
0.323727
0.189243
0.103208
0.0525768
0.0250472
0.0111695
0.00466594
0.00182678
0.000670461
0.000230661
7.43604e-05
2.24497e-05
6.34145e-06
1.674e-06
4.12348e-07
9.46065e-08
2.01737e-08
3.98804e-09
7.28724e-10
1.22666e-10
1.89475e-11
2.67345e-12
3.42702e-13
3.96455e-14
4.10414e-15
3.76061e-16
3.00932e-17
2.06927e-18
1.19875e-19
5.68969e-21
2.12418e-22
5.84789e-24
1.05517e-25
9.3558e-28
1
1
1
1
1
1
1
1
1
1
1
1
1
1
1
1
1
1
1
1
1
1
1
1
1
1
1
1
1
1
1
1
1
1
1
1
1
1
1
1
1
1
1
1
1
1
1
1
1
1
1
1
1
1
1
1
0.999998
0.999991
0.999959
0.999811
0.999151
0.996326
0.984735
0.939483
0.777971
0.527577
0.331588
0.194275
0.106338
0.0544504
0.0261027
0.0117231
0.00493529
0.00194829
0.000721295
0.0002504
8.14785e-05
2.48342e-05
7.0834e-06
1.88832e-06
4.69761e-07
1.08847e-07
2.34367e-08
4.67665e-09
8.62031e-10
1.46212e-10
2.27153e-11
3.21513e-12
4.12129e-13
4.75283e-14
4.90158e-15
4.49176e-16
3.60577e-17
2.49332e-18
1.45424e-19
6.95433e-21
2.61722e-22
7.26611e-24
1.32255e-25
1.18318e-27
1
1
1
1
1
1
1
1
1
1
1
1
1
1
1
1
1
1
1
1
1
1
1
1
1
1
1
1
1
1
1
1
1
1
1
1
1
1
1
1
1
1
1
1
1
1
1
1
1
1
1
1
1
1
1
1
0.999999
0.999993
0.999966
0.999844
0.999303
0.996976
0.987357
0.949433
0.808485
0.553035
0.348442
0.204609
0.112231
0.0575866
0.0276783
0.0124727
0.0052728
0.00209176
0.000778744
0.000272019
8.91093e-05
2.73558e-05
7.86231e-06
2.11287e-06
5.30086e-07
1.23927e-07
2.69401e-08
5.43197e-09
1.01299e-09
1.74154e-10
2.75014e-11
3.9713e-12
5.21301e-13
6.17174e-14
6.52213e-15
6.07808e-16
4.94224e-17
3.45551e-18
2.03625e-19
9.83505e-21
3.73808e-22
1.04806e-23
1.9263e-25
1.73983e-27
1
1
1
1
1
1
1
1
1
1
1
1
1
1
1
1
1
1
1
1
1
1
1
1
1
1
1
1
1
1
1
1
1
1
1
1
1
1
1
1
1
1
1
1
1
1
1
1
1
1
1
1
1
1
1
1
0.999999
0.999994
0.999972
0.999872
0.999432
0.997544
0.989738
0.958848
0.843115
0.588885
0.373955
0.220631
0.121434
0.0624975
0.0301275
0.0136194
0.00577812
0.00230166
0.000860954
0.000302368
9.96585e-05
3.08037e-05
8.91988e-06
2.41663e-06
6.11564e-07
1.44274e-07
3.1653e-08
6.44017e-09
1.21111e-09
2.09679e-10
3.32639e-11
4.80983e-12
6.30393e-13
7.44634e-14
7.87185e-15
7.37496e-16
6.04596e-17
4.26756e-18
2.54024e-19
1.23982e-20
4.7643e-22
1.35167e-23
2.51679e-25
2.30576e-27
1
1
1
1
1
1
1
1
1
1
1
1
1
1
1
1
1
1
1
1
1
1
1
1
1
1
1
1
1
1
1
1
1
1
1
1
1
1
1
1
1
1
1
1
1
1
1
1
1
1
1
1
1
1
1
1
0.999999
0.999995
0.999977
0.999894
0.999529
0.997965
0.991502
0.965889
0.869482
0.625447
0.400924
0.238759
0.132431
0.0685962
0.0332466
0.0150994
0.00643234
0.00257179
0.000965322
0.000340136
0.000112466
3.48735e-05
1.01315e-05
2.75434e-06
6.99627e-07
1.65733e-07
3.6532e-08
7.47324e-09
1.4145e-09
2.46863e-10
3.95654e-11
5.79599e-12
7.71661e-13
9.27223e-14
9.96912e-15
9.48967e-16
7.89429e-17
5.646e-18
3.39895e-19
1.67385e-20
6.47171e-22
1.84183e-23
3.43544e-25
3.15112e-27
1
1
1
1
1
1
1
1
1
1
1
1
1
1
1
1
1
1
1
1
1
1
1
1
1
1
1
1
1
1
1
1
1
1
1
1
1
1
1
1
1
1
1
1
1
1
1
1
1
1
1
1
1
1
1
1
0.999999
0.999996
0.99998
0.999911
0.999603
0.998285
0.992818
0.971063
0.888715
0.658335
0.426402
0.256916
0.144139
0.0754823
0.0369709
0.0169626
0.00729831
0.0029468
0.00111692
0.000397406
0.000132695
4.15542e-05
1.21934e-05
3.34866e-06
8.59426e-07
2.05766e-07
4.58643e-08
9.49465e-09
1.81926e-09
3.21442e-10
5.21496e-11
7.73038e-12
1.04095e-12
1.26447e-13
1.37414e-14
1.32272e-15
1.11395e-16
8.07969e-18
4.94342e-19
2.47964e-20
9.78538e-22
2.84652e-23
5.41701e-25
5.05423e-27
1
1
1
1
1
1
1
1
1
1
1
1
1
1
1
1
1
1
1
1
1
1
1
1
1
1
1
1
1
1
1
1
1
1
1
1
1
1
1
1
1
1
1
1
1
1
1
1
1
1
1
1
1
1
1
1
0.999999
0.999996
0.999984
0.999925
0.999666
0.998551
0.993907
0.975313
0.904462
0.689283
0.450333
0.273823
0.155034
0.0819112
0.0404641
0.0187189
0.00811831
0.00330327
0.00126146
0.000452128
0.000152047
4.79455e-05
1.41629e-05
3.91401e-06
1.01023e-06
2.43012e-07
5.43392e-08
1.12667e-08
2.16587e-09
3.84329e-10
6.26626e-11
9.33915e-12
1.26475e-12
1.54543e-13
1.68988e-14
1.63726e-15
1.3884e-16
1.01458e-17
6.26405e-19
3.1762e-20
1.26933e-21
3.7469e-23
7.25823e-25
6.91525e-27
1
1
1
1
1
1
1
1
1
1
1
1
1
1
1
1
1
1
1
1
1
1
1
1
1
1
1
1
1
1
1
1
1
1
1
1
1
1
1
1
1
1
1
1
1
1
1
1
1
1
1
1
1
1
1
1
0.999999
0.999997
0.999986
0.999935
0.999712
0.998755
0.994773
0.978824
0.917855
0.720094
0.475679
0.292267
0.167271
0.0893561
0.0446394
0.0208863
0.00916297
0.00377184
0.00145738
0.000528585
0.000179921
5.74454e-05
1.71912e-05
4.81717e-06
1.26221e-06
3.08757e-07
7.0369e-08
1.48989e-08
2.91479e-09
5.24967e-10
8.66377e-11
1.30341e-11
1.77697e-12
2.18033e-13
2.38819e-14
2.31237e-15
1.95521e-16
1.42167e-17
8.74568e-19
4.42397e-20
1.76565e-21
5.20973e-23
1.00963e-24
9.63286e-27
1
1
1
1
1
1
1
1
1
1
1
1
1
1
1
1
1
1
1
1
1
1
1
1
1
1
1
1
1
1
1
1
1
1
1
1
1
1
1
1
1
1
1
1
1
1
1
1
1
1
1
1
1
1
1
1
0.999999
0.999997
0.999987
0.999942
0.999743
0.998892
0.995376
0.981365
0.927883
0.746543
0.499092
0.309786
0.17908
0.0966153
0.0487439
0.0230336
0.0102063
0.00424379
0.00165634
0.000606767
0.000208541
6.71949e-05
2.02779e-05
5.72434e-06
1.50959e-06
3.71296e-07
8.50116e-08
1.80809e-08
3.5654e-09
6.5054e-10
1.09408e-10
1.68601e-11
2.36453e-12
2.99453e-13
3.394e-14
3.40637e-15
2.98863e-16
2.25519e-17
1.42925e-18
7.39995e-20
3.00597e-21
8.98412e-23
1.75631e-24
1.68462e-26
1
1
1
1
1
1
1
1
1
1
1
1
1
1
1
1
1
1
1
1
1
1
1
1
1
1
1
1
1
1
1
1
1
1
1
1
1
1
1
1
1
1
1
1
1
1
1
1
1
1
1
1
1
1
1
1
0.999999
0.999998
0.999989
0.999948
0.99977
0.999009
0.995864
0.983347
0.935578
0.768754
0.520637
0.326915
0.191205
0.10437
0.0532731
0.0254691
0.0114197
0.00480647
0.00189997
0.000705444
0.000245946
8.0456e-05
2.46647e-05
7.07261e-06
1.89255e-06
4.71477e-07
1.09067e-07
2.33574e-08
4.61463e-09
8.37926e-10
1.40249e-10
2.15481e-11
3.0204e-12
3.83295e-13
4.36393e-14
4.40964e-15
3.90301e-16
2.97676e-17
1.91449e-18
1.00856e-19
4.17532e-21
1.27293e-22
2.53924e-24
2.485e-26
1
1
1
1
1
1
1
1
1
1
1
1
1
1
1
1
1
1
1
1
1
1
1
1
1
1
1
1
1
1
1
1
1
1
1
1
1
1
1
1
1
1
1
1
1
1
1
1
1
1
1
1
1
1
1
1
1
0.999998
0.99999
0.999955
0.999801
0.999139
0.996388
0.985374
0.943098
0.791259
0.542254
0.343875
0.203225
0.112136
0.057864
0.0279639
0.0126715
0.0053887
0.00215195
0.000807281
0.000284522
9.42051e-05
2.92959e-05
8.5554e-06
2.34244e-06
5.99357e-07
1.42859e-07
3.16166e-08
6.47295e-09
1.22077e-09
2.10261e-10
3.29517e-11
4.67852e-12
5.9848e-13
6.84794e-14
6.94348e-15
6.16418e-16
4.7171e-17
3.04827e-18
1.61696e-19
6.75594e-21
2.08316e-22
4.21036e-24
4.18054e-26
1
1
1
1
1
1
1
1
1
1
1
1
1
1
1
1
1
1
1
1
1
1
1
1
1
1
1
1
1
1
1
1
1
1
1
1
1
1
1
1
1
1
1
1
1
1
1
1
1
1
1
1
1
1
1
1
1
0.999998
0.999992
0.999963
0.999834
0.999278
0.996957
0.987597
0.951409
0.81846
0.568946
0.36436
0.217475
0.121281
0.0632926
0.0309482
0.014192
0.00610696
0.0024665
0.000934874
0.000332382
0.000110759
3.45504e-05
1.00688e-05
2.7509e-06
7.05158e-07
1.68942e-07
3.76856e-08
7.79553e-09
1.48879e-09
2.61031e-10
4.17577e-11
6.05748e-12
7.91439e-13
9.23987e-14
9.54645e-15
8.62377e-16
6.70654e-17
4.39895e-18
2.3661e-19
1.00177e-20
3.12918e-22
6.40713e-24
6.44694e-26
1
1
1
1
1
1
1
1
1
1
1
1
1
1
1
1
1
1
1
1
1
1
1
1
1
1
1
1
1
1
1
1
1
1
1
1
1
1
1
1
1
1
1
1
1
1
1
1
1
1
1
1
1
1
1
1
1
0.999999
0.999993
0.999969
0.999863
0.999403
0.997476
0.989672
0.959311
0.846828
0.599727
0.387956
0.233808
0.131698
0.069463
0.0343569
0.0159532
0.00695966
0.00285371
0.00109984
0.000398306
0.000135454
4.32189e-05
1.29273e-05
3.611e-06
9.4086e-07
2.28616e-07
5.16241e-08
1.08035e-08
2.08895e-09
3.71854e-10
6.06326e-11
8.99675e-12
1.2053e-12
1.44444e-13
1.53043e-14
1.41432e-15
1.12118e-16
7.46435e-18
4.05602e-19
1.72663e-20
5.39827e-22
1.10208e-23
1.10957e-25
1
1
1
1
1
1
1
1
1
1
1
1
1
1
1
1
1
1
1
1
1
1
1
1
1
1
1
1
1
1
1
1
1
1
1
1
1
1
1
1
1
1
1
1
1
1
1
1
1
1
1
1
1
1
1
1
1
0.999999
0.999994
0.999975
0.999887
0.999511
0.997928
0.99149
0.966289
0.872198
0.634353
0.413796
0.251852
0.143263
0.0763076
0.0381127
0.0178703
0.00787257
0.00326032
0.00126958
0.000464785
0.000159879
5.16159e-05
1.56099e-05
4.40537e-06
1.15568e-06
2.81402e-07
6.40038e-08
1.35283e-08
2.6442e-09
4.75807e-10
7.84405e-11
1.17775e-11
1.59891e-12
1.94835e-13
2.11552e-14
2.01643e-15
1.65771e-16
1.14954e-17
6.52757e-19
2.90982e-20
9.53593e-22
2.03962e-23
2.12725e-25
1
1
1
1
1
1
1
1
1
1
1
1
1
1
1
1
1
1
1
1
1
1
1
1
1
1
1
1
1
1
1
1
1
1
1
1
1
1
1
1
1
1
1
1
1
1
1
1
1
1
1
1
1
1
1
1
1
0.999999
0.999995
0.999979
0.999906
0.999595
0.998297
0.993029
0.972381
0.894949
0.673618
0.443341
0.272618
0.156733
0.0844114
0.0426495
0.0202363
0.0090226
0.00378149
0.00148996
0.000551885
0.000192149
6.28801e-05
1.93425e-05
5.59661e-06
1.51996e-06
3.85115e-07
9.03118e-08
1.95635e-08
3.89929e-09
7.11605e-10
1.18266e-10
1.77941e-11
2.40735e-12
2.90339e-13
3.12854e-14
2.97169e-15
2.446e-16
1.70572e-17
9.77941e-19
4.41772e-20
1.47178e-21
3.20957e-23
3.43117e-25
1
1
1
1
1
1
1
1
1
1
1
1
1
1
1
1
1
1
1
1
1
1
1
1
1
1
1
1
1
1
1
1
1
1
1
1
1
1
1
1
1
1
1
1
1
1
1
1
1
1
1
1
1
1
1
1
1
0.999999
0.999996
0.999981
0.999917
0.999646
0.998539
0.994115
0.976977
0.913028
0.713231
0.475888
0.296234
0.172263
0.0938
0.0479238
0.0230074
0.010388
0.00441266
0.00176317
0.00066225
0.000233546
7.72057e-05
2.38786e-05
6.89394e-06
1.86088e-06
4.72367e-07
1.12082e-07
2.48032e-08
5.10158e-09
9.68478e-10
1.68531e-10
2.66805e-11
3.81081e-12
4.86346e-13
5.4451e-14
5.29237e-15
4.40185e-16
3.07284e-17
1.75243e-18
7.84686e-20
2.59389e-21
5.65812e-23
6.08893e-25
1
1
1
1
1
1
1
1
1
1
1
1
1
1
1
1
1
1
1
1
1
1
1
1
1
1
1
1
1
1
1
1
1
1
1
1
1
1
1
1
1
1
1
1
1
1
1
1
1
1
1
1
1
1
1
1
1
0.999999
0.999996
0.999983
0.999925
0.999684
0.998702
0.994816
0.979923
0.924792
0.744197
0.505976
0.32047
0.189373
0.104613
0.0541435
0.0263047
0.0120149
0.00516531
0.0020916
0.000797951
0.00028673
9.69412e-05
3.07721e-05
9.13669e-06
2.52585e-06
6.4716e-07
1.53685e-07
3.37128e-08
6.85729e-09
1.2963e-09
2.26007e-10
3.60477e-11
5.21354e-12
6.76962e-13
7.82288e-14
7.92953e-15
6.92175e-16
5.08538e-17
3.05122e-18
1.43281e-19
4.92407e-21
1.09727e-22
1.19086e-24
1
1
1
1
1
1
1
1
1
1
1
1
1
1
1
1
1
1
1
1
1
1
1
1
1
1
1
1
1
1
1
1
1
1
1
1
1
1
1
1
1
1
1
1
1
1
1
1
1
1
1
1
1
1
1
1
1
0.999999
0.999997
0.999986
0.999937
0.99973
0.998878
0.995476
0.982346
0.933495
0.767758
0.530417
0.341782
0.205751
0.115807
0.061021
0.0301401
0.013971
0.00608315
0.00248975
0.000958442
0.000347213
0.000118464
3.81141e-05
1.15845e-05
3.31418e-06
8.86152e-07
2.20435e-07
5.07729e-08
1.07294e-08
2.06746e-09
3.62372e-10
5.75267e-11
8.22136e-12
1.05562e-12
1.21581e-13
1.23585e-14
1.08845e-15
8.11648e-17
4.97022e-18
2.39391e-19
8.48539e-21
1.9625e-22
2.21895e-24
1
1
1
1
1
1
1
1
1
1
1
1
1
1
1
1
1
1
1
1
1
1
1
1
1
1
1
1
1
1
1
1
1
1
1
1
1
1
1
1
1
1
1
1
1
1
1
1
1
1
1
1
1
1
1
1
1
0.999999
0.999997
0.999989
0.999949
0.999782
0.999082
0.996245
0.985138
0.943277
0.795135
0.555968
0.362416
0.221333
0.126713
0.0680492
0.0343049
0.0162429
0.00722549
0.00301952
0.00118483
0.000436168
0.000150445
4.85386e-05
1.46155e-05
4.13725e-06
1.10627e-06
2.78116e-07
6.54286e-08
1.43207e-08
2.89554e-09
5.37059e-10
9.06962e-11
1.38298e-11
1.88026e-12
2.24633e-13
2.33592e-14
2.08451e-15
1.56455e-16
9.59284e-18
4.61495e-19
1.62968e-20
3.80468e-22
4.38015e-24
1
1
1
1
1
1
1
1
1
1
1
1
1
1
1
1
1
1
1
1
1
1
1
1
1
1
1
1
1
1
1
1
1
1
1
1
1
1
1
1
1
1
1
1
1
1
1
1
1
1
1
1
1
1
1
1
1
1
0.999998
0.999991
0.99996
0.999828
0.999273
0.997006
0.988039
0.953902
0.829558
0.588952
0.387414
0.238812
0.138212
0.0751702
0.0384512
0.018511
0.00839073
0.00358164
0.00143945
0.000544182
0.000193153
6.42297e-05
1.99585e-05
5.7609e-06
1.53915e-06
3.81787e-07
8.90213e-08
1.94003e-08
3.9291e-09
7.34505e-10
1.25758e-10
1.95482e-11
2.73027e-12
3.38051e-13
3.6596e-14
3.40723e-15
2.67117e-16
1.71762e-17
8.6419e-19
3.19391e-20
7.6983e-22
9.10997e-24
1
1
1
1
1
1
1
1
1
1
1
1
1
1
1
1
1
1
1
1
1
1
1
1
1
1
1
1
1
1
1
1
1
1
1
1
1
1
1
1
1
1
1
1
1
1
1
1
1
1
1
1
1
1
1
1
1
1
0.999998
0.999993
0.999969
0.999866
0.999433
0.997661
0.990617
0.963607
0.864403
0.629601
0.418414
0.260695
0.152556
0.0839478
0.0434751
0.0212043
0.00974519
0.00422231
0.0017252
0.000665326
0.000242614
8.34261e-05
2.69822e-05
8.17678e-06
2.31283e-06
6.07485e-07
1.46758e-07
3.26481e-08
6.68191e-09
1.255e-09
2.15405e-10
3.35791e-11
4.71513e-12
5.90046e-13
6.48534e-14
6.14621e-15
4.90563e-16
3.20665e-17
1.66299e-18
6.37102e-20
1.59438e-21
1.95076e-23
1
1
1
1
1
1
1
1
1
1
1
1
1
1
1
1
1
1
1
1
1
1
1
1
1
1
1
1
1
1
1
1
1
1
1
1
1
1
1
1
1
1
1
1
1
1
1
1
1
1
1
1
1
1
1
1
1
1
0.999999
0.999995
0.999976
0.999896
0.999563
0.998199
0.992761
0.971792
0.894159
0.676858
0.453673
0.285744
0.169157
0.094242
0.0494532
0.0244526
0.011394
0.00500118
0.00206642
0.00080209
0.000291321
0.00010037
3.26774e-05
1.00171e-05
2.8803e-06
7.73821e-07
1.92986e-07
4.44732e-08
9.43254e-09
1.83391e-09
3.25315e-10
5.23371e-11
7.57794e-12
9.77752e-13
1.1097e-13
1.08923e-14
9.04255e-16
6.16857e-17
3.31535e-18
1.31689e-19
3.42397e-21
4.37057e-23
1
1
1
1
1
1
1
1
1
1
1
1
1
1
1
1
1
1
1
1
1
1
1
1
1
1
1
1
1
1
1
1
1
1
1
1
1
1
1
1
1
1
1
1
1
1
1
1
1
1
1
1
1
1
1
1
1
1
0.999999
0.999996
0.999981
0.99992
0.999664
0.998622
0.994472
0.978444
0.918839
0.729012
0.494896
0.315318
0.188842
0.106503
0.0566474
0.0284442
0.0134919
0.00604784
0.0025619
0.00102619
0.000388766
0.000137864
4.5845e-05
1.43112e-05
4.18869e-06
1.14797e-06
2.93996e-07
7.00225e-08
1.54207e-08
3.10417e-09
5.64368e-10
9.22283e-11
1.34735e-11
1.76107e-12
2.0433e-13
2.06189e-14
1.76717e-15
1.24761e-16
6.95061e-18
2.86036e-19
7.72252e-21
1.0192e-22
1
1
1
1
1
1
1
1
1
1
1
1
1
1
1
1
1
1
1
1
1
1
1
1
1
1
1
1
1
1
1
1
1
1
1
1
1
1
1
1
1
1
1
1
1
1
1
1
1
1
1
1
1
1
1
1
1
1
0.999999
0.999997
0.999985
0.999937
0.999739
0.998935
0.995753
0.983494
0.93785
0.780093
0.540488
0.349488
0.212083
0.12106
0.0651237
0.033061
0.0158525
0.00718171
0.00307376
0.00124181
0.000473308
0.000169982
5.74007e-05
1.81692e-05
5.41319e-06
1.51183e-06
3.94687e-07
9.59892e-08
2.16461e-08
4.52419e-09
8.83059e-10
1.56676e-10
2.48248e-11
3.45546e-12
4.16877e-13
4.29366e-14
3.71045e-15
2.68316e-16
1.54539e-17
6.61953e-19
1.86479e-20
2.59902e-22
1
1
1
1
1
1
1
1
1
1
1
1
1
1
1
1
1
1
1
1
1
1
1
1
1
1
1
1
1
1
1
1
1
1
1
1
1
1
1
1
1
1
1
1
1
1
1
1
1
1
1
1
1
1
1
1
1
1
0.999999
0.999997
0.999988
0.999951
0.999797
0.999174
0.996713
0.987241
0.951917
0.825172
0.586471
0.386366
0.238552
0.138432
0.0756553
0.0390057
0.018997
0.00874775
0.00381081
0.00157031
0.000611908
0.000225508
7.86448e-05
2.59375e-05
8.02317e-06
2.32133e-06
6.25418e-07
1.55874e-07
3.56048e-08
7.41426e-09
1.4117e-09
2.48677e-10
4.01451e-11
5.82278e-12
7.43776e-13
8.20901e-14
7.65602e-15
5.8627e-16
3.55735e-17
1.6011e-18
4.75111e-20
6.86817e-22
1
1
1
1
1
1
1
1
1
1
1
1
1
1
1
1
1
1
1
1
1
1
1
1
1
1
1
1
1
1
1
1
1
1
1
1
1
1
1
1
1
1
1
1
1
1
1
1
1
1
1
1
1
1
1
1
1
1
1
0.999998
0.999991
0.999962
0.999843
0.999362
0.99746
0.99012
0.962642
0.863395
0.63252
0.424201
0.266739
0.157616
0.0876758
0.0459802
0.0227614
0.0106451
0.004706
0.00196665
0.000776517
0.000289287
0.00010143
3.34888e-05
1.04789e-05
3.08818e-06
8.52172e-07
2.18835e-07
5.19979e-08
1.13765e-08
2.28321e-09
4.19318e-10
6.99992e-11
1.05105e-11
1.39968e-12
1.6238e-13
1.6043e-14
1.30812e-15
8.45849e-17
4.07369e-18
1.29444e-19
2.06319e-21
1
1
1
1
1
1
1
1
1
1
1
1
1
1
1
1
1
1
1
1
1
1
1
1
1
1
1
1
1
1
1
1
1
1
1
1
1
1
1
1
1
1
1
1
1
1
1
1
1
1
1
1
1
1
1
1
1
1
1
0.999998
0.999993
0.99997
0.999878
0.999506
0.998037
0.992361
0.971053
0.893721
0.681582
0.463841
0.296855
0.178681
0.101307
0.0541791
0.0273632
0.0130643
0.00590105
0.00252371
0.00102251
0.000392824
0.000143194
4.92354e-05
1.58809e-05
4.81082e-06
1.36725e-06
3.63994e-07
9.05965e-08
2.09489e-08
4.44004e-09
8.5153e-10
1.4643e-10
2.23677e-11
2.98992e-12
3.52007e-13
3.59958e-14
3.08774e-15
2.12393e-16
1.09263e-17
3.73923e-19
6.21071e-21
1
1
1
1
1
1
1
1
1
1
1
1
1
1
1
1
1
1
1
1
1
1
1
1
1
1
1
1
1
1
1
1
1
1
1
1
1
1
1
1
1
1
1
1
1
1
1
1
1
1
1
1
1
1
1
1
1
1
1
0.999999
0.999994
0.999977
0.999904
0.999615
0.998476
0.994089
0.977618
0.917651
0.731433
0.505796
0.329244
0.20174
0.116488
0.0634574
0.0326422
0.0158647
0.00728715
0.00316278
0.00129638
0.000500359
0.000182596
6.34107e-05
2.0822e-05
6.44446e-06
1.87563e-06
5.12296e-07
1.30965e-07
3.12129e-08
6.8939e-09
1.39497e-09
2.55766e-10
4.19159e-11
6.05403e-12
7.65387e-13
8.33501e-14
7.63175e-15
5.64576e-16
3.17095e-17
1.19626e-18
2.38439e-20
1
1
1
1
1
1
1
1
1
1
1
1
1
1
1
1
1
1
1
1
1
1
1
1
1
1
1
1
1
1
1
1
1
1
1
1
1
1
1
1
1
1
1
1
1
1
1
1
1
1
1
1
1
1
1
1
1
1
1
0.999999
0.999996
0.999982
0.999925
0.999701
0.998822
0.995446
0.982768
0.936479
0.779769
0.54955
0.363854
0.227063
0.133717
0.0743972
0.0391461
0.0194941
0.00919224
0.00410672
0.00173873
0.000699336
0.00026641
9.55068e-05
3.22615e-05
1.02588e-05
3.05722e-06
8.46704e-07
2.16393e-07
5.10356e-08
1.13676e-08
2.35756e-09
4.49867e-10
7.8023e-11
1.21304e-11
1.65576e-12
1.95079e-13
1.93913e-14
1.5679e-15
9.67638e-17
4.06522e-18
8.46293e-20
1
1
1
1
1
1
1
1
1
1
1
1
1
1
1
1
1
1
1
1
1
1
1
1
1
1
1
1
1
1
1
1
1
1
1
1
1
1
1
1
1
1
1
1
1
1
1
1
1
1
1
1
1
1
1
1
1
1
1
0.999999
0.999997
0.999986
0.999943
0.999771
0.999103
0.996536
0.986883
0.95152
0.826147
0.595412
0.400596
0.253991
0.152064
0.0860808
0.0461229
0.0234073
0.0112537
0.00512259
0.00220575
0.000895203
0.000342112
0.000124689
4.30873e-05
1.4063e-05
4.37592e-06
1.29067e-06
3.58287e-07
9.2473e-08
2.17818e-08
4.68313e-09
9.1344e-10
1.60251e-10
2.58136e-11
3.72995e-12
4.72799e-13
5.12481e-14
4.58985e-15
3.22137e-16
1.58313e-17
4.65844e-19
1
1
1
1
1
1
1
1
1
1
1
1
1
1
1
1
1
1
1
1
1
1
1
1
1
1
1
1
1
1
1
1
1
1
1
1
1
1
1
1
1
1
1
1
1
1
1
1
1
1
1
1
1
1
1
1
1
1
1
0.999999
0.999997
0.999989
0.999957
0.999828
0.999327
0.997404
0.990162
0.963525
0.868388
0.645293
0.441407
0.28472
0.173512
0.100051
0.0546606
0.0283284
0.0139423
0.00652273
0.00290148
0.00122742
0.000492608
0.0001857
6.55966e-05
2.16455e-05
6.62721e-06
1.9515e-06
5.47582e-07
1.45097e-07
3.5852e-08
8.20262e-09
1.72167e-09
3.28269e-10
5.64572e-11
8.72305e-12
1.19474e-12
1.42071e-13
1.42242e-14
1.13907e-15
6.61895e-17
2.07124e-18