/*--------------------------------*- C++ -*----------------------------------*\
| =========                 |                                                 |
| \\      /  F ield         | OpenFOAM: The Open Source CFD Toolbox           |
|  \\    /   O peration     | Version:  4.1                                   |
|   \\  /    A nd           | Web:      www.OpenFOAM.org                      |
|    \\/     M anipulation  |                                                 |
\*---------------------------------------------------------------------------*/
FoamFile
{
    version     2.0;
    format      ascii;
    class       volScalarField;
    location    "0.15";
    object      s_0;
}
// * * * * * * * * * * * * * * * * * * * * * * * * * * * * * * * * * * * * * //

dimensions      [0 0 0 0 0 0 0];

internalField   nonuniform List<scalar> 
43750
(
1
1
1
1
1
1
1
1
1
1
1
1
1
1
1
1
1
1
1
1
1
1
1
1
1
1
1
1
1
1
1
1
1
1
1
1
1
1
1
1
1
1
1
1
1
1
1
1
1
1
1
1
1
0.999999
0.999996
0.999978
0.999872
0.999284
0.996195
0.98128
0.916483
0.692572
0.422101
0.23677
0.122927
0.0592793
0.0265988
0.0111111
0.00432038
0.00156287
0.000525559
0.000164124
4.75357e-05
1.27489e-05
3.16015e-06
7.22343e-07
1.51861e-07
2.92769e-08
5.15839e-09
8.27516e-10
1.20363e-10
1.58e-11
1.8624e-12
1.96046e-13
1.83202e-14
1.51023e-15
1.09094e-16
6.85899e-18
3.72934e-19
1.74519e-20
7.03043e-22
2.47089e-23
7.90703e-25
2.50398e-26
8.44916e-28
2.92937e-29
9.15911e-31
2.24714e-32
3.71304e-34
3.05887e-36
1
1
1
1
1
1
1
1
1
1
1
1
1
1
1
1
1
1
1
1
1
1
1
1
1
1
1
1
1
1
1
1
1
1
1
1
1
1
1
1
1
1
1
1
1
1
1
1
1
1
1
1
1
1
1
0.999998
0.999987
0.999924
0.999597
0.998118
0.992476
0.976158
0.942116
0.87078
0.707491
0.514227
0.342129
0.209482
0.118611
0.0623393
0.0304986
0.0139175
0.00593213
0.0023637
0.000880802
0.00030695
9.99997e-05
3.04343e-05
8.64378e-06
2.2878e-06
5.63314e-07
1.28763e-07
2.72559e-08
5.32715e-09
9.58138e-10
1.57965e-10
2.37644e-11
3.2452e-12
3.99791e-13
4.41573e-14
4.35198e-15
3.78822e-16
2.87673e-17
1.87644e-18
1.03017e-19
4.62987e-21
1.63626e-22
4.26681e-24
7.30533e-26
6.16129e-28
1
1
1
1
1
1
1
1
1
1
1
1
1
1
1
1
1
1
1
1
1
1
1
1
1
1
1
1
1
1
1
1
1
1
1
1
1
1
1
1
1
1
1
1
1
1
1
1
1
1
1
1
1
1
1
0.999999
0.999997
0.999984
0.999928
0.999693
0.998794
0.99559
0.984498
0.945664
0.810328
0.569823
0.369502
0.222785
0.125148
0.0656116
0.032158
0.0147568
0.00634775
0.00256202
0.000970853
0.000345529
0.000115504
3.62567e-05
1.06815e-05
2.95102e-06
7.63684e-07
1.84852e-07
4.17737e-08
8.79389e-09
1.71981e-09
3.1145e-10
5.20255e-11
7.97889e-12
1.11722e-12
1.4182e-13
1.61729e-14
1.64083e-15
1.46283e-16
1.12793e-17
7.36624e-19
3.95957e-20
1.6807e-21
5.27712e-23
1.08843e-24
1.10417e-26
1
1
1
1
1
1
1
1
1
1
1
1
1
1
1
1
1
1
1
1
1
1
1
1
1
1
1
1
1
1
1
1
1
1
1
1
1
1
1
1
1
1
1
1
1
1
1
1
1
1
1
1
1
1
1
0.999999
0.999997
0.999984
0.999929
0.999693
0.998722
0.994849
0.979841
0.923496
0.737834
0.495993
0.310253
0.18088
0.0984742
0.0501649
0.0239559
0.0107401
0.00452587
0.00179412
0.000669405
0.000235135
7.77531e-05
2.41966e-05
7.08224e-06
1.94801e-06
5.02934e-07
1.21699e-07
2.75498e-08
5.82155e-09
1.14519e-09
2.09045e-10
3.52735e-11
5.47644e-12
7.78004e-13
1.00457e-13
1.16928e-14
1.21448e-15
1.11142e-16
8.80855e-18
5.91864e-19
3.27519e-20
1.43144e-21
4.62641e-23
9.8133e-25
1.02223e-26
1
1
1
1
1
1
1
1
1
1
1
1
1
1
1
1
1
1
1
1
1
1
1
1
1
1
1
1
1
1
1
1
1
1
1
1
1
1
1
1
1
1
1
1
1
1
1
1
1
1
1
1
1
1
1
0.999999
0.999996
0.999979
0.999904
0.99957
0.998126
0.992133
0.968395
0.879331
0.644292
0.418231
0.252503
0.142006
0.0745753
0.0366466
0.0168802
0.00729856
0.00296547
0.00113318
0.000407471
0.000137915
4.39408e-05
1.3176e-05
3.71674e-06
9.85595e-07
2.45449e-07
5.733e-08
1.25384e-08
2.56244e-09
4.88119e-10
8.64043e-11
1.41607e-11
2.13916e-12
2.96256e-13
3.73688e-14
4.25857e-15
4.34095e-16
3.90876e-17
3.06791e-18
2.05441e-19
1.13951e-20
5.01622e-22
1.63917e-23
3.52509e-25
3.72816e-27
1
1
1
1
1
1
1
1
1
1
1
1
1
1
1
1
1
1
1
1
1
1
1
1
1
1
1
1
1
1
1
1
1
1
1
1
1
1
1
1
1
1
1
1
1
1
1
1
1
1
1
1
1
1
1
0.999999
0.999996
0.999979
0.999899
0.999536
0.997952
0.991314
0.964815
0.86481
0.618408
0.396001
0.235454
0.13031
0.0672914
0.0324858
0.0146851
0.00622387
0.00247549
0.000924634
0.000324464
0.000106985
3.31442e-05
9.64484e-06
2.63486e-06
6.75251e-07
1.62173e-07
3.64538e-08
7.65707e-09
1.50001e-09
2.73411e-10
4.62375e-11
7.23004e-12
1.04101e-12
1.37324e-13
1.64944e-14
1.79024e-15
1.73905e-16
1.4937e-17
1.11673e-18
7.11744e-20
3.75737e-21
1.57551e-22
4.9113e-24
1.00963e-25
1.02308e-27
1
1
1
1
1
1
1
1
1
1
1
1
1
1
1
1
1
1
1
1
1
1
1
1
1
1
1
1
1
1
1
1
1
1
1
1
1
1
1
1
1
1
1
1
1
1
1
1
1
1
1
1
1
1
1
0.999999
0.999995
0.999977
0.999892
0.999511
0.997864
0.991023
0.963871
0.861714
0.613933
0.392486
0.23282
0.128478
0.0661078
0.0317754
0.014289
0.00601855
0.00237651
0.000880209
0.000305881
9.97336e-05
3.05104e-05
8.75166e-06
2.3522e-06
5.9181e-07
1.39213e-07
3.05717e-08
6.25622e-09
1.19049e-09
2.10117e-10
3.42938e-11
5.15758e-12
7.11743e-13
8.96725e-14
1.0252e-14
1.05569e-15
9.70101e-17
7.86244e-18
5.53535e-19
3.31705e-20
1.64488e-21
6.47714e-23
1.89709e-24
3.66876e-26
3.50397e-28
1
1
1
1
1
1
1
1
1
1
1
1
1
1
1
1
1
1
1
1
1
1
1
1
1
1
1
1
1
1
1
1
1
1
1
1
1
1
1
1
1
1
1
1
1
1
1
1
1
1
1
1
1
1
1
0.999999
0.999995
0.999978
0.999896
0.99953
0.997944
0.99135
0.965125
0.866226
0.619951
0.396252
0.234999
0.129617
0.0666504
0.0320121
0.0143833
0.00605254
0.00238734
0.000883101
0.000306425
9.9732e-05
3.04322e-05
8.70015e-06
2.32828e-06
5.8258e-07
1.36102e-07
2.96347e-08
6.00152e-09
1.12766e-09
1.96025e-10
3.14206e-11
4.62758e-12
6.23274e-13
7.6363e-14
8.45685e-15
8.40081e-16
7.41532e-17
5.74799e-18
3.8539e-19
2.19056e-20
1.02664e-21
3.80927e-23
1.04896e-24
1.90477e-26
1.7079e-28
1
1
1
1
1
1
1
1
1
1
1
1
1
1
1
1
1
1
1
1
1
1
1
1
1
1
1
1
1
1
1
1
1
1
1
1
1
1
1
1
1
1
1
1
1
1
1
1
1
1
1
1
1
1
1
0.999999
0.999996
0.999982
0.999914
0.99961
0.998278
0.992654
0.969957
0.883229
0.645089
0.412149
0.244358
0.134641
0.0691299
0.0331463
0.0148662
0.0062444
0.00245845
0.000907817
0.000314453
0.000102157
3.11172e-05
8.88106e-06
2.3727e-06
5.92647e-07
1.38185e-07
3.00223e-08
6.0645e-09
1.13607e-09
1.96776e-10
3.14041e-11
4.5966e-12
6.14045e-13
7.44387e-14
8.13415e-15
7.94767e-16
6.87588e-17
5.20364e-18
3.39383e-19
1.86914e-20
8.45545e-22
3.01732e-23
7.96537e-25
1.38298e-26
1.18362e-28
1
1
1
1
1
1
1
1
1
1
1
1
1
1
1
1
1
1
1
1
1
1
1
1
1
1
1
1
1
1
1
1
1
1
1
1
1
1
1
1
1
1
1
1
1
1
1
1
1
1
1
1
1
1
1
0.999999
0.999997
0.999985
0.999928
0.999667
0.998503
0.993522
0.973201
0.894905
0.666017
0.427169
0.254319
0.140675
0.0724811
0.0348615
0.0156793
0.00660275
0.00260563
0.000963891
0.00033432
0.000108708
3.31246e-05
9.45237e-06
2.52357e-06
6.29549e-07
1.46522e-07
3.17547e-08
6.39391e-09
1.19295e-09
2.05701e-10
3.26639e-11
4.75798e-12
6.32592e-13
7.63184e-14
8.29735e-15
8.0627e-16
6.9331e-17
5.21126e-18
3.36925e-19
1.83491e-20
8.18652e-22
2.8736e-23
7.44306e-25
1.26507e-26
1.058e-28
1
1
1
1
1
1
1
1
1
1
1
1
1
1
1
1
1
1
1
1
1
1
1
1
1
1
1
1
1
1
1
1
1
1
1
1
1
1
1
1
1
1
1
1
1
1
1
1
1
1
1
1
1
1
1
0.999999
0.999997
0.999986
0.999932
0.999684
0.998575
0.99381
0.974331
0.899133
0.674474
0.433831
0.259134
0.143864
0.0744171
0.0359415
0.016234
0.00686564
0.00272096
0.00101101
0.000352247
0.000115064
3.5224e-05
1.00981e-05
2.70839e-06
6.78716e-07
1.58663e-07
3.4533e-08
6.98175e-09
1.30765e-09
2.26069e-10
3.59411e-11
5.23256e-12
6.94202e-13
8.34432e-14
9.02479e-15
8.71039e-16
7.43128e-17
5.53874e-18
3.55127e-19
1.91929e-20
8.50133e-22
2.96344e-23
7.62419e-25
1.2874e-26
1.06993e-28
1
1
1
1
1
1
1
1
1
1
1
1
1
1
1
1
1
1
1
1
1
1
1
1
1
1
1
1
1
1
1
1
1
1
1
1
1
1
1
1
1
1
1
1
1
1
1
1
1
1
1
1
1
1
1
0.999999
0.999997
0.999987
0.999937
0.999707
0.99868
0.994266
0.97614
0.905785
0.687953
0.443835
0.265945
0.148141
0.0768922
0.0372649
0.0168897
0.0071676
0.00285049
0.00106287
0.000371648
0.00012185
3.74438e-05
1.07768e-05
2.90216e-06
7.30322e-07
1.71464e-07
3.74845e-08
7.61292e-09
1.43249e-09
2.48935e-10
3.98031e-11
5.83039e-12
7.78448e-13
9.41746e-14
1.0251e-14
9.95603e-16
8.537e-17
6.37955e-18
4.09058e-19
2.20548e-20
9.72496e-22
3.36854e-23
8.59842e-25
1.43872e-26
1.18448e-28
1
1
1
1
1
1
1
1
1
1
1
1
1
1
1
1
1
1
1
1
1
1
1
1
1
1
1
1
1
1
1
1
1
1
1
1
1
1
1
1
1
1
1
1
1
1
1
1
1
1
1
1
1
1
1
0.999999
0.999997
0.999988
0.999942
0.999735
0.998821
0.994907
0.978833
0.916236
0.711711
0.46169
0.277666
0.155148
0.0807471
0.0392322
0.0178259
0.00758425
0.00302418
0.00113073
0.000396499
0.000130378
4.01851e-05
1.16014e-05
3.13412e-06
7.9125e-07
1.86385e-07
4.08855e-08
8.33275e-09
1.57361e-09
2.74484e-10
4.40606e-11
6.48074e-12
8.69062e-13
1.05623e-13
1.15532e-14
1.12784e-15
9.72708e-17
7.31904e-18
4.72923e-19
2.57065e-20
1.143e-21
3.99205e-23
1.02723e-24
1.73207e-26
1.43494e-28
1
1
1
1
1
1
1
1
1
1
1
1
1
1
1
1
1
1
1
1
1
1
1
1
1
1
1
1
1
1
1
1
1
1
1
1
1
1
1
1
1
1
1
1
1
1
1
1
1
1
1
1
1
1
1
0.999999
0.999998
0.999988
0.999944
0.999748
0.998892
0.995278
0.980582
0.923565
0.731037
0.478193
0.289437
0.162631
0.0850543
0.0415029
0.0189313
0.00808391
0.00323467
0.00121357
0.000427
0.000140892
4.35781e-05
1.26264e-05
3.42365e-06
8.67647e-07
2.05187e-07
4.51928e-08
9.24933e-09
1.75429e-09
3.0738e-10
4.95724e-11
7.32714e-12
9.87607e-13
1.2068e-13
1.32759e-14
1.30391e-15
1.13189e-16
8.57649e-18
5.58348e-19
3.05942e-20
1.37189e-21
4.83395e-23
1.25517e-24
2.13567e-26
1.78592e-28
1
1
1
1
1
1
1
1
1
1
1
1
1
1
1
1
1
1
1
1
1
1
1
1
1
1
1
1
1
1
1
1
1
1
1
1
1
1
1
1
1
1
1
1
1
1
1
1
1
1
1
1
1
1
1
1
0.999998
0.999988
0.999946
0.999754
0.998925
0.995456
0.98148
0.927619
0.743308
0.490596
0.299307
0.16942
0.0892108
0.0438097
0.0201054
0.00863586
0.00347542
0.00131125
0.000463934
0.000153916
4.7863e-05
1.39416e-05
3.80015e-06
9.68085e-07
2.30126e-07
5.0948e-08
1.04812e-08
1.9983e-09
3.51973e-10
5.70652e-11
8.47992e-12
1.1492e-12
1.41197e-13
1.56186e-14
1.54246e-15
1.34633e-16
1.02575e-17
6.71487e-19
3.69995e-20
1.6685e-21
5.91264e-23
1.54403e-24
2.64206e-26
2.22184e-28
1
1
1
1
1
1
1
1
1
1
1
1
1
1
1
1
1
1
1
1
1
1
1
1
1
1
1
1
1
1
1
1
1
1
1
1
1
1
1
1
1
1
1
1
1
1
1
1
1
1
1
1
1
1
1
1
0.999998
0.999988
0.999946
0.999755
0.998928
0.995483
0.981674
0.928768
0.747831
0.497078
0.305589
0.174331
0.0924954
0.0457506
0.0211386
0.00913767
0.00369965
0.00140397
0.000499535
0.000166641
5.21031e-05
1.52593e-05
4.18208e-06
1.07127e-06
2.56089e-07
5.7023e-08
1.18008e-08
2.26378e-09
4.01319e-10
6.55128e-11
9.80692e-12
1.33966e-12
1.66045e-13
1.85473e-14
1.85192e-15
1.6359e-16
1.26243e-17
8.37698e-19
4.68184e-20
2.14275e-21
7.71023e-23
2.04529e-24
3.55612e-26
3.03905e-28
1
1
1
1
1
1
1
1
1
1
1
1
1
1
1
1
1
1
1
1
1
1
1
1
1
1
1
1
1
1
1
1
1
1
1
1
1
1
1
1
1
1
1
1
1
1
1
1
1
1
1
1
1
1
1
1
0.999998
0.999989
0.999947
0.999757
0.998935
0.995498
0.981715
0.928982
0.749069
0.500209
0.309403
0.177757
0.0950296
0.0473715
0.0220595
0.00961013
0.00392082
0.00149909
0.000537297
0.000180521
5.68352e-05
1.67574e-05
4.62264e-06
1.19159e-06
2.86578e-07
6.41818e-08
1.33553e-08
2.5752e-09
4.58695e-10
7.51977e-11
1.12978e-11
1.54778e-12
1.92213e-13
2.1486e-14
2.14377e-15
1.89538e-16
1.46599e-17
9.76051e-19
5.47851e-20
2.52005e-21
9.11949e-23
2.43409e-24
4.25976e-26
3.665e-28
1
1
1
1
1
1
1
1
1
1
1
1
1
1
1
1
1
1
1
1
1
1
1
1
1
1
1
1
1
1
1
1
1
1
1
1
1
1
1
1
1
1
1
1
1
1
1
1
1
1
1
1
1
1
1
1
0.999998
0.999989
0.999949
0.999765
0.998957
0.995563
0.981912
0.929612
0.751022
0.503253
0.312827
0.180847
0.0973756
0.0489166
0.0229617
0.0100845
0.00414791
0.00159884
0.00057771
0.000195678
6.21104e-05
1.84633e-05
5.1355e-06
1.33494e-06
3.23811e-07
7.31592e-08
1.53618e-08
2.9901e-09
5.37884e-10
8.91092e-11
1.35397e-11
1.8779e-12
2.36417e-13
2.6837e-14
2.72472e-15
2.44503e-16
1.91549e-17
1.28973e-18
7.31285e-20
3.39576e-21
1.24003e-22
3.33921e-24
5.89498e-26
5.11585e-28
1
1
1
1
1
1
1
1
1
1
1
1
1
1
1
1
1
1
1
1
1
1
1
1
1
1
1
1
1
1
1
1
1
1
1
1
1
1
1
1
1
1
1
1
1
1
1
1
1
1
1
1
1
1
1
1
0.999998
0.99999
0.999951
0.999775
0.998999
0.99571
0.982398
0.931183
0.755388
0.508337
0.317549
0.184644
0.100066
0.0506185
0.0239331
0.0105891
0.00438817
0.0017042
0.000620432
0.000211736
6.77144e-05
2.02809e-05
5.68355e-06
1.4885e-06
3.63761e-07
8.27959e-08
1.75129e-08
3.4333e-09
6.21902e-10
1.03704e-10
1.58511e-11
2.20957e-12
2.79213e-13
3.17597e-14
3.22494e-15
2.89498e-16
2.27323e-17
1.53881e-18
8.78681e-20
4.11258e-21
1.51431e-22
4.11236e-24
7.3213e-26
6.4069e-28
1
1
1
1
1
1
1
1
1
1
1
1
1
1
1
1
1
1
1
1
1
1
1
1
1
1
1
1
1
1
1
1
1
1
1
1
1
1
1
1
1
1
1
1
1
1
1
1
1
1
1
1
1
1
1
1
0.999998
0.99999
0.999954
0.999786
0.999047
0.995906
0.983155
0.933987
0.763034
0.515339
0.323198
0.188894
0.102997
0.0524589
0.0249865
0.0111404
0.00465301
0.00182143
0.00066839
0.000229913
7.41087e-05
2.23705e-05
6.31822e-06
1.66765e-06
4.1073e-07
9.42233e-08
2.00895e-08
3.97092e-09
7.2551e-10
1.22111e-10
1.88597e-11
2.66076e-12
3.41037e-13
3.94486e-14
4.08332e-15
3.74114e-16
2.99342e-17
2.05813e-18
1.19218e-19
5.65798e-21
2.11215e-22
5.81422e-24
1.049e-25
9.30026e-28
1
1
1
1
1
1
1
1
1
1
1
1
1
1
1
1
1
1
1
1
1
1
1
1
1
1
1
1
1
1
1
1
1
1
1
1
1
1
1
1
1
1
1
1
1
1
1
1
1
1
1
1
1
1
1
1
0.999998
0.999991
0.999959
0.99981
0.999147
0.996309
0.984665
0.939216
0.77717
0.526848
0.331053
0.19392
0.106122
0.0543295
0.0260399
0.0116928
0.0049217
0.0019426
0.000719076
0.000249591
8.12036e-05
2.47468e-05
7.05751e-06
1.88117e-06
4.6792e-07
1.08406e-07
2.33389e-08
4.65658e-09
8.58229e-10
1.4555e-10
2.26098e-11
3.19984e-12
4.10125e-13
4.72922e-14
4.87674e-15
4.46855e-16
3.58676e-17
2.47992e-18
1.44628e-19
6.91562e-21
2.60241e-22
7.2243e-24
1.31482e-25
1.17616e-27
1
1
1
1
1
1
1
1
1
1
1
1
1
1
1
1
1
1
1
1
1
1
1
1
1
1
1
1
1
1
1
1
1
1
1
1
1
1
1
1
1
1
1
1
1
1
1
1
1
1
1
1
1
1
1
1
0.999999
0.999993
0.999966
0.999843
0.999299
0.996962
0.9873
0.949212
0.807733
0.552298
0.347893
0.204243
0.112007
0.0574605
0.0276125
0.0124409
0.00525842
0.00208571
0.000776366
0.000271147
8.88102e-05
2.72601e-05
7.8337e-06
2.1049e-06
5.28016e-07
1.23428e-07
2.68282e-08
5.40877e-09
1.00854e-09
1.73371e-10
2.73747e-11
3.95259e-12
5.18792e-13
6.14137e-14
6.48931e-15
6.04683e-16
4.91631e-17
3.43702e-18
2.02516e-19
9.78052e-21
3.71701e-22
1.04205e-23
1.91509e-25
1.72955e-27
1
1
1
1
1
1
1
1
1
1
1
1
1
1
1
1
1
1
1
1
1
1
1
1
1
1
1
1
1
1
1
1
1
1
1
1
1
1
1
1
1
1
1
1
1
1
1
1
1
1
1
1
1
1
1
1
0.999999
0.999994
0.999972
0.999872
0.999429
0.997533
0.989691
0.958668
0.842456
0.588096
0.373375
0.220241
0.121195
0.0623623
0.0300567
0.013585
0.00576252
0.00229506
0.000858349
0.000301405
9.93263e-05
3.06965e-05
8.88757e-06
2.40754e-06
6.0918e-07
1.43693e-07
3.15214e-08
6.41255e-09
1.20576e-09
2.08727e-10
3.31087e-11
4.78678e-12
6.27296e-13
7.40893e-14
7.8315e-15
7.33646e-16
6.01384e-17
4.24448e-18
2.52626e-19
1.23288e-20
4.73715e-22
1.34384e-23
2.50196e-25
2.29195e-27
1
1
1
1
1
1
1
1
1
1
1
1
1
1
1
1
1
1
1
1
1
1
1
1
1
1
1
1
1
1
1
1
1
1
1
1
1
1
1
1
1
1
1
1
1
1
1
1
1
1
1
1
1
1
1
1
0.999999
0.999995
0.999977
0.999893
0.999526
0.997955
0.991463
0.965737
0.868925
0.624602
0.400308
0.238342
0.132173
0.0684491
0.0331692
0.0150616
0.00641515
0.0025645
0.000962433
0.000339066
0.000112095
3.47537e-05
1.00952e-05
2.74412e-06
6.9694e-07
1.65075e-07
3.63825e-08
7.44177e-09
1.40839e-09
2.45768e-10
3.93857e-11
5.76909e-12
7.68006e-13
9.22745e-14
9.92004e-15
9.44204e-16
7.8539e-17
5.61656e-18
3.3809e-19
1.66481e-20
6.43613e-22
1.83151e-23
3.41578e-25
3.13274e-27
1
1
1
1
1
1
1
1
1
1
1
1
1
1
1
1
1
1
1
1
1
1
1
1
1
1
1
1
1
1
1
1
1
1
1
1
1
1
1
1
1
1
1
1
1
1
1
1
1
1
1
1
1
1
1
1
0.999999
0.999996
0.99998
0.99991
0.999601
0.998277
0.992784
0.970932
0.888232
0.657463
0.425754
0.256471
0.143859
0.0753213
0.0368852
0.0169203
0.00727889
0.00293848
0.00111359
0.000396161
0.00013226
4.1412e-05
1.215e-05
3.33628e-06
8.56132e-07
2.0495e-07
4.56765e-08
9.45456e-09
1.81135e-09
3.20005e-10
5.19102e-11
7.69399e-12
1.03592e-12
1.25822e-13
1.3672e-14
1.31589e-15
1.10807e-16
8.03624e-18
4.91635e-19
2.46583e-20
9.73004e-22
2.83021e-23
5.38562e-25
5.02462e-27
1
1
1
1
1
1
1
1
1
1
1
1
1
1
1
1
1
1
1
1
1
1
1
1
1
1
1
1
1
1
1
1
1
1
1
1
1
1
1
1
1
1
1
1
1
1
1
1
1
1
1
1
1
1
1
1
0.999999
0.999996
0.999983
0.999925
0.999664
0.998544
0.993878
0.9752
0.904042
0.688403
0.449655
0.273353
0.154735
0.0817373
0.0403707
0.0186724
0.00809675
0.00329396
0.0012577
0.000450715
0.00015155
4.77819e-05
1.41127e-05
3.8996e-06
1.00638e-06
2.42056e-07
5.41188e-08
1.12196e-08
2.15654e-09
3.82625e-10
6.23772e-11
9.29549e-12
1.25868e-12
1.53784e-13
1.68138e-14
1.62884e-15
1.38111e-16
1.00914e-17
6.22972e-19
3.15843e-20
1.26209e-21
3.72514e-23
7.21536e-25
6.87375e-27
1
1
1
1
1
1
1
1
1
1
1
1
1
1
1
1
1
1
1
1
1
1
1
1
1
1
1
1
1
1
1
1
1
1
1
1
1
1
1
1
1
1
1
1
1
1
1
1
1
1
1
1
1
1
1
1
0.999999
0.999997
0.999986
0.999935
0.99971
0.998748
0.994748
0.978726
0.917489
0.719221
0.474973
0.29177
0.166952
0.0891681
0.0445371
0.0208348
0.00913881
0.00376128
0.00145307
0.000526944
0.000179336
5.72505e-05
1.71305e-05
4.79952e-06
1.25742e-06
3.07546e-07
7.00846e-08
1.4837e-08
2.90236e-09
5.22671e-10
8.62498e-11
1.29744e-11
1.76866e-12
2.16992e-13
2.37657e-14
2.30091e-15
1.94536e-16
1.41436e-17
8.69964e-19
4.40014e-20
1.75593e-21
5.18044e-23
1.00383e-24
9.57653e-27
1
1
1
1
1
1
1
1
1
1
1
1
1
1
1
1
1
1
1
1
1
1
1
1
1
1
1
1
1
1
1
1
1
1
1
1
1
1
1
1
1
1
1
1
1
1
1
1
1
1
1
1
1
1
1
1
0.999999
0.999997
0.999987
0.999942
0.999741
0.998886
0.995354
0.981277
0.927558
0.745682
0.498361
0.309263
0.17874
0.0964129
0.0486326
0.0229769
0.0101795
0.00423194
0.00165145
0.000604886
0.000207864
6.69675e-05
2.02065e-05
5.70342e-06
1.50388e-06
3.69841e-07
8.4667e-08
1.80052e-08
3.55e-09
6.47647e-10
1.08909e-10
1.67812e-11
2.35321e-12
2.97988e-13
3.37706e-14
3.38904e-15
2.97315e-16
2.24333e-17
1.42165e-18
7.36008e-20
2.98955e-21
8.93434e-23
1.74643e-24
1.675e-26
1
1
1
1
1
1
1
1
1
1
1
1
1
1
1
1
1
1
1
1
1
1
1
1
1
1
1
1
1
1
1
1
1
1
1
1
1
1
1
1
1
1
1
1
1
1
1
1
1
1
1
1
1
1
1
1
0.999999
0.999998
0.999989
0.999948
0.999769
0.999004
0.995844
0.983268
0.935285
0.767914
0.51989
0.326371
0.190846
0.104154
0.0531524
0.0254068
0.0113898
0.0047931
0.00189439
0.000703265
0.000245152
8.01849e-05
2.45783e-05
7.04695e-06
1.88546e-06
4.69657e-07
1.08634e-07
2.32623e-08
4.59538e-09
8.34335e-10
1.39627e-10
2.14496e-11
3.00621e-12
3.81447e-13
4.34238e-14
4.38736e-15
3.88287e-16
2.96109e-17
1.90424e-18
1.00307e-19
4.15226e-21
1.2658e-22
2.52481e-24
2.47068e-26
1
1
1
1
1
1
1
1
1
1
1
1
1
1
1
1
1
1
1
1
1
1
1
1
1
1
1
1
1
1
1
1
1
1
1
1
1
1
1
1
1
1
1
1
1
1
1
1
1
1
1
1
1
1
1
1
1
0.999998
0.99999
0.999955
0.9998
0.999135
0.996371
0.985305
0.942839
0.79045
0.541496
0.343312
0.202849
0.111906
0.0577342
0.0278961
0.0126385
0.00537379
0.00214565
0.000804792
0.000283602
9.38867e-05
2.91927e-05
8.52407e-06
2.33355e-06
5.97007e-07
1.42282e-07
3.14852e-08
6.44534e-09
1.21544e-09
2.09328e-10
3.28025e-11
4.65686e-12
5.95648e-13
6.8148e-14
6.9091e-15
6.13296e-16
4.69267e-17
3.03213e-18
1.60821e-19
6.71866e-21
2.07145e-22
4.18627e-24
4.15622e-26
1
1
1
1
1
1
1
1
1
1
1
1
1
1
1
1
1
1
1
1
1
1
1
1
1
1
1
1
1
1
1
1
1
1
1
1
1
1
1
1
1
1
1
1
1
1
1
1
1
1
1
1
1
1
1
1
1
0.999998
0.999992
0.999962
0.999833
0.999274
0.996942
0.987539
0.951188
0.817696
0.568178
0.363776
0.21708
0.121036
0.0631527
0.0308741
0.0141555
0.00609028
0.00245937
0.000932029
0.000331321
0.000110389
3.44303e-05
1.00324e-05
2.74057e-06
7.02413e-07
1.68262e-07
3.75293e-08
7.76228e-09
1.48228e-09
2.59863e-10
4.15669e-11
6.02923e-12
7.87675e-13
9.19506e-14
9.49923e-15
8.58028e-16
6.67205e-17
4.37589e-18
2.35345e-19
9.96317e-21
3.11183e-22
6.37097e-24
6.40993e-26
1
1
1
1
1
1
1
1
1
1
1
1
1
1
1
1
1
1
1
1
1
1
1
1
1
1
1
1
1
1
1
1
1
1
1
1
1
1
1
1
1
1
1
1
1
1
1
1
1
1
1
1
1
1
1
1
1
0.999999
0.999993
0.999969
0.999862
0.9994
0.997464
0.989623
0.959125
0.846153
0.598912
0.387346
0.23339
0.131435
0.0693111
0.0342755
0.0159126
0.00694077
0.00284551
0.00109652
0.000397044
0.000135006
4.30703e-05
1.28812e-05
3.5977e-06
9.37277e-07
2.27715e-07
5.14135e-08
1.07579e-08
2.07987e-09
3.70192e-10
6.03543e-11
8.95447e-12
1.19951e-12
1.43737e-13
1.52282e-14
1.40718e-15
1.11545e-16
7.42576e-18
4.03482e-19
1.71752e-20
5.36951e-22
1.09613e-23
1.10343e-25
1
1
1
1
1
1
1
1
1
1
1
1
1
1
1
1
1
1
1
1
1
1
1
1
1
1
1
1
1
1
1
1
1
1
1
1
1
1
1
1
1
1
1
1
1
1
1
1
1
1
1
1
1
1
1
1
1
0.999999
0.999994
0.999974
0.999887
0.999508
0.997918
0.991449
0.966133
0.871631
0.633487
0.413155
0.251408
0.142981
0.0761426
0.0380232
0.0178251
0.00785133
0.00325099
0.00126574
0.000463311
0.000159349
5.14372e-05
1.55537e-05
4.38893e-06
1.15123e-06
2.80288e-07
6.37434e-08
1.34717e-08
2.63281e-09
4.73701e-10
7.8084e-11
1.17226e-11
1.59128e-12
1.93879e-13
2.10488e-14
2.00604e-15
1.64898e-16
1.14337e-17
6.49192e-19
2.89368e-20
9.48222e-22
2.028e-23
2.11505e-25
1
1
1
1
1
1
1
1
1
1
1
1
1
1
1
1
1
1
1
1
1
1
1
1
1
1
1
1
1
1
1
1
1
1
1
1
1
1
1
1
1
1
1
1
1
1
1
1
1
1
1
1
1
1
1
1
1
0.999999
0.999995
0.999978
0.999905
0.999593
0.998288
0.992995
0.972252
0.894478
0.672729
0.442667
0.272146
0.156429
0.0842316
0.0425507
0.0201859
0.00899859
0.00377081
0.00148552
0.000550157
0.00019152
6.26651e-05
1.92737e-05
5.57598e-06
1.51416e-06
3.83597e-07
8.99456e-08
1.94822e-08
3.88272e-09
7.08516e-10
1.17742e-10
1.77138e-11
2.39629e-12
2.88977e-13
3.11338e-14
2.95687e-15
2.43348e-16
1.69678e-17
9.72704e-19
4.39358e-20
1.46359e-21
3.1914e-23
3.41146e-25
1
1
1
1
1
1
1
1
1
1
1
1
1
1
1
1
1
1
1
1
1
1
1
1
1
1
1
1
1
1
1
1
1
1
1
1
1
1
1
1
1
1
1
1
1
1
1
1
1
1
1
1
1
1
1
1
1
0.999999
0.999996
0.999981
0.999916
0.999645
0.998531
0.994086
0.976868
0.912631
0.71234
0.475177
0.295729
0.171935
0.0936029
0.0478142
0.0229507
0.0103607
0.00440033
0.00175797
0.000660197
0.000232788
7.69443e-05
2.37944e-05
6.86866e-06
1.8538e-06
4.70515e-07
1.11627e-07
2.4699e-08
5.07947e-09
9.6416e-10
1.6776e-10
2.65558e-11
3.79264e-12
4.83991e-13
5.4185e-14
5.26626e-15
4.3799e-16
3.05734e-17
1.74348e-18
7.80627e-20
2.58012e-21
5.62729e-23
6.05494e-25
1
1
1
1
1
1
1
1
1
1
1
1
1
1
1
1
1
1
1
1
1
1
1
1
1
1
1
1
1
1
1
1
1
1
1
1
1
1
1
1
1
1
1
1
1
1
1
1
1
1
1
1
1
1
1
1
1
0.999999
0.999996
0.999983
0.999925
0.999683
0.998695
0.99479
0.979826
0.924442
0.743317
0.505234
0.319932
0.189017
0.104396
0.0540211
0.0262406
0.0119835
0.00515099
0.00208547
0.000795492
0.000285805
9.66149e-05
3.06646e-05
9.10373e-06
2.51647e-06
6.44684e-07
1.53082e-07
3.35775e-08
6.82862e-09
1.29069e-09
2.24997e-10
3.5882e-11
5.18896e-12
6.73693e-13
7.78401e-14
7.8892e-15
6.88581e-16
5.05848e-17
3.03481e-18
1.42498e-19
4.89691e-21
1.09115e-22
1.18415e-24
1
1
1
1
1
1
1
1
1
1
1
1
1
1
1
1
1
1
1
1
1
1
1
1
1
1
1
1
1
1
1
1
1
1
1
1
1
1
1
1
1
1
1
1
1
1
1
1
1
1
1
1
1
1
1
1
1
0.999999
0.999997
0.999986
0.999937
0.999729
0.998873
0.995454
0.982261
0.933181
0.766899
0.529657
0.341217
0.205368
0.115569
0.0608845
0.0300674
0.013935
0.00606649
0.00248254
0.000955521
0.000346102
0.000118068
3.7981e-05
1.15424e-05
3.30167e-06
8.82689e-07
2.19548e-07
5.05635e-08
1.06846e-08
2.05871e-09
3.60814e-10
5.72753e-11
8.18483e-12
1.05074e-12
1.21003e-13
1.2298e-14
1.08297e-15
8.07468e-17
4.94407e-18
2.38107e-19
8.4391e-21
1.95163e-22
2.20649e-24
1
1
1
1
1
1
1
1
1
1
1
1
1
1
1
1
1
1
1
1
1
1
1
1
1
1
1
1
1
1
1
1
1
1
1
1
1
1
1
1
1
1
1
1
1
1
1
1
1
1
1
1
1
1
1
1
1
0.999999
0.999997
0.999988
0.999949
0.999781
0.999077
0.996227
0.985066
0.94301
0.794318
0.555196
0.361829
0.220928
0.126456
0.0678984
0.0342228
0.0162013
0.00720584
0.00301085
0.00118126
0.000434792
0.000149949
4.83715e-05
1.45629e-05
4.12177e-06
1.10198e-06
2.7699e-07
6.51539e-08
1.42587e-08
2.88266e-09
5.34614e-10
9.02747e-11
1.37644e-11
1.87131e-12
2.23552e-13
2.32453e-14
2.07419e-15
1.55668e-16
9.54376e-18
4.59093e-19
1.62103e-20
3.78403e-22
4.35592e-24
1
1
1
1
1
1
1
1
1
1
1
1
1
1
1
1
1
1
1
1
1
1
1
1
1
1
1
1
1
1
1
1
1
1
1
1
1
1
1
1
1
1
1
1
1
1
1
1
1
1
1
1
1
1
1
1
1
1
0.999998
0.999991
0.99996
0.999827
0.999269
0.996991
0.987981
0.953686
0.828801
0.588171
0.386802
0.238384
0.137936
0.0750057
0.03836
0.0184638
0.008368
0.00357139
0.00143512
0.000542473
0.000192524
6.40139e-05
1.98897e-05
5.74049e-06
1.53355e-06
3.80335e-07
8.86674e-08
1.93199e-08
3.9122e-09
7.31244e-10
1.25184e-10
1.94567e-11
2.71723e-12
3.36409e-13
3.64156e-14
3.39019e-15
2.65761e-16
1.70876e-17
8.59661e-19
3.17694e-20
7.65678e-22
9.06005e-24
1
1
1
1
1
1
1
1
1
1
1
1
1
1
1
1
1
1
1
1
1
1
1
1
1
1
1
1
1
1
1
1
1
1
1
1
1
1
1
1
1
1
1
1
1
1
1
1
1
1
1
1
1
1
1
1
1
1
0.999998
0.999993
0.999969
0.999865
0.99943
0.997649
0.990572
0.963436
0.863786
0.628748
0.417771
0.260239
0.152258
0.0837675
0.0433737
0.021151
0.00971905
0.00421028
0.00172001
0.00066322
0.000241808
8.31371e-05
2.68852e-05
8.14641e-06
2.30399e-06
6.05129e-07
1.46178e-07
3.25165e-08
6.65428e-09
1.24966e-09
2.14463e-10
3.34277e-11
4.69323e-12
5.87225e-13
6.45351e-14
6.11532e-15
4.88044e-16
3.18999e-17
1.65425e-18
6.33712e-20
1.58579e-21
1.94011e-23
1
1
1
1
1
1
1
1
1
1
1
1
1
1
1
1
1
1
1
1
1
1
1
1
1
1
1
1
1
1
1
1
1
1
1
1
1
1
1
1
1
1
1
1
1
1
1
1
1
1
1
1
1
1
1
1
1
1
0.999999
0.999994
0.999976
0.999896
0.999561
0.99819
0.992726
0.971659
0.893674
0.675967
0.452989
0.285254
0.168833
0.0940432
0.0493397
0.0243923
0.011364
0.00498719
0.00206032
0.0007996
0.000290375
0.000100028
3.25611e-05
9.98002e-06
2.86929e-06
7.70779e-07
1.9221e-07
4.4291e-08
9.39309e-09
1.82608e-09
3.23894e-10
5.21033e-11
7.54327e-12
9.73171e-13
1.10438e-13
1.08388e-14
8.9972e-16
6.13702e-17
3.2981e-18
1.30993e-19
3.4056e-21
4.34679e-23
1
1
1
1
1
1
1
1
1
1
1
1
1
1
1
1
1
1
1
1
1
1
1
1
1
1
1
1
1
1
1
1
1
1
1
1
1
1
1
1
1
1
1
1
1
1
1
1
1
1
1
1
1
1
1
1
1
1
0.999999
0.999996
0.999981
0.999919
0.999662
0.998615
0.994445
0.978341
0.918464
0.72813
0.494171
0.314791
0.188488
0.106282
0.0565196
0.028375
0.0134568
0.00603114
0.00255444
0.00102306
0.00038753
0.000137408
4.5687e-05
1.42597e-05
4.173e-06
1.14351e-06
2.92813e-07
6.97323e-08
1.53551e-08
3.09063e-09
5.61873e-10
9.18197e-11
1.3414e-11
1.75308e-12
2.03381e-13
2.05208e-14
1.75855e-15
1.24138e-16
6.91513e-18
2.84547e-19
7.68161e-21
1.01372e-22
1
1
1
1
1
1
1
1
1
1
1
1
1
1
1
1
1
1
1
1
1
1
1
1
1
1
1
1
1
1
1
1
1
1
1
1
1
1
1
1
1
1
1
1
1
1
1
1
1
1
1
1
1
1
1
1
1
1
0.999999
0.999997
0.999985
0.999937
0.999737
0.99893
0.995732
0.983414
0.937559
0.779252
0.539723
0.348916
0.211693
0.120814
0.0649791
0.0329816
0.0158117
0.00716201
0.00306483
0.001238
0.000471783
0.000169411
5.72011e-05
1.81042e-05
5.39317e-06
1.50605e-06
3.93126e-07
9.55978e-08
2.15552e-08
4.5051e-09
8.79252e-10
1.55972e-10
2.47091e-11
3.43914e-12
4.14883e-13
4.27286e-14
3.69225e-15
2.6698e-16
1.53756e-17
6.58544e-19
1.85503e-20
2.5852e-22
1
1
1
1
1
1
1
1
1
1
1
1
1
1
1
1
1
1
1
1
1
1
1
1
1
1
1
1
1
1
1
1
1
1
1
1
1
1
1
1
1
1
1
1
1
1
1
1
1
1
1
1
1
1
1
1
1
1
0.999999
0.999997
0.999988
0.999951
0.999795
0.999169
0.996696
0.987178
0.951687
0.824391
0.585678
0.385749
0.238122
0.138156
0.0754904
0.0389138
0.018949
0.00872424
0.00379997
0.00156561
0.000609983
0.000224767
7.83754e-05
2.58452e-05
7.99369e-06
2.31254e-06
6.22975e-07
1.55242e-07
3.54529e-08
7.38064e-09
1.40508e-09
2.47508e-10
3.99558e-11
5.79504e-12
7.40189e-13
8.16882e-14
7.61807e-15
5.83332e-16
3.53931e-17
1.59287e-18
4.72639e-20
6.83195e-22
1
1
1
1
1
1
1
1
1
1
1
1
1
1
1
1
1
1
1
1
1
1
1
1
1
1
1
1
1
1
1
1
1
1
1
1
1
1
1
1
1
1
1
1
1
1
1
1
1
1
1
1
1
1
1
1
1
1
1
0.999998
0.999991
0.999962
0.999842
0.999359
0.997447
0.99007
0.962461
0.862751
0.631651
0.42354
0.266268
0.157307
0.0874875
0.0458733
0.0227046
0.0106169
0.00469277
0.00196083
0.00077411
0.000288352
0.00010109
3.33717e-05
1.04409e-05
3.07659e-06
8.48871e-07
2.17961e-07
5.17855e-08
1.13294e-08
2.27365e-09
4.17527e-10
6.96914e-11
1.04628e-11
1.39313e-12
1.61601e-13
1.59645e-14
1.30162e-15
8.41588e-17
4.05291e-18
1.28775e-19
2.05241e-21
1
1
1
1
1
1
1
1
1
1
1
1
1
1
1
1
1
1
1
1
1
1
1
1
1
1
1
1
1
1
1
1
1
1
1
1
1
1
1
1
1
1
1
1
1
1
1
1
1
1
1
1
1
1
1
1
1
1
1
0.999998
0.999993
0.99997
0.999878
0.999504
0.998026
0.992322
0.970911
0.893212
0.680668
0.463135
0.296342
0.178338
0.101094
0.0540551
0.0272959
0.01303
0.00588464
0.00251631
0.00101935
0.000391552
0.000142709
4.90626e-05
1.58231e-05
4.79271e-06
1.36194e-06
3.62549e-07
9.0232e-08
2.08637e-08
4.42171e-09
8.47947e-10
1.45803e-10
2.227e-11
2.97652e-12
3.50365e-13
3.58234e-14
3.07264e-15
2.11337e-16
1.08712e-17
3.72011e-19
6.17853e-21
1
1
1
1
1
1
1
1
1
1
1
1
1
1
1
1
1
1
1
1
1
1
1
1
1
1
1
1
1
1
1
1
1
1
1
1
1
1
1
1
1
1
1
1
1
1
1
1
1
1
1
1
1
1
1
1
1
1
1
0.999999
0.999994
0.999977
0.999904
0.999613
0.998468
0.994059
0.977506
0.917251
0.730524
0.505046
0.328688
0.20136
0.116247
0.0633144
0.0325631
0.0158237
0.00726719
0.00315365
0.00129245
0.000498775
0.000181989
6.31909e-05
2.07469e-05
6.4204e-06
1.86839e-06
5.10258e-07
1.30429e-07
3.10798e-08
6.86322e-09
1.38856e-09
2.54561e-10
4.1716e-11
6.02533e-12
7.61759e-13
8.29501e-14
7.59458e-15
5.61787e-16
3.15506e-17
1.19019e-18
2.37212e-20
1
1
1
1
1
1
1
1
1
1
1
1
1
1
1
1
1
1
1
1
1
1
1
1
1
1
1
1
1
1
1
1
1
1
1
1
1
1
1
1
1
1
1
1
1
1
1
1
1
1
1
1
1
1
1
1
1
1
1
0.999999
0.999996
0.999982
0.999925
0.999699
0.998816
0.995422
0.982681
0.936167
0.778901
0.548763
0.363254
0.226643
0.133444
0.074232
0.0390524
0.0194443
0.00916736
0.004095
0.00173353
0.000697148
0.000265542
9.51832e-05
3.21479e-05
1.02213e-05
3.04571e-06
8.4342e-07
2.1553e-07
5.0826e-08
1.13195e-08
2.34725e-09
4.47845e-10
7.76646e-11
1.20736e-11
1.64791e-12
1.94142e-13
1.9297e-14
1.56018e-15
9.62815e-17
4.04471e-18
8.41973e-20
1
1
1
1
1
1
1
1
1
1
1
1
1
1
1
1
1
1
1
1
1
1
1
1
1
1
1
1
1
1
1
1
1
1
1
1
1
1
1
1
1
1
1
1
1
1
1
1
1
1
1
1
1
1
1
1
1
1
1
0.999999
0.999997
0.999986
0.999942
0.99977
0.999098
0.996518
0.986817
0.95128
0.825347
0.594599
0.399953
0.253531
0.151759
0.0858922
0.0460137
0.023348
0.0112234
0.00510802
0.00219916
0.000892399
0.000341
0.000124269
4.29371e-05
1.40122e-05
4.35936e-06
1.28562e-06
3.56852e-07
9.20974e-08
2.16922e-08
4.66359e-09
9.09557e-10
1.59546e-10
2.56967e-11
3.71265e-12
4.70565e-13
5.10019e-14
4.56748e-15
3.20546e-16
1.5752e-17
4.63481e-19
1
1
1
1
1
1
1
1
1
1
1
1
1
1
1
1
1
1
1
1
1
1
1
1
1
1
1
1
1
1
1
1
1
1
1
1
1
1
1
1
1
1
1
1
1
1
1
1
1
1
1
1
1
1
1
1
1
1
1
0.999999
0.999997
0.999989
0.999956
0.999827
0.999324
0.997391
0.990111
0.963342
0.867746
0.644405
0.440721
0.284218
0.173172
0.0998367
0.0545337
0.0282579
0.0139054
0.00650448
0.00289295
0.00122366
0.000491041
0.00018509
6.53748e-05
2.15705e-05
6.60337e-06
1.9442e-06
5.45455e-07
1.44515e-07
3.57049e-08
8.16807e-09
1.71429e-09
3.2684e-10
5.6206e-11
8.68335e-12
1.18919e-12
1.41399e-13
1.41558e-14
1.13351e-15
6.5862e-17
2.06084e-18
4.03688e-112
1.18717e-109