/*--------------------------------*- C++ -*----------------------------------*\
| =========                 |                                                 |
| \\      /  F ield         | OpenFOAM: The Open Source CFD Toolbox           |
|  \\    /   O peration     | Version:  4.1                                   |
|   \\  /    A nd           | Web:      www.OpenFOAM.org                      |
|    \\/     M anipulation  |                                                 |
\*---------------------------------------------------------------------------*/
FoamFile
{
    version     2.0;
    format      ascii;
    class       volVectorField;
    location    "0.15";
    object      U_0;
}
// * * * * * * * * * * * * * * * * * * * * * * * * * * * * * * * * * * * * * //

dimensions      [0 1 -1 0 0 0 0];

internalField   nonuniform List<vector> 
43750
(
(10.0277 -0.00899628 0)
(10.0613 0.0179363 0)
(10.0384 0.0394476 0)
(10.0137 0.045541 0)
(9.98948 0.0420489 0)
(9.97901 0.02391 0)
(9.98112 0.0109216 0)
(9.97645 0.0184833 0)
(9.95473 0.0323783 0)
(9.92408 0.0327718 0)
(9.89801 0.0191474 0)
(9.88204 0.00712687 0)
(9.87082 0.0110809 0)
(9.85392 0.0310832 0)
(9.8239 0.0524306 0)
(9.78239 0.0569689 0)
(9.73967 0.0376868 0)
(9.70694 0.00576722 0)
(9.68715 -0.0174211 0)
(9.67175 -0.0163181 0)
(9.64623 0.00757731 0)
(9.60034 0.038153 0)
(9.53508 0.0568202 0)
(9.46111 0.0542247 0)
(9.3914 0.0342703 0)
(9.3352 0.0111447 0)
(9.29546 0.000211315 0)
(9.26762 0.00906412 0)
(9.24077 0.0330003 0)
(9.20286 0.0567824 0)
(9.14833 0.0646729 0)
(9.08192 0.0526268 0)
(9.01424 0.0317206 0)
(8.95226 0.0190788 0)
(8.89382 0.0239021 0)
(8.83104 0.0409424 0)
(8.75833 0.0570106 0)
(8.67656 0.0632563 0)
(8.59005 0.0608224 0)
(8.50144 0.0556814 0)
(8.41099 0.0503646 0)
(8.3197 0.0425488 0)
(8.23052 0.0312403 0)
(8.14525 0.0216236 0)
(8.061 0.021492 0)
(7.97188 0.0329937 0)
(7.87474 0.0497107 0)
(7.77246 0.0630172 0)
(7.66982 0.0706668 0)
(7.56633 0.077657 0)
(7.45461 0.0885722 0)
(7.32717 0.100744 0)
(7.18507 0.106657 0)
(7.03826 0.103509 0)
(6.89612 0.0991378 0)
(6.75665 0.106285 0)
(6.60517 0.130017 0)
(6.42467 0.160887 0)
(6.20955 0.181491 0)
(5.97052 0.1805 0)
(5.72712 0.160199 0)
(5.49608 0.132104 0)
(5.28508 0.107627 0)
(5.0935 0.0923048 0)
(4.91596 0.0857107 0)
(4.74597 0.0846983 0)
(4.57816 0.0862464 0)
(4.40916 0.0884127 0)
(4.23726 0.0903555 0)
(4.06186 0.0918969 0)
(3.88295 0.093098 0)
(3.70073 0.0940371 0)
(3.51552 0.0947296 0)
(3.32766 0.095135 0)
(3.13754 0.0951901 0)
(2.94563 0.0948186 0)
(2.75249 0.0939393 0)
(2.55877 0.092477 0)
(2.36523 0.0903571 0)
(2.17276 0.0875059 0)
(1.98234 0.0838586 0)
(1.79508 0.0793621 0)
(1.61216 0.073987 0)
(1.43483 0.0677324 0)
(1.26439 0.0606242 0)
(1.10211 0.0527268 0)
(0.949234 0.0441423 0)
(0.806881 0.0350115 0)
(0.676017 0.0255073 0)
(0.557412 0.0158303 0)
(0.451581 0.00621363 0)
(0.358751 -0.00308767 0)
(0.278849 -0.0118432 0)
(0.211478 -0.0198534 0)
(0.155931 -0.0269404 0)
(0.111138 -0.0329753 0)
(0.0758069 -0.0378517 0)
(0.0481294 -0.0415972 0)
(0.0264937 -0.0443053 0)
(0.0083615 -0.0454267 0)
(10.0267 -0.0817817 0)
(10.0625 -0.00276223 0)
(10.0525 0.00475029 0)
(10.0631 -0.00177195 0)
(10.0593 -0.00989273 0)
(10.0384 -0.0152536 0)
(10.0205 -0.00875733 0)
(10.0173 0.00657062 0)
(10.0193 0.0194593 0)
(10.011 0.0240142 0)
(9.98886 0.0226231 0)
(9.96216 0.0193534 0)
(9.94161 0.016077 0)
(9.93022 0.0147778 0)
(9.92285 0.0183817 0)
(9.91065 0.0275081 0)
(9.88689 0.0386778 0)
(9.85101 0.0473058 0)
(9.80891 0.0521726 0)
(9.77001 0.0560761 0)
(9.74264 0.062352 0)
(9.7293 0.0715677 0)
(9.72398 0.081741 0)
(9.7141 0.0900658 0)
(9.68741 0.0929547 0)
(9.63876 0.0860441 0)
(9.57319 0.0680386 0)
(9.50526 0.0453657 0)
(9.45165 0.0307197 0)
(9.42077 0.0344302 0)
(9.4063 0.0553463 0)
(9.38946 0.0810075 0)
(9.35159 0.0976256 0)
(9.28897 0.100646 0)
(9.21621 0.0961977 0)
(9.15416 0.0933707 0)
(9.11378 0.0964471 0)
(9.08988 0.104064 0)
(9.06831 0.113221 0)
(9.03767 0.122252 0)
(8.99418 0.130565 0)
(8.93787 0.137558 0)
(8.86778 0.142924 0)
(8.7834 0.147236 0)
(8.68963 0.150926 0)
(8.59713 0.152547 0)
(8.51545 0.149485 0)
(8.4457 0.141722 0)
(8.38071 0.134527 0)
(8.3125 0.135637 0)
(8.23919 0.148337 0)
(8.16416 0.167242 0)
(8.08957 0.18189 0)
(8.01262 0.185579 0)
(7.92837 0.181695 0)
(7.83582 0.182097 0)
(7.73998 0.197991 0)
(7.64704 0.230491 0)
(7.55863 0.269186 0)
(7.4709 0.299717 0)
(7.37797 0.312977 0)
(7.27568 0.308898 0)
(7.16288 0.293919 0)
(7.04011 0.276144 0)
(6.90842 0.261738 0)
(6.76905 0.253431 0)
(6.62291 0.251149 0)
(6.47066 0.253267 0)
(6.31287 0.257866 0)
(6.15007 0.263458 0)
(5.98265 0.269173 0)
(5.81091 0.274619 0)
(5.63503 0.279658 0)
(5.45512 0.284238 0)
(5.27124 0.288304 0)
(5.08346 0.291772 0)
(4.89184 0.294528 0)
(4.69647 0.296438 0)
(4.49745 0.297359 0)
(4.29493 0.297137 0)
(4.08912 0.295619 0)
(3.88028 0.29266 0)
(3.66869 0.288132 0)
(3.45474 0.281938 0)
(3.23884 0.274021 0)
(3.02146 0.264376 0)
(2.80312 0.253051 0)
(2.58435 0.240163 0)
(2.36572 0.225894 0)
(2.14779 0.210486 0)
(1.93115 0.194239 0)
(1.71631 0.177497 0)
(1.50371 0.160659 0)
(1.29378 0.144174 0)
(1.08684 0.12853 0)
(0.883103 0.11422 0)
(0.682596 0.10181 0)
(0.48506 0.0917897 0)
(0.290082 0.0847864 0)
(0.0960291 0.0810032 0)
(10.0633 0.00710847 0)
(10.1691 0.0332389 0)
(10.144 0.0368646 0)
(10.0869 0.0579462 0)
(10.0266 0.0755898 0)
(9.98833 0.0637694 0)
(9.95974 0.0334913 0)
(9.93535 0.0209713 0)
(9.9257 0.0390284 0)
(9.93224 0.0638525 0)
(9.94245 0.069287 0)
(9.94125 0.0559796 0)
(9.92047 0.0447427 0)
(9.88301 0.0516962 0)
(9.84093 0.0733574 0)
(9.80746 0.0926275 0)
(9.78765 0.0957832 0)
(9.77549 0.0827292 0)
(9.76069 0.0642902 0)
(9.73799 0.0520197 0)
(9.71003 0.0509729 0)
(9.68217 0.0594815 0)
(9.65717 0.0735009 0)
(9.6345 0.0900479 0)
(9.61146 0.107339 0)
(9.58383 0.12267 0)
(9.54603 0.131787 0)
(9.49331 0.130701 0)
(9.42758 0.11928 0)
(9.35919 0.104456 0)
(9.29994 0.0982247 0)
(9.25372 0.1091 0)
(9.21312 0.133438 0)
(9.16569 0.155813 0)
(9.10439 0.160683 0)
(9.03269 0.145701 0)
(8.96051 0.123609 0)
(8.89636 0.110987 0)
(8.8425 0.115249 0)
(8.79576 0.131722 0)
(8.75138 0.151369 0)
(8.70578 0.169395 0)
(8.6569 0.18584 0)
(8.60335 0.20014 0)
(8.54379 0.208536 0)
(8.47615 0.208144 0)
(8.39737 0.20219 0)
(8.30523 0.199181 0)
(8.20169 0.205962 0)
(8.09475 0.221838 0)
(7.99538 0.239725 0)
(7.91077 0.25274 0)
(7.83859 0.259896 0)
(7.76738 0.266152 0)
(7.68432 0.277501 0)
(7.58494 0.296303 0)
(7.47656 0.320219 0)
(7.37305 0.343665 0)
(7.28512 0.360134 0)
(7.21414 0.365448 0)
(7.15315 0.3608 0)
(7.09193 0.352144 0)
(7.0215 0.346262 0)
(6.93666 0.34713 0)
(6.83623 0.355016 0)
(6.72187 0.367511 0)
(6.59658 0.381612 0)
(6.46351 0.395269 0)
(6.32511 0.40763 0)
(6.18292 0.418645 0)
(6.03772 0.428607 0)
(5.88981 0.437832 0)
(5.73925 0.446525 0)
(5.58601 0.454768 0)
(5.43003 0.462551 0)
(5.2712 0.469811 0)
(5.10942 0.476445 0)
(4.9445 0.482329 0)
(4.77628 0.487324 0)
(4.60454 0.491279 0)
(4.42902 0.494032 0)
(4.24947 0.495426 0)
(4.06559 0.495319 0)
(3.87709 0.493597 0)
(3.68367 0.490186 0)
(3.48502 0.485057 0)
(3.28089 0.478238 0)
(3.07104 0.469819 0)
(2.85527 0.459946 0)
(2.63347 0.448817 0)
(2.40558 0.436667 0)
(2.17166 0.423756 0)
(1.93192 0.410388 0)
(1.68668 0.396928 0)
(1.43641 0.383794 0)
(1.18166 0.37145 0)
(0.92313 0.36046 0)
(0.661486 0.351352 0)
(0.397801 0.345095 0)
(0.132166 0.341183 0)
(9.97137 0.122077 0)
(10.0282 0.060892 0)
(10.0125 0.101764 0)
(9.99839 0.104948 0)
(9.98467 0.070443 0)
(9.97195 0.0468979 0)
(9.95429 0.0435545 0)
(9.93475 0.038511 0)
(9.92218 0.0211384 0)
(9.91913 0.0059028 0)
(9.91833 0.0115284 0)
(9.90971 0.0390215 0)
(9.89116 0.0719859 0)
(9.87124 0.0920323 0)
(9.85942 0.0924894 0)
(9.85496 0.0809807 0)
(9.84639 0.0717893 0)
(9.82162 0.0748044 0)
(9.77863 0.0887357 0)
(9.72737 0.104627 0)
(9.68165 0.115466 0)
(9.64857 0.12172 0)
(9.62464 0.127912 0)
(9.6008 0.136393 0)
(9.5711 0.145792 0)
(9.53604 0.154114 0)
(9.4991 0.16031 0)
(9.46186 0.163499 0)
(9.42214 0.162931 0)
(9.37705 0.159756 0)
(9.32753 0.158758 0)
(9.27876 0.166112 0)
(9.23566 0.183943 0)
(9.19766 0.207217 0)
(9.15816 0.226537 0)
(9.10928 0.234471 0)
(9.04762 0.230305 0)
(8.97562 0.220109 0)
(8.89834 0.212403 0)
(8.81968 0.212626 0)
(8.74183 0.220659 0)
(8.66673 0.232882 0)
(8.59616 0.246234 0)
(8.52935 0.2606 0)
(8.46123 0.277731 0)
(8.3846 0.298216 0)
(8.29516 0.319375 0)
(8.19489 0.335911 0)
(8.09053 0.342984 0)
(7.98917 0.339676 0)
(7.89453 0.330395 0)
(7.80611 0.32314 0)
(7.72077 0.325412 0)
(7.63469 0.340112 0)
(7.54502 0.364025 0)
(7.45127 0.389845 0)
(7.356 0.410718 0)
(7.26349 0.42364 0)
(7.17677 0.429505 0)
(7.09513 0.431394 0)
(7.01397 0.433036 0)
(6.92723 0.437548 0)
(6.83056 0.44665 0)
(6.7228 0.460369 0)
(6.60516 0.477211 0)
(6.4799 0.495116 0)
(6.3493 0.512383 0)
(6.21495 0.52812 0)
(6.07769 0.542174 0)
(5.93799 0.554825 0)
(5.79609 0.566472 0)
(5.65214 0.57744 0)
(5.50624 0.587923 0)
(5.35846 0.59801 0)
(5.20883 0.607714 0)
(5.05735 0.617005 0)
(4.90397 0.625828 0)
(4.74861 0.634105 0)
(4.59111 0.64175 0)
(4.43129 0.648664 0)
(4.2689 0.654746 0)
(4.10363 0.659894 0)
(3.93511 0.664012 0)
(3.76289 0.667025 0)
(3.5865 0.668877 0)
(3.4054 0.669547 0)
(3.21902 0.669046 0)
(3.02675 0.667422 0)
(2.82799 0.664753 0)
(2.62216 0.661145 0)
(2.40872 0.656733 0)
(2.18724 0.651671 0)
(1.95739 0.646098 0)
(1.71906 0.640172 0)
(1.47235 0.634097 0)
(1.21761 0.62813 0)
(0.955621 0.622635 0)
(0.687272 0.617898 0)
(0.41434 0.614716 0)
(0.137868 0.611793 0)
(10.072 0.0768449 0)
(10.0897 0.0274325 0)
(10.1041 0.0609627 0)
(10.1015 0.100213 0)
(10.0748 0.116875 0)
(10.0456 0.0999948 0)
(10.0263 0.0697011 0)
(10.0095 0.0520687 0)
(9.98643 0.0552036 0)
(9.95987 0.0689231 0)
(9.93863 0.0808498 0)
(9.92632 0.0860886 0)
(9.91795 0.0860834 0)
(9.90512 0.0855261 0)
(9.88171 0.0905251 0)
(9.84694 0.105534 0)
(9.80626 0.128679 0)
(9.76854 0.150533 0)
(9.73923 0.159523 0)
(9.71542 0.150944 0)
(9.6884 0.132263 0)
(9.65201 0.118902 0)
(9.60848 0.12273 0)
(9.56608 0.143433 0)
(9.53175 0.170531 0)
(9.50626 0.192564 0)
(9.48448 0.204541 0)
(9.45856 0.207801 0)
(9.42235 0.205611 0)
(9.37458 0.201139 0)
(9.31925 0.198474 0)
(9.26312 0.202687 0)
(9.21153 0.216291 0)
(9.16541 0.235462 0)
(9.12141 0.251723 0)
(9.0746 0.259121 0)
(9.02073 0.259896 0)
(8.95696 0.262314 0)
(8.8821 0.272496 0)
(8.7976 0.288696 0)
(8.70846 0.304003 0)
(8.62216 0.31423 0)
(8.54525 0.322269 0)
(8.47972 0.334364 0)
(8.42182 0.353 0)
(8.36453 0.374394 0)
(8.30161 0.392659 0)
(8.2297 0.405216 0)
(8.14771 0.413593 0)
(8.05568 0.41994 0)
(7.9551 0.424612 0)
(7.84975 0.427831 0)
(7.74511 0.432436 0)
(7.64572 0.443048 0)
(7.55245 0.461812 0)
(7.46223 0.485534 0)
(7.37054 0.507456 0)
(7.27457 0.521924 0)
(7.17434 0.527895 0)
(7.07126 0.529046 0)
(6.96596 0.531121 0)
(6.85732 0.538865 0)
(6.74339 0.554064 0)
(6.62271 0.575367 0)
(6.49515 0.599689 0)
(6.36172 0.624008 0)
(6.22388 0.646362 0)
(6.0829 0.666037 0)
(5.93959 0.683223 0)
(5.79435 0.698499 0)
(5.64732 0.712442 0)
(5.49852 0.725474 0)
(5.34799 0.737853 0)
(5.19576 0.74971 0)
(5.04189 0.761102 0)
(4.88639 0.772042 0)
(4.7293 0.782515 0)
(4.57061 0.792487 0)
(4.41029 0.801919 0)
(4.24825 0.810766 0)
(4.08439 0.818989 0)
(3.91853 0.826551 0)
(3.75045 0.833427 0)
(3.57986 0.839614 0)
(3.40639 0.84513 0)
(3.22961 0.850018 0)
(3.04905 0.85435 0)
(2.86416 0.858217 0)
(2.67431 0.861731 0)
(2.47889 0.86501 0)
(2.27723 0.868167 0)
(2.06869 0.87129 0)
(1.85271 0.874408 0)
(1.62882 0.877473 0)
(1.39683 0.880392 0)
(1.15673 0.883042 0)
(0.909058 0.885333 0)
(0.654542 0.887046 0)
(0.394975 0.888537 0)
(0.131464 0.887531 0)
(9.98117 0.0676477 0)
(9.98133 0.0503916 0)
(9.96217 0.0821774 0)
(9.95497 0.118 0)
(9.96412 0.117711 0)
(9.98828 0.097 0)
(10.0078 0.0828402 0)
(10.0027 0.0786054 0)
(9.97932 0.0691426 0)
(9.95487 0.0512815 0)
(9.93833 0.041932 0)
(9.92712 0.0563688 0)
(9.91302 0.090412 0)
(9.88918 0.126666 0)
(9.85517 0.150221 0)
(9.81698 0.156456 0)
(9.78265 0.15012 0)
(9.75724 0.141311 0)
(9.73985 0.140664 0)
(9.7244 0.153586 0)
(9.70402 0.176583 0)
(9.67606 0.199477 0)
(9.64279 0.212633 0)
(9.60778 0.21334 0)
(9.57218 0.206955 0)
(9.53501 0.203099 0)
(9.49644 0.20922 0)
(9.45912 0.225663 0)
(9.42472 0.245759 0)
(9.38985 0.26113 0)
(9.34709 0.268528 0)
(9.29116 0.272334 0)
(9.22442 0.280134 0)
(9.15545 0.295469 0)
(9.09176 0.314948 0)
(9.03413 0.332367 0)
(8.97781 0.345127 0)
(8.91865 0.356196 0)
(8.85722 0.369722 0)
(8.79686 0.385068 0)
(8.73839 0.396052 0)
(8.67807 0.397046 0)
(8.61115 0.390119 0)
(8.53712 0.385411 0)
(8.46051 0.393743 0)
(8.38597 0.418367 0)
(8.31328 0.453258 0)
(8.23773 0.488197 0)
(8.15502 0.514992 0)
(8.06524 0.530128 0)
(7.97245 0.534255 0)
(7.88087 0.531314 0)
(7.79175 0.527938 0)
(7.70324 0.53145 0)
(7.61244 0.546148 0)
(7.51725 0.570389 0)
(7.41687 0.597292 0)
(7.31166 0.619125 0)
(7.20259 0.632248 0)
(7.09049 0.639052 0)
(6.97542 0.645806 0)
(6.85659 0.658435 0)
(6.73302 0.679273 0)
(6.60408 0.706597 0)
(6.46985 0.736481 0)
(6.33094 0.765196 0)
(6.18826 0.79064 0)
(6.04267 0.812444 0)
(5.89479 0.831271 0)
(5.74492 0.84805 0)
(5.59315 0.863535 0)
(5.43952 0.878193 0)
(5.28401 0.892256 0)
(5.12661 0.905819 0)
(4.96735 0.918905 0)
(4.80626 0.931513 0)
(4.64335 0.943627 0)
(4.47867 0.95523 0)
(4.31222 0.966303 0)
(4.14401 0.97683 0)
(3.97403 0.986806 0)
(3.80222 0.996238 0)
(3.6285 1.00515 0)
(3.45275 1.0136 0)
(3.27482 1.02166 0)
(3.09449 1.02944 0)
(2.91149 1.03707 0)
(2.72549 1.04471 0)
(2.53613 1.05252 0)
(2.34296 1.06066 0)
(2.1455 1.06925 0)
(1.94325 1.07836 0)
(1.73567 1.08798 0)
(1.52229 1.09796 0)
(1.3028 1.10802 0)
(1.07705 1.11771 0)
(0.84532 1.12652 0)
(0.608057 1.13373 0)
(0.366708 1.13931 0)
(0.121982 1.13992 0)
(10.0427 0.0223697 0)
(10.079 0.0659369 0)
(10.0568 0.0962588 0)
(10.0328 0.113657 0)
(10.0164 0.0845605 0)
(10.0087 0.0517079 0)
(10.0041 0.0532478 0)
(10.0001 0.0814 0)
(9.99135 0.106147 0)
(9.96986 0.113726 0)
(9.93275 0.112375 0)
(9.88835 0.115069 0)
(9.8517 0.126677 0)
(9.83315 0.144063 0)
(9.83015 0.162287 0)
(9.82987 0.177813 0)
(9.81933 0.188755 0)
(9.79423 0.194129 0)
(9.76016 0.193597 0)
(9.72655 0.188435 0)
(9.69966 0.182499 0)
(9.67971 0.181738 0)
(9.66228 0.191662 0)
(9.64103 0.213598 0)
(9.61009 0.242144 0)
(9.56691 0.267016 0)
(9.51467 0.279606 0)
(9.46156 0.279573 0)
(9.41547 0.275789 0)
(9.37753 0.28015 0)
(9.34056 0.298608 0)
(9.29466 0.326746 0)
(9.23564 0.353568 0)
(9.16832 0.370108 0)
(9.10181 0.375454 0)
(9.04177 0.375722 0)
(8.98703 0.377987 0)
(8.93271 0.385139 0)
(8.87598 0.395804 0)
(8.81822 0.408096 0)
(8.76188 0.42238 0)
(8.70554 0.440254 0)
(8.64325 0.461565 0)
(8.56924 0.483538 0)
(8.48366 0.503522 0)
(8.39285 0.522044 0)
(8.30376 0.542107 0)
(8.21834 0.565103 0)
(8.13359 0.587826 0)
(8.04645 0.604154 0)
(7.95758 0.610394 0)
(7.87018 0.609632 0)
(7.78548 0.610839 0)
(7.70001 0.622887 0)
(7.60754 0.648275 0)
(7.50401 0.681584 0)
(7.39069 0.713392 0)
(7.27318 0.736258 0)
(7.15732 0.748817 0)
(7.04568 0.755825 0)
(6.93669 0.764699 0)
(6.82647 0.781146 0)
(6.71131 0.806637 0)
(6.58923 0.838677 0)
(6.46002 0.872932 0)
(6.32455 0.905553 0)
(6.18393 0.934434 0)
(6.03917 0.959235 0)
(5.89099 0.98069 0)
(5.73991 0.999836 0)
(5.58623 1.01753 0)
(5.43014 1.03432 0)
(5.27175 1.05047 0)
(5.11113 1.06608 0)
(4.94831 1.08119 0)
(4.78331 1.09579 0)
(4.61615 1.10987 0)
(4.44687 1.12341 0)
(4.27549 1.1364 0)
(4.10201 1.14882 0)
(3.92645 1.16069 0)
(3.74884 1.17204 0)
(3.56917 1.1829 0)
(3.38742 1.19337 0)
(3.20359 1.20354 0)
(3.01761 1.21356 0)
(2.82944 1.22361 0)
(2.63898 1.2339 0)
(2.44611 1.24464 0)
(2.25065 1.25604 0)
(2.05241 1.26826 0)
(1.85114 1.2814 0)
(1.6466 1.29543 0)
(1.43848 1.31016 0)
(1.22657 1.32519 0)
(1.0107 1.33987 0)
(0.791045 1.3534 0)
(0.567765 1.36464 0)
(0.341893 1.37327 0)
(0.113609 1.37497 0)
(10.0405 0.10787 0)
(10.0804 0.0636467 0)
(10.0828 0.111727 0)
(10.0814 0.153903 0)
(10.0649 0.146008 0)
(10.0472 0.114078 0)
(10.038 0.0923476 0)
(10.0335 0.0888335 0)
(10.0206 0.0947179 0)
(9.99351 0.104444 0)
(9.96142 0.118399 0)
(9.93655 0.133566 0)
(9.92105 0.143739 0)
(9.90894 0.148348 0)
(9.89641 0.154338 0)
(9.88561 0.167642 0)
(9.87912 0.185304 0)
(9.87303 0.199465 0)
(9.85779 0.207102 0)
(9.82574 0.212761 0)
(9.77709 0.222141 0)
(9.71932 0.235916 0)
(9.66221 0.251039 0)
(9.61354 0.265925 0)
(9.57667 0.281845 0)
(9.54919 0.299254 0)
(9.52325 0.314939 0)
(9.4896 0.324715 0)
(9.44346 0.329077 0)
(9.38767 0.334864 0)
(9.32968 0.349901 0)
(9.27542 0.375458 0)
(9.22587 0.404372 0)
(9.17868 0.426955 0)
(9.13151 0.439021 0)
(9.08308 0.444721 0)
(9.0315 0.452155 0)
(8.97296 0.466051 0)
(8.90361 0.484076 0)
(8.82357 0.499933 0)
(8.7387 0.510031 0)
(8.65744 0.517176 0)
(8.5847 0.527778 0)
(8.51839 0.545834 0)
(8.45187 0.570242 0)
(8.37991 0.597734 0)
(8.30239 0.626787 0)
(8.22255 0.657114 0)
(8.14266 0.685632 0)
(8.06197 0.705245 0)
(7.9784 0.710207 0)
(7.89116 0.703638 0)
(7.80094 0.698656 0)
(7.70789 0.709972 0)
(7.61004 0.742549 0)
(7.50485 0.787435 0)
(7.39228 0.828315 0)
(7.27612 0.852959 0)
(7.16166 0.860622 0)
(7.05205 0.860907 0)
(6.94631 0.866403 0)
(6.84027 0.885147 0)
(6.72914 0.917615 0)
(6.6098 0.95868 0)
(6.48158 1.00167 0)
(6.34561 1.04158 0)
(6.20363 1.07616 0)
(6.05721 1.10541 0)
(5.90738 1.13046 0)
(5.75472 1.15266 0)
(5.59952 1.17308 0)
(5.4419 1.1924 0)
(5.28188 1.21096 0)
(5.11949 1.22894 0)
(4.9547 1.24638 0)
(4.78752 1.26329 0)
(4.61793 1.27967 0)
(4.44592 1.29551 0)
(4.27149 1.31077 0)
(4.09464 1.32546 0)
(3.9154 1.33957 0)
(3.73377 1.35314 0)
(3.54978 1.3662 0)
(3.36347 1.37884 0)
(3.17489 1.39116 0)
(2.98407 1.40332 0)
(2.7911 1.4155 0)
(2.59603 1.42791 0)
(2.39894 1.4408 0)
(2.19988 1.45441 0)
(1.99892 1.46894 0)
(1.79608 1.48453 0)
(1.59138 1.50114 0)
(1.3848 1.51858 0)
(1.17633 1.53641 0)
(0.965901 1.55386 0)
(0.753648 1.57002 0)
(0.539573 1.5835 0)
(0.324342 1.59387 0)
(0.10766 1.59599 0)
(10.0386 0.185778 0)
(10.048 0.0929756 0)
(10.0332 0.105208 0)
(10.0467 0.129287 0)
(10.0672 0.109301 0)
(10.0734 0.0715453 0)
(10.0614 0.065772 0)
(10.0354 0.102931 0)
(9.99926 0.15239 0)
(9.95974 0.179083 0)
(9.92727 0.175072 0)
(9.90854 0.159656 0)
(9.9007 0.155459 0)
(9.89386 0.167504 0)
(9.88085 0.184074 0)
(9.86279 0.194521 0)
(9.84404 0.201841 0)
(9.82435 0.216456 0)
(9.7983 0.241852 0)
(9.76287 0.269868 0)
(9.72267 0.289447 0)
(9.68566 0.297002 0)
(9.65514 0.297649 0)
(9.62788 0.299061 0)
(9.59928 0.306165 0)
(9.56754 0.320119 0)
(9.53202 0.339189 0)
(9.4901 0.359779 0)
(9.43852 0.37856 0)
(9.37823 0.395226 0)
(9.31611 0.412577 0)
(9.26005 0.432579 0)
(9.21242 0.452558 0)
(9.16844 0.466901 0)
(9.12094 0.47347 0)
(9.0661 0.47773 0)
(9.00516 0.489231 0)
(8.9419 0.513022 0)
(8.87927 0.544228 0)
(8.81819 0.571546 0)
(8.75796 0.587023 0)
(8.697 0.593014 0)
(8.63348 0.599712 0)
(8.566 0.615886 0)
(8.49418 0.642029 0)
(8.41914 0.672067 0)
(8.34343 0.700412 0)
(8.26986 0.725979 0)
(8.19937 0.749532 0)
(8.12945 0.769322 0)
(8.05457 0.781796 0)
(7.96901 0.78736 0)
(7.87036 0.794087 0)
(7.76111 0.813464 0)
(7.64693 0.850657 0)
(7.53329 0.898408 0)
(7.42331 0.941085 0)
(7.31747 0.965951 0)
(7.21443 0.972138 0)
(7.11187 0.970529 0)
(7.00706 0.975849 0)
(6.89727 0.997693 0)
(6.78024 1.03651 0)
(6.6547 1.0857 0)
(6.52079 1.13668 0)
(6.37984 1.18318 0)
(6.23367 1.2226 0)
(6.08388 1.25532 0)
(5.93149 1.28305 0)
(5.77695 1.30758 0)
(5.62035 1.33026 0)
(5.46162 1.35186 0)
(5.30063 1.37277 0)
(5.13727 1.39315 0)
(4.97147 1.41304 0)
(4.80315 1.43244 0)
(4.63227 1.45134 0)
(4.4588 1.4697 0)
(4.2827 1.48751 0)
(4.10397 1.50474 0)
(3.92259 1.5214 0)
(3.73857 1.53748 0)
(3.55195 1.55303 0)
(3.36274 1.5681 0)
(3.17104 1.58278 0)
(2.97691 1.59721 0)
(2.78048 1.61154 0)
(2.5819 1.62598 0)
(2.38137 1.64076 0)
(2.17907 1.6561 0)
(1.97525 1.67221 0)
(1.77014 1.68923 0)
(1.56397 1.70719 0)
(1.35695 1.72589 0)
(1.14927 1.74489 0)
(0.941006 1.76345 0)
(0.732352 1.7806 0)
(0.523226 1.79491 0)
(0.314041 1.80596 0)
(0.104152 1.80796 0)
(9.94873 -0.0450439 0)
(9.94095 0.0156947 0)
(9.97853 0.0903996 0)
(9.98188 0.123955 0)
(9.98614 0.128953 0)
(9.98185 0.123107 0)
(9.96311 0.127961 0)
(9.94252 0.145957 0)
(9.93471 0.163232 0)
(9.93917 0.168611 0)
(9.94108 0.163364 0)
(9.92757 0.15703 0)
(9.90077 0.158449 0)
(9.87364 0.169782 0)
(9.85499 0.187061 0)
(9.84226 0.205192 0)
(9.82747 0.223343 0)
(9.80658 0.244244 0)
(9.78216 0.267713 0)
(9.75823 0.287822 0)
(9.73477 0.298918 0)
(9.70782 0.303017 0)
(9.67378 0.30845 0)
(9.63305 0.321556 0)
(9.58959 0.342051 0)
(9.54754 0.366284 0)
(9.50801 0.39184 0)
(9.46856 0.417257 0)
(9.42564 0.439579 0)
(9.37805 0.45563 0)
(9.32832 0.466256 0)
(9.28041 0.47716 0)
(9.23557 0.493847 0)
(9.19033 0.516256 0)
(9.13894 0.539425 0)
(9.07829 0.559195 0)
(9.01077 0.575975 0)
(8.94277 0.592453 0)
(8.88037 0.608914 0)
(8.82548 0.622709 0)
(8.77481 0.632733 0)
(8.72174 0.642887 0)
(8.66026 0.659491 0)
(8.58894 0.685258 0)
(8.51218 0.716668 0)
(8.43719 0.747564 0)
(8.36871 0.774808 0)
(8.30537 0.799788 0)
(8.24058 0.824722 0)
(8.16699 0.848868 0)
(8.0809 0.86952 0)
(7.98365 0.886608 0)
(7.87978 0.905215 0)
(7.7742 0.932266 0)
(7.67034 0.969779 0)
(7.56971 1.01116 0)
(7.47188 1.04483 0)
(7.37474 1.06285 0)
(7.2753 1.06721 0)
(7.17098 1.06898 0)
(7.06028 1.08132 0)
(6.94274 1.11199 0)
(6.81832 1.16004 0)
(6.68714 1.21789 0)
(6.54963 1.27627 0)
(6.40664 1.32846 0)
(6.25933 1.37193 0)
(6.10879 1.40746 0)
(5.95579 1.4373 0)
(5.8007 1.46373 0)
(5.6436 1.48837 0)
(5.48439 1.51209 0)
(5.32292 1.53527 0)
(5.15906 1.55806 0)
(4.99271 1.58046 0)
(4.82378 1.60244 0)
(4.6522 1.62396 0)
(4.47792 1.645 0)
(4.3009 1.66551 0)
(4.12112 1.68547 0)
(3.93854 1.70486 0)
(3.75317 1.72367 0)
(3.56502 1.74191 0)
(3.37413 1.75962 0)
(3.18055 1.77687 0)
(2.98439 1.79375 0)
(2.78578 1.81037 0)
(2.5849 1.82691 0)
(2.38197 1.84355 0)
(2.17728 1.86048 0)
(1.97115 1.87788 0)
(1.76394 1.89588 0)
(1.55601 1.91451 0)
(1.34772 1.9336 0)
(1.13941 1.95278 0)
(0.931294 1.97134 0)
(0.723612 1.98841 0)
(0.516281 2.00259 0)
(0.309565 2.01359 0)
(0.102616 2.01509 0)
(10.1048 0.0583768 0)
(10.0777 0.0684249 0)
(10.0267 0.112289 0)
(10.0111 0.12591 0)
(10.0172 0.111022 0)
(10.0156 0.0981482 0)
(10.0022 0.109971 0)
(9.98737 0.138208 0)
(9.9786 0.163869 0)
(9.97081 0.180472 0)
(9.95404 0.192384 0)
(9.92502 0.202344 0)
(9.88913 0.208701 0)
(9.8553 0.211246 0)
(9.82947 0.213702 0)
(9.8108 0.221515 0)
(9.79469 0.238081 0)
(9.77912 0.262684 0)
(9.76569 0.290988 0)
(9.75405 0.317868 0)
(9.73781 0.340482 0)
(9.70858 0.358731 0)
(9.66436 0.373196 0)
(9.61214 0.383978 0)
(9.5618 0.392355 0)
(9.51848 0.402431 0)
(9.48103 0.41907 0)
(9.44555 0.443301 0)
(9.40865 0.470511 0)
(9.36794 0.49428 0)
(9.32193 0.512187 0)
(9.27093 0.527426 0)
(9.21787 0.54472 0)
(9.16686 0.565358 0)
(9.12037 0.586778 0)
(9.07771 0.606413 0)
(9.03574 0.624544 0)
(8.9908 0.642698 0)
(8.94044 0.660438 0)
(8.88429 0.675787 0)
(8.824 0.689384 0)
(8.76183 0.706368 0)
(8.69844 0.731796 0)
(8.63199 0.764002 0)
(8.56013 0.79462 0)
(8.48298 0.816982 0)
(8.40358 0.833955 0)
(8.32488 0.855772 0)
(8.24625 0.889282 0)
(8.16346 0.929988 0)
(8.07262 0.965803 0)
(7.97404 0.988979 0)
(7.87228 1.00396 0)
(7.7727 1.02317 0)
(7.67793 1.05511 0)
(7.58691 1.09655 0)
(7.49616 1.13562 0)
(7.40198 1.16207 0)
(7.30177 1.17542 0)
(7.19442 1.18504 0)
(7.08002 1.20357 0)
(6.95924 1.23918 0)
(6.83287 1.29167 0)
(6.70141 1.35397 0)
(6.56515 1.41681 0)
(6.42433 1.47317 0)
(6.27938 1.52022 0)
(6.13084 1.55869 0)
(5.97925 1.59102 0)
(5.82497 1.6197 0)
(5.66822 1.64653 0)
(5.50906 1.67252 0)
(5.34745 1.69808 0)
(5.18335 1.72334 0)
(5.01668 1.74831 0)
(4.84736 1.77293 0)
(4.67533 1.79717 0)
(4.50053 1.82097 0)
(4.32293 1.84428 0)
(4.14248 1.86706 0)
(3.95916 1.88929 0)
(3.77296 1.91094 0)
(3.58388 1.932 0)
(3.39197 1.95249 0)
(3.19727 1.97244 0)
(2.99987 1.9919 0)
(2.79992 2.01095 0)
(2.59758 2.0297 0)
(2.39311 2.04828 0)
(2.18678 2.06683 0)
(1.97895 2.08549 0)
(1.77002 2.10434 0)
(1.56043 2.1234 0)
(1.35061 2.14253 0)
(1.14098 2.16141 0)
(0.931848 2.17942 0)
(0.723497 2.19582 0)
(0.51587 2.20931 0)
(0.30917 2.21984 0)
(0.102465 2.22061 0)
(9.90959 0.0398953 0)
(9.8934 0.0849051 0)
(9.94028 0.118934 0)
(9.9778 0.123428 0)
(9.99669 0.121385 0)
(9.99456 0.132621 0)
(9.98287 0.1494 0)
(9.96751 0.161631 0)
(9.94949 0.171854 0)
(9.93225 0.18618 0)
(9.92117 0.204397 0)
(9.91787 0.220637 0)
(9.91824 0.229562 0)
(9.91481 0.231742 0)
(9.9003 0.23341 0)
(9.87091 0.240679 0)
(9.82795 0.254664 0)
(9.77794 0.272405 0)
(9.7304 0.2919 0)
(9.6931 0.314803 0)
(9.66847 0.343308 0)
(9.6536 0.375158 0)
(9.64286 0.403547 0)
(9.62991 0.423003 0)
(9.60909 0.434892 0)
(9.57722 0.446379 0)
(9.53589 0.464025 0)
(9.49101 0.48862 0)
(9.44862 0.515784 0)
(9.4104 0.540595 0)
(9.37321 0.561294 0)
(9.33277 0.579202 0)
(9.28738 0.596109 0)
(9.23816 0.612394 0)
(9.1867 0.627819 0)
(9.13363 0.643728 0)
(9.07907 0.663366 0)
(9.02329 0.6887 0)
(8.96589 0.716741 0)
(8.90502 0.740682 0)
(8.83882 0.756662 0)
(8.76775 0.769465 0)
(8.6948 0.78958 0)
(8.62242 0.822992 0)
(8.54973 0.864495 0)
(8.47332 0.902634 0)
(8.39113 0.931387 0)
(8.30502 0.955723 0)
(8.21916 0.984953 0)
(8.136 1.02159 0)
(8.05395 1.05844 0)
(7.96875 1.08698 0)
(7.87704 1.10709 0)
(7.77889 1.12741 0)
(7.67755 1.15633 0)
(7.57702 1.19345 0)
(7.47961 1.23002 0)
(7.38502 1.25736 0)
(7.29081 1.27492 0)
(7.19333 1.29105 0)
(7.08909 1.31702 0)
(6.97601 1.35982 0)
(6.85401 1.41861 0)
(6.7244 1.48632 0)
(6.58878 1.55394 0)
(6.44841 1.61467 0)
(6.30407 1.66572 0)
(6.15626 1.70777 0)
(6.00532 1.74328 0)
(5.85152 1.77482 0)
(5.69502 1.80431 0)
(5.53593 1.83287 0)
(5.37426 1.86099 0)
(5.21 1.88884 0)
(5.04309 1.91645 0)
(4.87348 1.94379 0)
(4.7011 1.97079 0)
(4.5259 1.99741 0)
(4.34783 2.02357 0)
(4.16687 2.04925 0)
(3.98298 2.07438 0)
(3.79616 2.09894 0)
(3.60642 2.12289 0)
(3.41377 2.14623 0)
(3.21829 2.16895 0)
(3.02005 2.19108 0)
(2.81919 2.21264 0)
(2.61587 2.23369 0)
(2.41031 2.25432 0)
(2.2028 2.27459 0)
(1.99369 2.29459 0)
(1.78336 2.31435 0)
(1.57227 2.33387 0)
(1.36086 2.35302 0)
(1.14959 2.37151 0)
(0.938802 2.38884 0)
(0.728814 2.40439 0)
(0.519607 2.41702 0)
(0.311382 2.42692 0)
(0.103203 2.4269 0)
(10.0218 0.0213133 0)
(10.0598 0.0240778 0)
(10.0525 0.0648157 0)
(10.041 0.0951715 0)
(10.011 0.106916 0)
(9.97797 0.11946 0)
(9.96615 0.145974 0)
(9.97156 0.180635 0)
(9.97303 0.206952 0)
(9.95805 0.215211 0)
(9.9309 0.210595 0)
(9.9027 0.205657 0)
(9.88071 0.209932 0)
(9.86645 0.226734 0)
(9.85701 0.255546 0)
(9.84598 0.29289 0)
(9.82665 0.331272 0)
(9.79675 0.361244 0)
(9.75962 0.377221 0)
(9.7205 0.381386 0)
(9.68224 0.381664 0)
(9.64481 0.385958 0)
(9.60849 0.398194 0)
(9.57556 0.418549 0)
(9.54794 0.445336 0)
(9.52364 0.475654 0)
(9.49666 0.505462 0)
(9.46138 0.53121 0)
(9.41737 0.552259 0)
(9.36974 0.571198 0)
(9.32466 0.591466 0)
(9.2846 0.614778 0)
(9.24724 0.640505 0)
(9.20808 0.666714 0)
(9.16382 0.691436 0)
(9.11391 0.713635 0)
(9.06016 0.733975 0)
(9.00528 0.754564 0)
(8.95099 0.777105 0)
(8.8964 0.801208 0)
(8.83771 0.825379 0)
(8.77064 0.849899 0)
(8.69401 0.877514 0)
(8.61145 0.910087 0)
(8.52917 0.945039 0)
(8.45161 0.976964 0)
(8.37856 1.00363 0)
(8.30617 1.02909 0)
(8.23051 1.05951 0)
(8.15058 1.09608 0)
(8.06804 1.1335 0)
(7.9846 1.16596 0)
(7.89967 1.19373 0)
(7.81051 1.22268 0)
(7.71458 1.25733 0)
(7.61208 1.29516 0)
(7.50644 1.32834 0)
(7.40218 1.35136 0)
(7.30201 1.36721 0)
(7.2048 1.38642 0)
(7.10612 1.42019 0)
(7.00063 1.47337 0)
(6.88496 1.54248 0)
(6.75876 1.61866 0)
(6.62382 1.69252 0)
(6.48252 1.7578 0)
(6.33676 1.81241 0)
(6.1877 1.85752 0)
(6.03588 1.89584 0)
(5.88153 1.93007 0)
(5.72472 1.96217 0)
(5.56543 1.99331 0)
(5.4036 2.02403 0)
(5.23917 2.05453 0)
(5.07206 2.08484 0)
(4.90219 2.11494 0)
(4.7295 2.14477 0)
(4.55394 2.17425 0)
(4.37546 2.20333 0)
(4.19403 2.23194 0)
(4.00963 2.26003 0)
(3.82224 2.28754 0)
(3.6319 2.31442 0)
(3.43861 2.34065 0)
(3.24245 2.36619 0)
(3.04349 2.39103 0)
(2.84186 2.41516 0)
(2.63771 2.4386 0)
(2.43126 2.46135 0)
(2.22276 2.48346 0)
(2.01253 2.50492 0)
(1.80095 2.52574 0)
(1.58843 2.54588 0)
(1.3754 2.56519 0)
(1.1623 2.58344 0)
(0.949504 2.6002 0)
(0.737329 2.61499 0)
(0.525796 2.62681 0)
(0.31514 2.63612 0)
(0.104467 2.63533 0)
(9.97318 0.107521 0)
(9.94441 0.0684451 0)
(9.93367 0.11021 0)
(9.94841 0.15199 0)
(9.96826 0.171401 0)
(9.96113 0.164145 0)
(9.93989 0.145323 0)
(9.92993 0.146536 0)
(9.93604 0.178195 0)
(9.94431 0.222486 0)
(9.9412 0.256659 0)
(9.92476 0.270932 0)
(9.90139 0.268001 0)
(9.87675 0.258209 0)
(9.85352 0.255914 0)
(9.83434 0.271622 0)
(9.82071 0.303278 0)
(9.80917 0.338253 0)
(9.79175 0.366656 0)
(9.76198 0.390464 0)
(9.72047 0.417277 0)
(9.67413 0.447513 0)
(9.6302 0.472043 0)
(9.59179 0.483485 0)
(9.55829 0.487164 0)
(9.52815 0.498038 0)
(9.49975 0.526315 0)
(9.47061 0.567404 0)
(9.43797 0.606504 0)
(9.40103 0.632224 0)
(9.36198 0.645404 0)
(9.32382 0.655854 0)
(9.28703 0.672293 0)
(9.24882 0.695972 0)
(9.20545 0.72262 0)
(9.1548 0.748478 0)
(9.0967 0.773532 0)
(9.03201 0.799707 0)
(8.96235 0.827492 0)
(8.89061 0.855485 0)
(8.82036 0.883201 0)
(8.7537 0.91306 0)
(8.6896 0.947977 0)
(8.62491 0.986717 0)
(8.55735 1.02318 0)
(8.48721 1.05215 0)
(8.41591 1.07581 0)
(8.34327 1.10287 0)
(8.26664 1.13986 0)
(8.18326 1.18367 0)
(8.09359 1.22423 0)
(8.00166 1.25508 0)
(7.91156 1.28057 0)
(7.82339 1.31148 0)
(7.73268 1.35355 0)
(7.63426 1.40057 0)
(7.52716 1.43937 0)
(7.41589 1.46172 0)
(7.3072 1.47249 0)
(7.20502 1.48714 0)
(7.10767 1.52123 0)
(7.00903 1.58072 0)
(6.90249 1.65999 0)
(6.78437 1.74688 0)
(6.65471 1.82965 0)
(6.51585 1.90132 0)
(6.37061 1.96027 0)
(6.22118 2.0085 0)
(6.06879 2.04935 0)
(5.91399 2.08592 0)
(5.75689 2.12039 0)
(5.59743 2.15398 0)
(5.43549 2.18725 0)
(5.27095 2.22039 0)
(5.10368 2.25345 0)
(4.93361 2.28636 0)
(4.76067 2.31906 0)
(4.58478 2.35147 0)
(4.40591 2.38351 0)
(4.22402 2.41512 0)
(4.0391 2.44621 0)
(3.85115 2.47671 0)
(3.66018 2.50657 0)
(3.46623 2.53573 0)
(3.26936 2.56413 0)
(3.06966 2.59172 0)
(2.86723 2.61847 0)
(2.66224 2.64434 0)
(2.45487 2.66931 0)
(2.24536 2.69335 0)
(2.03401 2.71642 0)
(1.82114 2.73847 0)
(1.60714 2.75942 0)
(1.3924 2.77913 0)
(1.17735 2.79739 0)
(0.962306 2.81382 0)
(0.747623 2.82807 0)
(0.533344 2.83927 0)
(0.319754 2.84812 0)
(0.106023 2.84663 0)
(10.0806 0.105001 0)
(10.0759 0.0886479 0)
(10.0411 0.0781149 0)