/*--------------------------------*- C++ -*----------------------------------*\
| =========                 |                                                 |
| \\      /  F ield         | OpenFOAM: The Open Source CFD Toolbox           |
|  \\    /   O peration     | Version:  4.1                                   |
|   \\  /    A nd           | Web:      www.OpenFOAM.org                      |
|    \\/     M anipulation  |                                                 |
\*---------------------------------------------------------------------------*/
FoamFile
{
    version     2.0;
    format      ascii;
    class       volVectorField;
    location    "0.15";
    object      UMean;
}
// * * * * * * * * * * * * * * * * * * * * * * * * * * * * * * * * * * * * * //

dimensions      [0 1 -1 0 0 0 0];

internalField   nonuniform List<vector> 
43750
(
(9.94802 0.00352221 0)
(9.99631 0.00573812 0)
(9.96174 0.00623298 0)
(9.95996 0.00672994 0)
(9.95153 0.00753344 0)
(9.93848 0.00865699 0)
(9.92358 0.0100337 0)
(9.90702 0.0113595 0)
(9.88854 0.0124197 0)
(9.86808 0.0133494 0)
(9.8456 0.014424 0)
(9.82098 0.0157433 0)
(9.79415 0.0171447 0)
(9.76509 0.0183514 0)
(9.73396 0.0192102 0)
(9.70092 0.0198484 0)
(9.66606 0.0206066 0)
(9.62929 0.0217936 0)
(9.59037 0.0234448 0)
(9.54913 0.0252842 0)
(9.50558 0.0269179 0)
(9.45996 0.0281051 0)
(9.41256 0.028895 0)
(9.36358 0.0295686 0)
(9.31303 0.0304544 0)
(9.2607 0.031735 0)
(9.20633 0.0333487 0)
(9.1496 0.0350319 0)
(9.09037 0.0364818 0)
(9.02866 0.0375521 0)
(8.96467 0.0383658 0)
(8.89861 0.0392331 0)
(8.83053 0.0404141 0)
(8.76029 0.0419205 0)
(8.68776 0.043521 0)
(8.61287 0.0449502 0)
(8.53568 0.0461156 0)
(8.45631 0.0471262 0)
(8.3748 0.0481512 0)
(8.29114 0.049277 0)
(8.20528 0.0505098 0)
(8.11719 0.0518731 0)
(8.02677 0.053445 0)
(7.93389 0.0552692 0)
(7.83837 0.0572527 0)
(7.74018 0.0591895 0)
(7.63932 0.0609148 0)
(7.53584 0.0624278 0)
(7.42966 0.063835 0)
(7.32067 0.0651924 0)
(7.20883 0.0664295 0)
(7.09428 0.0674515 0)
(6.97726 0.0682968 0)
(6.85786 0.0691529 0)
(6.73599 0.0701649 0)
(6.61143 0.0712133 0)
(6.48418 0.0719252 0)
(6.35467 0.0719389 0)
(6.22361 0.0712223 0)
(6.09174 0.0701339 0)
(5.95945 0.0691934 0)
(5.82665 0.0687807 0)
(5.69298 0.0689974 0)
(5.55795 0.0697202 0)
(5.42109 0.0707444 0)
(5.28211 0.0718956 0)
(5.14081 0.0730641 0)
(4.99714 0.0741946 0)
(4.85106 0.0752649 0)
(4.70264 0.076265 0)
(4.5519 0.077187 0)
(4.39894 0.0780192 0)
(4.24384 0.0787485 0)
(4.0867 0.0793577 0)
(3.92767 0.0798316 0)
(3.7669 0.080152 0)
(3.60456 0.0803002 0)
(3.44087 0.0802572 0)
(3.27607 0.0800049 0)
(3.11041 0.0795257 0)
(2.94419 0.0788049 0)
(2.77773 0.0778313 0)
(2.61139 0.0765979 0)
(2.4455 0.0751027 0)
(2.28046 0.0733515 0)
(2.11662 0.071359 0)
(1.95435 0.0691482 0)
(1.794 0.0667523 0)
(1.63587 0.0642126 0)
(1.48023 0.0615804 0)
(1.32728 0.0589139 0)
(1.17716 0.0562774 0)
(1.02992 0.0537368 0)
(0.885535 0.0513577 0)
(0.74388 0.0492038 0)
(0.604736 0.0473287 0)
(0.467814 0.0457804 0)
(0.332699 0.0445742 0)
(0.199027 0.0436852 0)
(0.0661543 0.0433367 0)
(9.97758 0.00722535 0)
(10.0301 0.00781108 0)
(9.99996 0.00921621 0)
(10.0029 0.0114813 0)
(9.9985 0.0142671 0)
(9.98928 0.0173942 0)
(9.97865 0.0206145 0)
(9.96694 0.0237143 0)
(9.95359 0.0266576 0)
(9.9384 0.0295391 0)
(9.92148 0.0324587 0)
(9.90303 0.0354499 0)
(9.88306 0.0385141 0)
(9.86148 0.0416391 0)
(9.83815 0.0447766 0)
(9.81305 0.0478452 0)
(9.78626 0.050792 0)
(9.75798 0.0536323 0)
(9.72831 0.0564264 0)
(9.69729 0.0592108 0)
(9.66479 0.061963 0)
(9.63055 0.0646347 0)
(9.59437 0.0671962 0)
(9.55616 0.0696585 0)
(9.51606 0.0720784 0)
(9.47436 0.0745767 0)
(9.43135 0.0773281 0)
(9.38717 0.0804725 0)
(9.34171 0.0839927 0)
(9.29464 0.0876711 0)
(9.24557 0.0912108 0)
(9.19432 0.0944381 0)
(9.14104 0.0974104 0)
(9.08609 0.100335 0)
(9.02973 0.10339 0)
(8.97188 0.10661 0)
(8.91221 0.109917 0)
(8.85033 0.113223 0)
(8.78604 0.116489 0)
(8.71935 0.119712 0)
(8.65038 0.122904 0)
(8.57926 0.126084 0)
(8.50613 0.129288 0)
(8.43117 0.132543 0)
(8.35452 0.135866 0)
(8.2762 0.139272 0)
(8.19604 0.14282 0)
(8.11374 0.146607 0)
(8.02907 0.150692 0)
(7.94196 0.155003 0)
(7.85238 0.159344 0)
(7.76029 0.163528 0)
(7.66558 0.167527 0)
(7.56813 0.171496 0)
(7.46795 0.175633 0)
(7.36511 0.179973 0)
(7.25961 0.184282 0)
(7.15132 0.188167 0)
(7.03996 0.191327 0)
(6.92533 0.193742 0)
(6.80734 0.195681 0)
(6.68605 0.197533 0)
(6.56163 0.199642 0)
(6.4342 0.20219 0)
(6.30391 0.205195 0)
(6.17083 0.208572 0)
(6.03499 0.212189 0)
(5.8964 0.215927 0)
(5.75505 0.219698 0)
(5.61093 0.223445 0)
(5.464 0.227136 0)
(5.31424 0.230749 0)
(5.16162 0.23426 0)
(5.0061 0.237649 0)
(4.84767 0.240887 0)
(4.6863 0.24394 0)
(4.52197 0.246776 0)
(4.35469 0.249357 0)
(4.18446 0.251643 0)
(4.0113 0.253595 0)
(3.83526 0.255172 0)
(3.65638 0.256338 0)
(3.47473 0.25706 0)
(3.29039 0.25731 0)
(3.10348 0.25707 0)
(2.91412 0.256332 0)
(2.72243 0.255101 0)
(2.52859 0.253398 0)
(2.33275 0.251258 0)
(2.13511 0.248736 0)
(1.93585 0.245901 0)
(1.73518 0.24284 0)
(1.53331 0.239652 0)
(1.33044 0.236449 0)
(1.12677 0.233354 0)
(0.922505 0.230488 0)
(0.71781 0.227988 0)
(0.512844 0.225957 0)
(0.307728 0.224568 0)
(0.102265 0.223559 0)
(9.95434 -1.48274e-05 0)
(10.0085 0.00709622 0)
(9.97774 0.0130394 0)
(9.97891 0.0181292 0)
(9.97322 0.0226527 0)
(9.96307 0.027045 0)
(9.95149 0.0317386 0)
(9.93888 0.0367278 0)
(9.92468 0.04159 0)
(9.90833 0.0460427 0)
(9.88962 0.0502421 0)
(9.8687 0.0545358 0)
(9.84584 0.0590652 0)
(9.82135 0.063662 0)
(9.79537 0.0680655 0)
(9.76784 0.072186 0)
(9.73857 0.0761808 0)
(9.70736 0.0803053 0)
(9.6742 0.0847218 0)
(9.63915 0.0894195 0)
(9.60232 0.0942704 0)
(9.56371 0.0991292 0)
(9.52326 0.103897 0)
(9.48092 0.10852 0)
(9.43663 0.112972 0)
(9.3904 0.117253 0)
(9.34232 0.121421 0)
(9.29254 0.125603 0)
(9.24129 0.129975 0)
(9.18866 0.134668 0)
(9.13458 0.139655 0)
(9.07882 0.144727 0)
(9.02117 0.149622 0)
(8.96163 0.154234 0)
(8.90036 0.158738 0)
(8.83754 0.163467 0)
(8.77321 0.168657 0)
(8.70727 0.17428 0)
(8.63954 0.18011 0)
(8.56981 0.185907 0)
(8.49798 0.191566 0)
(8.42399 0.197098 0)
(8.34783 0.202534 0)
(8.26953 0.207889 0)
(8.18912 0.21322 0)
(8.10668 0.218663 0)
(8.02231 0.224365 0)
(7.9362 0.230368 0)
(7.8485 0.236564 0)
(7.75932 0.242784 0)
(7.66859 0.248927 0)
(7.57603 0.255023 0)
(7.48133 0.261173 0)
(7.38431 0.26744 0)
(7.28502 0.273777 0)
(7.18369 0.280052 0)
(7.08053 0.286127 0)
(6.9755 0.291917 0)
(6.86826 0.297449 0)
(6.75836 0.30287 0)
(6.64539 0.308394 0)
(6.52915 0.314191 0)
(6.40964 0.320312 0)
(6.28702 0.326695 0)
(6.16152 0.33322 0)
(6.03337 0.339778 0)
(5.90273 0.346308 0)
(5.76973 0.352793 0)
(5.63439 0.359242 0)
(5.49674 0.365665 0)
(5.35676 0.37207 0)
(5.21441 0.378451 0)
(5.06966 0.384794 0)
(4.92246 0.391079 0)
(4.77278 0.397277 0)
(4.62056 0.403359 0)
(4.46575 0.409287 0)
(4.30832 0.415024 0)
(4.14818 0.420528 0)
(3.98528 0.425756 0)
(3.81956 0.430662 0)
(3.65095 0.435205 0)
(3.47939 0.439343 0)
(3.3048 0.44304 0)
(3.12712 0.446267 0)
(2.94629 0.449 0)
(2.76228 0.451231 0)
(2.57504 0.452959 0)
(2.38456 0.454198 0)
(2.19086 0.454973 0)
(1.99398 0.455323 0)
(1.794 0.455296 0)
(1.59104 0.45495 0)
(1.38529 0.454354 0)
(1.17695 0.453584 0)
(0.966308 0.452724 0)
(0.75369 0.45187 0)
(0.539449 0.451095 0)
(0.324088 0.450653 0)
(0.107758 0.449729 0)
(9.96334 0.00411959 0)
(10.0102 0.0115689 0)
(9.97651 0.0183524 0)
(9.97753 0.0243065 0)
(9.97221 0.0303983 0)
(9.96204 0.0369011 0)
(9.95017 0.0435595 0)
(9.93719 0.0502552 0)
(9.92267 0.0571398 0)
(9.90619 0.0643199 0)
(9.88759 0.0716123 0)
(9.86692 0.0786792 0)
(9.84439 0.0853197 0)
(9.82008 0.091605 0)
(9.79391 0.0977941 0)
(9.76573 0.104132 0)
(9.73547 0.110695 0)
(9.70327 0.117364 0)
(9.66939 0.123962 0)
(9.63401 0.130401 0)
(9.59712 0.136725 0)
(9.55854 0.14302 0)
(9.51808 0.14932 0)
(9.47566 0.155604 0)
(9.43129 0.161852 0)
(9.38506 0.168074 0)
(9.33697 0.174301 0)
(9.28699 0.18057 0)
(9.23511 0.186933 0)
(9.18137 0.19345 0)
(9.1258 0.200142 0)
(9.06843 0.206937 0)
(9.00914 0.213683 0)
(8.94781 0.22025 0)
(8.88436 0.226622 0)
(8.81882 0.232931 0)
(8.75136 0.239378 0)
(8.68211 0.246124 0)
(8.61115 0.253207 0)
(8.53848 0.260543 0)
(8.46407 0.268009 0)
(8.38783 0.275516 0)
(8.30965 0.283034 0)
(8.22942 0.290552 0)
(8.14703 0.298038 0)
(8.06253 0.305438 0)
(7.97605 0.31271 0)
(7.88779 0.319894 0)
(7.79782 0.327119 0)
(7.70611 0.334567 0)
(7.61255 0.342395 0)
(7.51696 0.350642 0)
(7.41923 0.359201 0)
(7.31927 0.367863 0)
(7.21707 0.376414 0)
(7.11266 0.384739 0)
(7.00606 0.392862 0)
(6.89722 0.400895 0)
(6.78599 0.408968 0)
(6.67217 0.417178 0)
(6.55559 0.42557 0)
(6.43621 0.434132 0)
(6.31411 0.442809 0)
(6.18941 0.451532 0)
(6.06226 0.460236 0)
(5.93279 0.468885 0)
(5.80106 0.477477 0)
(5.6671 0.486023 0)
(5.53094 0.494544 0)
(5.39257 0.503056 0)
(5.252 0.511562 0)
(5.10922 0.520055 0)
(4.96421 0.528524 0)
(4.81698 0.536949 0)
(4.66751 0.545308 0)
(4.51579 0.553577 0)
(4.36181 0.561725 0)
(4.20553 0.569723 0)
(4.04694 0.577537 0)
(3.886 0.585135 0)
(3.72266 0.59248 0)
(3.5569 0.59954 0)
(3.38863 0.60628 0)
(3.2178 0.612672 0)
(3.04432 0.618686 0)
(2.86814 0.624301 0)
(2.68915 0.6295 0)
(2.5073 0.634273 0)
(2.32249 0.63861 0)
(2.13467 0.642513 0)
(1.9438 0.645985 0)
(1.74988 0.64903 0)
(1.55292 0.651658 0)
(1.35303 0.65388 0)
(1.15035 0.655713 0)
(0.945105 0.657175 0)
(0.737602 0.658296 0)
(0.52818 0.659071 0)
(0.317427 0.659714 0)
(0.105565 0.658959 0)
(9.95514 0.0100714 0)
(10.0101 0.0159462 0)
(9.97954 0.0242911 0)
(9.98019 0.0325859 0)
(9.97371 0.0402727 0)
(9.96281 0.0478854 0)
(9.95046 0.0559554 0)
(9.93688 0.0644662 0)
(9.92167 0.0730958 0)
(9.90469 0.0815859 0)
(9.88585 0.0898953 0)
(9.86509 0.0981141 0)
(9.84236 0.106341 0)
(9.81767 0.114628 0)
(9.79114 0.122949 0)
(9.7629 0.131199 0)
(9.73307 0.139242 0)
(9.70165 0.147024 0)
(9.66853 0.154655 0)
(9.63357 0.162375 0)
(9.59674 0.170417 0)
(9.55813 0.178828 0)
(9.51786 0.187435 0)
(9.47593 0.195974 0)
(9.43225 0.204273 0)
(9.38664 0.212338 0)
(9.339 0.220298 0)
(9.28927 0.228299 0)
(9.23755 0.236449 0)
(9.18397 0.244815 0)
(9.12864 0.253417 0)
(9.07158 0.262201 0)
(9.01273 0.27104 0)
(8.95193 0.279809 0)
(8.8891 0.288489 0)
(8.82418 0.29719 0)
(8.7572 0.306058 0)
(8.68823 0.315144 0)
(8.6174 0.324365 0)
(8.54482 0.333606 0)
(8.47058 0.342838 0)
(8.39466 0.352137 0)
(8.3169 0.361582 0)
(8.23707 0.371153 0)
(8.15497 0.380741 0)
(8.07045 0.390256 0)
(7.98352 0.399704 0)
(7.89424 0.409174 0)
(7.80271 0.418756 0)
(7.70906 0.428505 0)
(7.61341 0.43846 0)
(7.5158 0.448664 0)
(7.41622 0.459135 0)
(7.31457 0.469802 0)
(7.21068 0.480517 0)
(7.1044 0.491132 0)
(6.99565 0.501602 0)
(6.88443 0.512013 0)
(6.77076 0.522524 0)
(6.6546 0.53327 0)
(6.53593 0.544295 0)
(6.41468 0.555539 0)
(6.29089 0.566879 0)
(6.16461 0.578187 0)
(6.03591 0.589381 0)
(5.90488 0.600433 0)
(5.77157 0.611362 0)
(5.63601 0.622206 0)
(5.49821 0.633002 0)
(5.35815 0.643777 0)
(5.21583 0.65454 0)
(5.07124 0.665288 0)
(4.92439 0.67601 0)
(4.77528 0.686687 0)
(4.6239 0.697299 0)
(4.47027 0.707819 0)
(4.3144 0.718223 0)
(4.15629 0.728481 0)
(3.99594 0.738566 0)
(3.83338 0.748448 0)
(3.66858 0.758099 0)
(3.50156 0.767494 0)
(3.33231 0.776608 0)
(3.16081 0.785418 0)
(2.98704 0.793908 0)
(2.81099 0.802063 0)
(2.6326 0.809871 0)
(2.45185 0.817322 0)
(2.2687 0.824408 0)
(2.08312 0.83112 0)
(1.89507 0.837443 0)
(1.70453 0.843356 0)
(1.51152 0.848829 0)
(1.31608 0.853817 0)
(1.11831 0.858267 0)
(0.918357 0.862116 0)
(0.716474 0.865306 0)
(0.512919 0.867733 0)
(0.30821 0.869567 0)
(0.10249 0.869069 0)
(9.95489 0.00109475 0)
(10.0092 0.0157312 0)
(9.97922 0.0271935 0)
(9.98129 0.0376097 0)
(9.97617 0.0478777 0)
(9.96601 0.058228 0)
(9.9538 0.0686338 0)
(9.94007 0.0790084 0)
(9.92473 0.0894179 0)
(9.90767 0.100056 0)
(9.88876 0.110948 0)
(9.86795 0.12183 0)
(9.84523 0.132372 0)
(9.82071 0.14244 0)
(9.79451 0.152147 0)
(9.76674 0.161737 0)
(9.73736 0.171437 0)
(9.70627 0.181364 0)
(9.67331 0.191476 0)
(9.63839 0.201609 0)
(9.60152 0.211583 0)
(9.56277 0.221334 0)
(9.52222 0.230951 0)
(9.4799 0.240622 0)
(9.4358 0.250507 0)
(9.38989 0.26065 0)
(9.34219 0.270954 0)
(9.29265 0.281263 0)
(9.2412 0.291471 0)
(9.18777 0.3016 0)
(9.13238 0.311769 0)
(9.07516 0.322092 0)
(9.01629 0.332574 0)
(8.95582 0.343124 0)
(8.89367 0.353647 0)
(8.82968 0.364134 0)
(8.76375 0.374657 0)
(8.69585 0.385282 0)
(8.626 0.395998 0)
(8.55415 0.40676 0)
(8.48022 0.417581 0)
(8.40415 0.428595 0)
(8.326 0.439981 0)
(8.24582 0.451814 0)
(8.16366 0.463968 0)
(8.07942 0.476187 0)
(7.99299 0.488234 0)
(7.90429 0.500026 0)
(7.81334 0.511641 0)
(7.72022 0.523263 0)
(7.62494 0.53509 0)
(7.52745 0.547285 0)
(7.42765 0.559917 0)
(7.32546 0.572926 0)
(7.22083 0.58614 0)
(7.11376 0.599354 0)
(7.00424 0.612447 0)
(6.89227 0.625442 0)
(6.77786 0.638483 0)
(6.66096 0.651723 0)
(6.54154 0.66523 0)
(6.4196 0.678944 0)
(6.29517 0.692722 0)
(6.16827 0.706414 0)
(6.03896 0.71993 0)
(5.90729 0.733257 0)
(5.77329 0.746439 0)
(5.63696 0.759537 0)
(5.49832 0.772604 0)
(5.35734 0.785668 0)
(5.21402 0.798736 0)
(5.06833 0.811802 0)
(4.92028 0.824847 0)
(4.76985 0.837846 0)
(4.61707 0.850774 0)
(4.46192 0.863601 0)
(4.30443 0.876298 0)
(4.1446 0.888833 0)
(3.98246 0.901177 0)
(3.81803 0.9133 0)
(3.65134 0.925172 0)
(3.48241 0.936769 0)
(3.31128 0.948069 0)
(3.13796 0.959053 0)
(2.96251 0.969705 0)
(2.78494 0.980016 0)
(2.60528 0.989978 0)
(2.42356 0.999584 0)
(2.23981 1.00883 0)
(2.05405 1.0177 0)
(1.86631 1.02617 0)
(1.67661 1.03422 0)
(1.48502 1.04179 0)
(1.29158 1.0488 0)
(1.09638 1.05518 0)
(0.899544 1.06078 0)
(0.701273 1.0655 0)
(0.501747 1.06915 0)
(0.301382 1.07189 0)
(0.100199 1.0715 0)
(9.97046 0.00714574 0)
(10.0165 0.0204113 0)
(9.98301 0.0325817 0)
(9.98414 0.0442287 0)
(9.97846 0.0562154 0)
(9.9678 0.0688231 0)
(9.95547 0.0816101 0)
(9.94193 0.0940553 0)
(9.92667 0.106068 0)
(9.90947 0.117905 0)
(9.89049 0.129806 0)
(9.86997 0.141795 0)
(9.84799 0.153752 0)
(9.82432 0.16557 0)
(9.79872 0.177211 0)
(9.771 0.188699 0)
(9.74121 0.200095 0)
(9.70956 0.21148 0)
(9.67621 0.222948 0)
(9.64119 0.234592 0)
(9.60442 0.246465 0)
(9.56577 0.258549 0)
(9.52513 0.270737 0)
(9.48248 0.282859 0)
(9.4379 0.294778 0)
(9.39151 0.306481 0)
(9.34347 0.31811 0)
(9.29382 0.329883 0)
(9.24248 0.341941 0)
(9.18928 0.354251 0)
(9.13408 0.36663 0)
(9.07693 0.378891 0)
(9.01796 0.390982 0)
(8.95732 0.403018 0)
(8.89504 0.415194 0)
(8.831 0.427646 0)
(8.76505 0.440391 0)
(8.69713 0.453367 0)
(8.6272 0.466519 0)
(8.55526 0.479823 0)
(8.48123 0.493267 0)
(8.40502 0.50681 0)
(8.32661 0.520397 0)
(8.24608 0.534006 0)
(8.16361 0.547671 0)
(8.07928 0.561446 0)
(7.99306 0.575335 0)
(7.90483 0.589286 0)
(7.81447 0.603257 0)
(7.72196 0.617302 0)
(7.62728 0.63158 0)
(7.53037 0.646262 0)
(7.4311 0.661399 0)
(7.32938 0.676868 0)
(7.22518 0.692435 0)
(7.11862 0.707901 0)
(7.00978 0.723217 0)
(6.89874 0.738493 0)
(6.7854 0.753921 0)
(6.66961 0.769645 0)
(6.55121 0.785687 0)
(6.43012 0.801938 0)
(6.30632 0.818222 0)
(6.17987 0.834381 0)
(6.05086 0.85033 0)
(5.91935 0.866064 0)
(5.78539 0.881636 0)
(5.649 0.897119 0)
(5.51018 0.912571 0)
(5.36894 0.928027 0)
(5.22527 0.943496 0)
(5.07916 0.958972 0)
(4.93059 0.974432 0)
(4.77957 0.989849 0)
(4.62607 1.00519 0)
(4.47012 1.02043 0)
(4.31171 1.03552 0)
(4.15086 1.05043 0)
(3.98758 1.06512 0)
(3.82191 1.07957 0)
(3.65386 1.09373 0)
(3.48349 1.10757 0)
(3.31083 1.12108 0)
(3.13594 1.13422 0)
(2.95887 1.14698 0)
(2.77969 1.15935 0)
(2.59848 1.17131 0)
(2.41531 1.18287 0)
(2.23025 1.194 0)
(2.04339 1.20469 0)
(1.85482 1.21494 0)
(1.66464 1.22469 0)
(1.47294 1.23388 0)
(1.27982 1.24243 0)
(1.08539 1.25023 0)
(0.889779 1.25712 0)
(0.693158 1.26295 0)
(0.495656 1.26748 0)
(0.297605 1.27086 0)
(0.0989244 1.27048 0)
(9.99296 0.0113668 0)
(10.0446 0.0242697 0)
(10.0125 0.0387525 0)
(10.0129 0.0523746 0)
(10.0065 0.0655398 0)
(9.99532 0.0791241 0)
(9.98251 0.0932632 0)
(9.96839 0.107627 0)
(9.95259 0.121953 0)
(9.93507 0.136155 0)
(9.9159 0.150199 0)
(9.89504 0.164062 0)
(9.87238 0.1778 0)
(9.84785 0.191525 0)
(9.82145 0.205286 0)
(9.79315 0.219013 0)
(9.76286 0.232612 0)
(9.73052 0.246096 0)
(9.69617 0.259566 0)
(9.65998 0.27311 0)
(9.62219 0.286719 0)
(9.58296 0.300338 0)
(9.54231 0.313942 0)
(9.50016 0.327543 0)
(9.45631 0.341142 0)
(9.41057 0.354717 0)
(9.36284 0.368264 0)
(9.31312 0.381856 0)
(9.26156 0.395613 0)
(9.2083 0.409593 0)
(9.15337 0.423722 0)
(9.09671 0.437838 0)
(9.03821 0.451827 0)
(8.97776 0.465724 0)
(8.91532 0.479684 0)
(8.85088 0.493864 0)
(8.7844 0.508305 0)
(8.71591 0.522941 0)
(8.6455 0.537689 0)
(8.5733 0.552553 0)
(8.49939 0.567629 0)
(8.42371 0.583013 0)
(8.34612 0.598701 0)
(8.26639 0.614588 0)
(8.18444 0.630556 0)
(8.10027 0.64654 0)
(8.01393 0.662524 0)
(7.92543 0.678488 0)
(7.83474 0.694425 0)
(7.74179 0.710414 0)
(7.64657 0.726677 0)
(7.54909 0.743482 0)
(7.44933 0.760945 0)
(7.34726 0.778902 0)
(7.24286 0.79698 0)
(7.13612 0.814848 0)
(7.02713 0.832432 0)
(6.91593 0.849948 0)
(6.80246 0.867735 0)
(6.68659 0.886029 0)
(6.56815 0.904827 0)
(6.44703 0.923921 0)
(6.32318 0.943022 0)
(6.19667 0.961904 0)
(6.0676 0.980467 0)
(5.93602 0.998731 0)
(5.80202 1.01678 0)
(5.6656 1.03472 0)
(5.52676 1.05262 0)
(5.38548 1.07053 0)
(5.24173 1.08847 0)
(5.0955 1.10642 0)
(4.94676 1.12438 0)
(4.7955 1.14229 0)
(4.64171 1.16014 0)
(4.48538 1.17787 0)
(4.32651 1.19546 0)
(4.16511 1.21286 0)
(4.00119 1.23001 0)
(3.83477 1.24689 0)
(3.66589 1.26345 0)
(3.49458 1.27966 0)
(3.32088 1.29547 0)
(3.14486 1.31086 0)
(2.96658 1.32579 0)
(2.78613 1.34025 0)
(2.6036 1.35421 0)
(2.41908 1.36767 0)
(2.23271 1.3806 0)
(2.04459 1.39299 0)
(1.85486 1.40481 0)
(1.66366 1.41602 0)
(1.47114 1.42655 0)
(1.27742 1.43632 0)
(1.08268 1.44519 0)
(0.88703 1.45301 0)
(0.690657 1.45962 0)
(0.493661 1.46475 0)
(0.29632 1.46859 0)
(0.0984846 1.4681 0)
(9.97748 0.00960043 0)
(10.0313 0.0262447 0)
(10.0003 0.0429919 0)
(10.0014 0.0591536 0)
(9.99513 0.0750789 0)
(9.98401 0.091365 0)
(9.97128 0.107944 0)
(9.95744 0.124248 0)
(9.94215 0.139894 0)
(9.92529 0.155026 0)
(9.90682 0.170101 0)
(9.88667 0.185443 0)
(9.86469 0.201026 0)
(9.84078 0.21662 0)
(9.81496 0.232082 0)
(9.78732 0.247471 0)
(9.75787 0.262899 0)
(9.72657 0.27834 0)
(9.69345 0.293647 0)
(9.65862 0.308725 0)
(9.62216 0.323641 0)
(9.58408 0.338578 0)
(9.54425 0.353689 0)
(9.50259 0.369019 0)
(9.45906 0.384527 0)
(9.41367 0.400129 0)
(9.36643 0.415746 0)
(9.31738 0.431344 0)
(9.26658 0.446944 0)
(9.21416 0.462605 0)
(9.16018 0.478354 0)
(9.10455 0.494165 0)
(9.04711 0.510007 0)
(8.98773 0.525931 0)
(8.92636 0.542064 0)
(8.86304 0.558519 0)
(8.79784 0.575272 0)
(8.73076 0.592166 0)
(8.66174 0.609033 0)
(8.59072 0.625853 0)
(8.51763 0.642779 0)
(8.44244 0.66002 0)
(8.36512 0.677663 0)
(8.28567 0.695621 0)
(8.20411 0.713728 0)
(8.12042 0.731873 0)
(8.03456 0.75006 0)
(7.94647 0.768335 0)
(7.85602 0.786726 0)
(7.76312 0.805268 0)
(7.66775 0.824059 0)
(7.56995 0.843262 0)
(7.46987 0.862972 0)
(7.36764 0.883092 0)
(7.26332 0.903328 0)
(7.15687 0.923388 0)
(7.04817 0.943197 0)
(6.93707 0.962977 0)
(6.82348 0.983093 0)
(6.70729 1.00381 0)
(6.58845 1.02513 0)
(6.46694 1.04681 0)
(6.34281 1.0685 0)
(6.2161 1.08991 0)
(6.08689 1.11094 0)
(5.95526 1.13162 0)
(5.82125 1.15205 0)
(5.68486 1.17238 0)
(5.54606 1.19269 0)
(5.40482 1.21306 0)
(5.26111 1.23348 0)
(5.11488 1.25395 0)
(4.9661 1.27443 0)
(4.81477 1.2949 0)
(4.66084 1.31531 0)
(4.50432 1.33562 0)
(4.3452 1.35578 0)
(4.18348 1.37574 0)
(4.01916 1.39544 0)
(3.85227 1.41485 0)
(3.68283 1.43391 0)
(3.51088 1.45256 0)
(3.33645 1.47077 0)
(3.15961 1.48849 0)
(2.98043 1.50568 0)
(2.79899 1.52232 0)
(2.6154 1.53834 0)
(2.42977 1.55375 0)
(2.24222 1.56849 0)
(2.05289 1.58255 0)
(1.86196 1.59589 0)
(1.66958 1.60846 0)
(1.47593 1.6202 0)
(1.28118 1.63101 0)
(1.08551 1.64077 0)
(0.889068 1.64932 0)
(0.692044 1.65651 0)
(0.494537 1.66206 0)
(0.296796 1.66622 0)
(0.0986369 1.66555 0)
(9.96811 0.00996423 0)
(10.0207 0.0296312 0)
(9.99003 0.0479972 0)
(9.99172 0.0657926 0)
(9.98618 0.0834836 0)
(9.97579 0.10128 0)
(9.96397 0.119085 0)
(9.9512 0.136695 0)
(9.93694 0.154053 0)
(9.92072 0.171282 0)
(9.90235 0.188559 0)
(9.88201 0.205993 0)
(9.85997 0.22355 0)
(9.83633 0.241117 0)
(9.81099 0.258589 0)
(9.78382 0.275942 0)
(9.75474 0.293199 0)
(9.72384 0.310358 0)
(9.69116 0.327377 0)
(9.65671 0.344263 0)
(9.62045 0.361129 0)
(9.58238 0.378124 0)
(9.54255 0.395306 0)
(9.50104 0.412611 0)
(9.4579 0.429937 0)
(9.41309 0.447221 0)
(9.36654 0.464445 0)
(9.31818 0.48161 0)
(9.26804 0.498747 0)
(9.21612 0.515942 0)
(9.16248 0.533312 0)
(9.10706 0.55091 0)
(9.04979 0.568692 0)
(8.99061 0.586565 0)
(8.9295 0.604494 0)
(8.86655 0.622532 0)
(8.80186 0.640758 0)
(8.73546 0.659209 0)
(8.66724 0.677883 0)
(8.59706 0.6968 0)
(8.52475 0.716029 0)
(8.45024 0.73562 0)
(8.37357 0.755534 0)
(8.29483 0.775655 0)
(8.21409 0.795871 0)
(8.13133 0.816156 0)
(8.04638 0.836559 0)
(7.95908 0.85713 0)
(7.8693 0.877879 0)
(7.77705 0.898814 0)
(7.68245 0.91999 0)
(7.5856 0.941505 0)
(7.48658 0.963407 0)
(7.38537 0.985608 0)
(7.28189 1.00791 0)
(7.17605 1.03016 0)
(7.06771 1.05235 0)
(6.9568 1.07473 0)
(6.84325 1.09759 0)
(6.72706 1.1211 0)
(6.60825 1.14519 0)
(6.48685 1.16957 0)
(6.36292 1.19387 0)
(6.23647 1.21782 0)
(6.10755 1.24129 0)
(5.97621 1.26437 0)
(5.84244 1.2872 0)
(5.70626 1.30992 0)
(5.56764 1.33267 0)
(5.42654 1.3555 0)
(5.28293 1.37843 0)
(5.13677 1.40144 0)
(4.98802 1.42451 0)
(4.83665 1.44757 0)
(4.68266 1.4706 0)
(4.52601 1.49354 0)
(4.3667 1.51633 0)
(4.20474 1.53892 0)
(4.04012 1.56124 0)
(3.87285 1.58324 0)
(3.70296 1.60487 0)
(3.53049 1.62606 0)
(3.35546 1.64675 0)
(3.17795 1.66689 0)
(2.99801 1.68642 0)
(2.81574 1.7053 0)
(2.63123 1.72346 0)
(2.4446 1.74088 0)
(2.25597 1.7575 0)
(2.06552 1.77328 0)
(1.87339 1.78816 0)
(1.67977 1.8021 0)
(1.48485 1.81502 0)
(1.28883 1.82682 0)
(1.09188 1.83739 0)
(0.894206 1.84659 0)
(0.695977 1.85428 0)
(0.497306 1.86017 0)
(0.29844 1.86458 0)
(0.0991829 1.86371 0)
(9.96461 0.00875911 0)
(10.0173 0.0307045 0)
(9.9861 0.0516075 0)
(9.98781 0.0718229 0)
(9.9824 0.0918409 0)
(9.9721 0.111951 0)
(9.96021 0.131985 0)
(9.94722 0.151663 0)
(9.93256 0.170958 0)
(9.91589 0.190028 0)
(9.89728 0.208988 0)
(9.87698 0.227881 0)
(9.8552 0.246752 0)
(9.83195 0.265685 0)
(9.80712 0.284731 0)
(9.78057 0.30387 0)
(9.75221 0.32301 0)
(9.72201 0.342041 0)
(9.68994 0.360888 0)
(9.65592 0.37955 0)
(9.61994 0.398087 0)
(9.5821 0.416583 0)
(9.5426 0.435111 0)
(9.50159 0.453744 0)
(9.45909 0.472549 0)
(9.41499 0.491549 0)
(9.36919 0.510689 0)
(9.32157 0.529866 0)
(9.27211 0.549008 0)
(9.22081 0.568138 0)
(9.16771 0.587355 0)
(9.11286 0.606751 0)
(9.05628 0.626338 0)
(8.99792 0.646078 0)
(8.93769 0.665948 0)
(8.87547 0.685972 0)
(8.81119 0.706191 0)
(8.74482 0.726628 0)
(8.67639 0.747294 0)
(8.60596 0.768235 0)
(8.53354 0.789519 0)
(8.45911 0.811159 0)
(8.38262 0.833063 0)
(8.30404 0.855096 0)
(8.22339 0.877225 0)
(8.14069 0.899567 0)
(8.05596 0.922276 0)
(7.96912 0.945369 0)
(7.88007 0.968683 0)
(7.78874 0.992033 0)
(7.69515 1.01542 0)
(7.5994 1.03904 0)
(7.5015 1.06312 0)
(7.40141 1.08769 0)
(7.29895 1.11258 0)
(7.19396 1.13751 0)
(7.0863 1.16239 0)
(6.97592 1.18741 0)
(6.86281 1.21281 0)
(6.74703 1.23879 0)
(6.62865 1.26532 0)
(6.50773 1.29213 0)
(6.3843 1.31888 0)
(6.25838 1.34527 0)
(6.12998 1.3712 0)
(5.99911 1.39673 0)
(5.86576 1.422 0)
(5.72992 1.44719 0)
(5.59156 1.47243 0)
(5.45067 1.49778 0)
(5.30722 1.52327 0)
(5.16116 1.54888 0)
(5.01246 1.57456 0)
(4.8611 1.60028 0)
(4.70706 1.62598 0)
(4.55031 1.6516 0)
(4.39084 1.67707 0)
(4.22864 1.70235 0)
(4.06373 1.72736 0)
(3.8961 1.75203 0)
(3.72578 1.7763 0)
(3.55281 1.80009 0)
(3.37721 1.82334 0)
(3.19905 1.84597 0)
(3.01838 1.86792 0)
(2.8353 1.88912 0)
(2.6499 1.90951 0)
(2.4623 1.92902 0)
(2.27262 1.94759 0)
(2.08103 1.96516 0)
(1.88768 1.98166 0)
(1.69276 1.99702 0)
(1.49647 2.01117 0)
(1.299 2.024 0)
(1.10057 2.03542 0)
(0.901359 2.04527 0)
(0.701564 2.05344 0)
(0.50131 2.05967 0)
(0.300846 2.06433 0)
(0.0999862 2.06325 0)
(9.96591 0.0116285 0)
(10.0171 0.0348821 0)
(9.98636 0.0565846 0)
(9.98779 0.0781916 0)
(9.98174 0.0999984 0)
(9.97104 0.121706 0)
(9.959 0.143151 0)
(9.94598 0.164388 0)
(9.93158 0.1855 0)
(9.91554 0.206477 0)
(9.89767 0.227281 0)
(9.87789 0.247919 0)
(9.85614 0.268486 0)
(9.83244 0.289109 0)
(9.80689 0.309864 0)
(9.77966 0.330723 0)
(9.75093 0.351614 0)
(9.72083 0.372486 0)
(9.68938 0.39333 0)
(9.65648 0.414133 0)
(9.62189 0.434834 0)
(9.58544 0.455365 0)
(9.54699 0.475731 0)
(9.5065 0.496048 0)
(9.46404 0.516468 0)
(9.41971 0.537074 0)
(9.37365 0.557834 0)
(9.32593 0.578659 0)
(9.27653 0.599492 0)
(9.22534 0.62035 0)
(9.17226 0.6413 0)
(9.11729 0.662412 0)
(9.06046 0.683723 0)
(9.00181 0.705263 0)
(8.94135 0.727062 0)
(8.87905 0.749148 0)
(8.8149 0.771508 0)
(8.74884 0.794076 0)
(8.68085 0.816787 0)
(8.6109 0.839667 0)
(8.53902 0.862851 0)
(8.46523 0.886474 0)
(8.38954 0.910522 0)
(8.31187 0.934815 0)
(8.23216 0.959159 0)
(8.15033 0.983537 0)
(8.06644 1.00811 0)
(7.9805 1.03303 0)
(7.89249 1.0583 0)
(7.80229 1.08378 0)
(7.7098 1.10939 0)
(7.61494 1.13522 0)
(7.51776 1.16147 0)
(7.41833 1.18822 0)
(7.31664 1.2154 0)
(7.21264 1.24285 0)
(7.10616 1.27044 0)
(6.99702 1.29828 0)
(6.88506 1.32654 0)
(6.7702 1.35533 0)
(6.6525 1.38457 0)
(6.53204 1.414 0)
(6.40895 1.44328 0)
(6.28333 1.47218 0)
(6.15524 1.50061 0)
(6.02468 1.52863 0)
(5.89163 1.55642 0)
(5.75609 1.58414 0)
(5.618 1.61192 0)
(5.47734 1.63986 0)
(5.33407 1.66796 0)
(5.18814 1.69622 0)
(5.03952 1.72458 0)
(4.88819 1.753 0)
(4.73411 1.78142 0)
(4.57726 1.80978 0)
(4.41763 1.83802 0)
(4.2552 1.86605 0)
(4.08999 1.89381 0)
(3.922 1.92122 0)
(3.75123 1.9482 0)
(3.57773 1.97466 0)
(3.40153 2.00055 0)
(3.22268 2.02575 0)
(3.04125 2.0502 0)
(2.85733 2.07381 0)
(2.67099 2.0965 0)
(2.48236 2.11819 0)
(2.29158 2.1388 0)
(2.09878 2.15825 0)
(1.90413 2.17645 0)
(1.70782 2.19333 0)
(1.51003 2.20879 0)
(1.31098 2.22274 0)
(1.11088 2.23505 0)
(0.909909 2.24562 0)
(0.70829 2.25433 0)
(0.506155 2.26092 0)
(0.303771 2.26586 0)
(0.100965 2.2646 0)
(9.95499 0.0112191 0)
(10.0044 0.0364097 0)
(9.97234 0.0611041 0)
(9.97381 0.0852229 0)
(9.96831 0.109176 0)
(9.95833 0.132984 0)
(9.947 0.156429 0)
(9.93437 0.179381 0)
(9.91985 0.201927 0)
(9.90338 0.224318 0)
(9.88522 0.2468 0)
(9.86552 0.26947 0)
(9.84427 0.292269 0)
(9.82133 0.315062 0)
(9.79658 0.337696 0)
(9.76997 0.36004 0)
(9.74155 0.382036 0)
(9.71147 0.403758 0)
(9.67984 0.425402 0)
(9.64672 0.447185 0)
(9.61209 0.469242 0)
(9.57592 0.491578 0)
(9.53816 0.514116 0)
(9.49876 0.536751 0)
(9.45759 0.55939 0)
(9.41456 0.581975 0)
(9.36962 0.604498 0)
(9.32284 0.627018 0)
(9.27432 0.649631 0)
(9.22414 0.67241 0)
(9.17225 0.695375 0)
(9.11855 0.718496 0)
(9.06293 0.741741 0)
(9.00534 0.765105 0)
(8.94582 0.78862 0)
(8.8844 0.812342 0)
(8.82111 0.836335 0)
(8.75594 0.86063 0)
(8.68884 0.88522 0)
(8.61971 0.910085 0)
(8.54855 0.935232 0)
(8.47538 0.960689 0)
(8.40032 0.986465 0)
(8.32342 1.01251 0)
(8.2447 1.03878 0)
(8.16403 1.06527 0)
(8.08125 1.09207 0)
(7.99627 1.11926 0)
(7.90905 1.14681 0)
(7.8196 1.17463 0)
(7.72792 1.20266 0)
(7.63392 1.23095 0)
(7.53754 1.25962 0)
(7.43872 1.28871 0)
(7.33752 1.31815 0)
(7.23399 1.34787 0)
(7.12813 1.37789 0)
(7.01985 1.40837 0)
(6.90895 1.43947 0)
(6.79521 1.47121 0)
(6.67851 1.50337 0)
(6.55883 1.5356 0)
(6.43629 1.56753 0)
(6.31105 1.59896 0)
(6.18324 1.62985 0)
(6.05295 1.66033 0)
(5.92017 1.6906 0)
(5.78489 1.72083 0)
(5.64706 1.75119 0)
(5.50664 1.78173 0)
(5.36356 1.81249 0)
(5.21779 1.84343 0)
(5.06928 1.87453 0)
(4.91799 1.90572 0)
(4.7639 1.93693 0)
(4.60696 1.9681 0)
(4.44718 1.99916 0)
(4.28452 2.03001 0)
(4.11899 2.0606 0)
(3.95061 2.09083 0)
(3.77937 2.1206 0)
(3.6053 2.14982 0)
(3.42846 2.17842 0)
(3.24887 2.20628 0)
(3.06661 2.23331 0)
(2.88176 2.25943 0)
(2.6944 2.28451 0)
(2.50466 2.30847 0)
(2.31265 2.33121 0)
(2.11853 2.35264 0)
(1.92247 2.37265 0)
(1.72463 2.39114 0)
(1.52521 2.40802 0)
(1.32441 2.42318 0)
(1.12246 2.4365 0)
(0.919543 2.44787 0)
(0.715886 2.4572 0)
(0.511639 2.46422 0)
(0.307085 2.46947 0)
(0.102074 2.46804 0)
(9.9643 0.0159719 0)
(10.0154 0.0410716 0)
(9.9844 0.0668358 0)
(9.98616 0.0920061 0)
(9.9804 0.116695 0)
(9.96979 0.141357 0)
(9.95802 0.166362 0)
(9.94548 0.191583 0)
(9.93143 0.216558 0)
(9.91532 0.241006 0)
(9.89715 0.264982 0)
(9.87711 0.288751 0)
(9.85543 0.312597 0)
(9.83217 0.336718 0)
(9.80731 0.36113 0)
(9.78078 0.385654 0)
(9.75249 0.410034 0)
(9.72233 0.434145 0)
(9.69033 0.458055 0)
(9.6566 0.481892 0)
(9.62131 0.505684 0)
(9.58457 0.529377 0)
(9.54638 0.553002 0)
(9.50666 0.576737 0)
(9.4653 0.600784 0)
(9.42223 0.625164 0)
(9.37736 0.649679 0)
(9.33065 0.674092 0)
(9.28208 0.698339 0)
(9.23169 0.722587 0)
(9.17953 0.747074 0)
(9.12556 0.771933 0)
(9.06972 0.797137 0)
(9.01197 0.822581 0)
(8.95234 0.848208 0)
(8.89085 0.874038 0)
(8.82759 0.900118 0)
(8.7626 0.926471 0)
(8.69591 0.953096 0)
(8.62752 0.979999 0)
(8.55735 1.0072 0)
(8.48531 1.03473 0)
(8.41128 1.0625 0)
(8.33519 1.09047 0)
(8.25703 1.11862 0)
(8.1768 1.14706 0)
(8.09448 1.17596 0)
(8.01 1.20533 0)
(7.9233 1.23506 0)
(7.83443 1.26501 0)
(7.74341 1.29517 0)
(7.65026 1.32569 0)
(7.55488 1.35674 0)
(7.45712 1.38831 0)
(7.35691 1.42023 0)
(7.25426 1.45232 0)
(7.14926 1.48466 0)
(7.04195 1.51752 0)
(6.93223 1.55121 0)
(6.81987 1.58578 0)
(6.70459 1.62094 0)
(6.58624 1.65618 0)
(6.4648 1.69103 0)
(6.34042 1.7252 0)
(6.21326 1.75869 0)
(6.08347 1.7917 0)
(5.95111 1.82447 0)
(5.8162 1.85725 0)
(5.6787 1.89018 0)
(5.53857 1.92337 0)
(5.39575 1.95682 0)
(5.25018 1.99051 0)
(5.10181 2.02439 0)
(4.9506 2.0584 0)
(4.79651 2.09248 0)
(4.63951 2.12653 0)
(4.47957 2.16049 0)
(4.31669 2.19425 0)
(4.15084 2.22775 0)
(3.98204 2.26088 0)
(3.8103 2.29353 0)
(3.63563 2.32561 0)
(3.45808 2.35701 0)
(3.27769 2.38763 0)
(3.09452 2.41735 0)
(2.90865 2.44605 0)
(2.72018 2.47363 0)
(2.5292 2.49997 0)
(2.33586 2.52495 0)
(2.14028 2.54847 0)
(1.94265 2.5704 0)
(1.74312 2.59062 0)
(1.5419 2.60903 0)
(1.33918 2.62551 0)
(1.1352 2.63995 0)
(0.930136 2.65222 0)
(0.72424 2.66224 0)
(0.51767 2.66977 0)
(0.310731 2.67539 0)
(0.103295 2.67381 0)
(9.96815 0.0138842 0)
(10.0214 0.0426819 0)
(9.9905 0.07055 0)
(9.99216 0.0984378 0)
(9.98651 0.126125 0)