/*--------------------------------*- C++ -*----------------------------------*\
| =========                 |                                                 |
| \\      /  F ield         | OpenFOAM: The Open Source CFD Toolbox           |
|  \\    /   O peration     | Version:  4.1                                   |
|   \\  /    A nd           | Web:      www.OpenFOAM.org                      |
|    \\/     M anipulation  |                                                 |
\*---------------------------------------------------------------------------*/
FoamFile
{
    version     2.0;
    format      ascii;
    class       volSymmTensorField;
    location    "0.15";
    object      UPrime2Mean;
}
// * * * * * * * * * * * * * * * * * * * * * * * * * * * * * * * * * * * * * //

dimensions      [0 2 -2 0 0 0 0];

internalField   nonuniform List<symmTensor> 
43750
(
(0.0527919 0.00275564 0 0.0100288 0 0)
(0.0258179 0.0028853 0 0.00333858 0 0)
(0.00958124 0.00079595 0 0.00146634 0 0)
(0.00409167 0.000291151 0 0.000850037 0 0)
(0.00327554 5.64801e-05 0 0.000556624 0 0)
(0.00339107 -5.22283e-05 0 0.000437973 0 0)
(0.00371757 -7.23359e-05 0 0.000416375 0 0)
(0.00405716 -7.22775e-05 0 0.000421925 0 0)
(0.00456942 -0.000104309 0 0.000418973 0 0)
(0.00537408 -0.000161048 0 0.000403382 0 0)
(0.00647151 -0.000215012 0 0.000389752 0 0)
(0.00778787 -0.00024922 0 0.000380607 0 0)
(0.00925066 -0.00026281 0 0.000374023 0 0)
(0.0108324 -0.00027646 0 0.000371109 0 0)
(0.0125504 -0.000310869 0 0.000360863 0 0)
(0.0144352 -0.000354203 0 0.000338279 0 0)
(0.0164834 -0.000375766 0 0.000323535 0 0)
(0.018648 -0.000358958 0 0.000321611 0 0)
(0.0208571 -0.000299564 0 0.000307388 0 0)
(0.0230431 -0.000205725 0 0.000280029 0 0)
(0.0251758 -0.000115681 0 0.000267666 0 0)
(0.0272877 -6.95842e-05 0 0.000272056 0 0)
(0.0294366 -5.86104e-05 0 0.000271717 0 0)
(0.0316342 -3.81626e-05 0 0.000266337 0 0)
(0.033838 1.76122e-05 0 0.000269442 0 0)
(0.0359896 0.000104036 0 0.000274851 0 0)
(0.0380359 0.00021337 0 0.000268557 0 0)
(0.0399209 0.000340304 0 0.000258456 0 0)
(0.0415736 0.000461816 0 0.000259092 0 0)
(0.0429474 0.000544969 0 0.000262811 0 0)
(0.0440595 0.000592685 0 0.000258572 0 0)
(0.0449508 0.00065195 0 0.000256104 0 0)
(0.045629 0.000764903 0 0.000260716 0 0)
(0.0460514 0.00093494 0 0.000262122 0 0)
(0.0461499 0.00112876 0 0.000261711 0 0)
(0.045891 0.00129706 0 0.000268775 0 0)
(0.0452992 0.00141187 0 0.000279655 0 0)
(0.0444224 0.00148723 0 0.00028897 0 0)
(0.0432995 0.00155441 0 0.000299464 0 0)
(0.0419412 0.00163031 0 0.000313407 0 0)
(0.0403516 0.00171784 0 0.000330216 0 0)
(0.0385343 0.00182308 0 0.000348803 0 0)
(0.0364759 0.00195961 0 0.000365791 0 0)
(0.0341422 0.00213313 0 0.000375304 0 0)
(0.0315123 0.00232388 0 0.00037955 0 0)
(0.0286038 0.00248478 0 0.000392287 0 0)
(0.0254875 0.00257172 0 0.000421075 0 0)
(0.022247 0.00257798 0 0.000460583 0 0)
(0.0189322 0.00252289 0 0.000505526 0 0)
(0.0155811 0.00241264 0 0.000554944 0 0)
(0.0122869 0.00222424 0 0.000606274 0 0)
(0.00924491 0.00193587 0 0.000652653 0 0)
(0.00668773 0.00156744 0 0.00069196 0 0)
(0.0047861 0.00116613 0 0.000736302 0 0)
(0.00362801 0.00074745 0 0.000796808 0 0)
(0.00330873 0.000275854 0 0.000867113 0 0)
(0.00402008 -0.000298219 0 0.000918664 0 0)
(0.00604204 -0.000956176 0 0.000891311 0 0)
(0.00955303 -0.00154375 0 0.000736033 0 0)
(0.0143744 -0.00186303 0 0.000495009 0 0)
(0.0199684 -0.00186759 0 0.000275375 0 0)
(0.0257477 -0.00170176 0 0.000141998 0 0)
(0.0313863 -0.00155128 0 8.49811e-05 0 0)
(0.0368721 -0.00151018 0 6.74835e-05 0 0)
(0.042374 -0.00157375 0 6.43431e-05 0 0)
(0.048101 -0.00169774 0 6.53655e-05 0 0)
(0.0542071 -0.00184201 0 6.71618e-05 0 0)
(0.0607859 -0.00198362 0 6.84923e-05 0 0)
(0.0678735 -0.00211364 0 6.89627e-05 0 0)
(0.0754797 -0.00222955 0 6.85476e-05 0 0)
(0.0835846 -0.00232925 0 6.72717e-05 0 0)
(0.0921596 -0.00240829 0 6.50624e-05 0 0)
(0.101163 -0.00245989 0 6.18002e-05 0 0)
(0.110529 -0.00247499 0 5.73401e-05 0 0)
(0.120178 -0.00244377 0 5.16257e-05 0 0)
(0.130002 -0.00235493 0 4.46732e-05 0 0)
(0.139858 -0.00219621 0 3.66381e-05 0 0)
(0.149573 -0.00195476 0 2.78727e-05 0 0)
(0.158941 -0.00161753 0 1.89838e-05 0 0)
(0.167706 -0.00117231 0 1.09171e-05 0 0)
(0.175581 -0.000609325 0 5.02332e-06 0 0)
(0.18225 7.74465e-05 0 3.10075e-06 0 0)
(0.187371 0.000888213 0 7.40248e-06 0 0)
(0.190584 0.00181623 0 2.0586e-05 0 0)
(0.191549 0.00284549 0 4.55974e-05 0 0)
(0.189955 0.00394862 0 8.54321e-05 0 0)
(0.185556 0.00508742 0 0.000142849 0 0)
(0.178197 0.00621236 0 0.000219968 0 0)
(0.167857 0.00726533 0 0.000317914 0 0)
(0.154653 0.00818159 0 0.000436396 0 0)
(0.138888 0.00889483 0 0.000573417 0 0)
(0.121035 0.00934189 0 0.000725111 0 0)
(0.101743 0.00947018 0 0.000885995 0 0)
(0.0818109 0.00924241 0 0.00104923 0 0)
(0.0621545 0.00864091 0 0.00120708 0 0)
(0.0437495 0.00767186 0 0.00135192 0 0)
(0.0275639 0.00636353 0 0.00147652 0 0)
(0.0145111 0.00477031 0 0.00157634 0 0)
(0.00533085 0.0029587 0 0.00165087 0 0)
(0.000599028 0.0010011 0 0.00168172 0 0)
(0.0561519 0.00124606 0 0.0127866 0 0)
(0.022643 0.00342754 0 0.00408716 0 0)
(0.00936681 0.000656258 0 0.00164603 0 0)
(0.00387275 0.000543468 0 0.00103842 0 0)
(0.00315391 0.000292174 0 0.000860357 0 0)
(0.00350877 -1.48593e-05 0 0.000799967 0 0)
(0.00409904 -0.000261506 0 0.000762816 0 0)
(0.00471703 -0.000452844 0 0.000734553 0 0)
(0.00554135 -0.000612338 0 0.000719392 0 0)
(0.00667885 -0.000756107 0 0.000715675 0 0)
(0.00813739 -0.000888944 0 0.00071444 0 0)
(0.00987374 -0.0010102 0 0.000708514 0 0)
(0.0118499 -0.00112026 0 0.000696111 0 0)
(0.0140488 -0.00122116 0 0.000678428 0 0)
(0.0164637 -0.00131499 0 0.000658831 0 0)
(0.0190966 -0.00140264 0 0.000642219 0 0)
(0.0219691 -0.0014818 0 0.000630439 0 0)
(0.025113 -0.00154527 0 0.00062127 0 0)
(0.0285453 -0.00158792 0 0.000612017 0 0)
(0.0322454 -0.00161398 0 0.000601514 0 0)
(0.0361679 -0.0016326 0 0.000589911 0 0)
(0.0402616 -0.00164948 0 0.000577623 0 0)
(0.0444759 -0.00166783 0 0.000563876 0 0)
(0.0487748 -0.00168924 0 0.000547386 0 0)
(0.0531688 -0.00170783 0 0.000528646 0 0)
(0.0577177 -0.00170283 0 0.000511457 0 0)
(0.062486 -0.00164728 0 0.000497491 0 0)
(0.0674829 -0.00153177 0 0.000475373 0 0)
(0.072667 -0.00136664 0 0.000429941 0 0)
(0.0779737 -0.00116127 0 0.000371646 0 0)
(0.0833169 -0.000929452 0 0.000329957 0 0)
(0.0886169 -0.000703164 0 0.000312975 0 0)
(0.0938751 -0.000497887 0 0.000306264 0 0)
(0.0992011 -0.000285325 0 0.000301189 0 0)
(0.104688 -3.27904e-05 0 0.000296953 0 0)
(0.110315 0.000264095 0 0.000292137 0 0)
(0.115964 0.000593575 0 0.000287507 0 0)
(0.121469 0.000943241 0 0.000285404 0 0)
(0.126684 0.00130199 0 0.000286356 0 0)
(0.131544 0.00166128 0 0.000289602 0 0)
(0.136069 0.00201766 0 0.00029412 0 0)
(0.140327 0.0023732 0 0.000299393 0 0)
(0.14442 0.00273738 0 0.000305662 0 0)
(0.148481 0.00312125 0 0.000313601 0 0)
(0.152635 0.00353204 0 0.000323807 0 0)
(0.156893 0.00397562 0 0.00033698 0 0)
(0.16114 0.00446915 0 0.000355048 0 0)
(0.165206 0.00504225 0 0.00037911 0 0)
(0.168949 0.00571816 0 0.000406663 0 0)
(0.172303 0.00648 0 0.000437441 0 0)
(0.175265 0.00726033 0 0.000478804 0 0)
(0.177792 0.00798318 0 0.000534459 0 0)
(0.179786 0.00862689 0 0.000598771 0 0)
(0.181166 0.009244 0 0.000671024 0 0)
(0.181932 0.00991705 0 0.000757664 0 0)
(0.182159 0.0106636 0 0.000861341 0 0)
(0.181873 0.0113755 0 0.000981807 0 0)
(0.180953 0.0118567 0 0.00110268 0 0)
(0.179171 0.0119293 0 0.00116777 0 0)
(0.176306 0.01153 0 0.00111615 0 0)
(0.172276 0.0107547 0 0.000952246 0 0)
(0.167174 0.00981575 0 0.000747977 0 0)
(0.161207 0.00893277 0 0.000577379 0 0)
(0.154622 0.00824553 0 0.000470866 0 0)
(0.147629 0.00778756 0 0.000420307 0 0)
(0.140403 0.00751699 0 0.000405089 0 0)
(0.133056 0.00736147 0 0.000408338 0 0)
(0.125675 0.00725356 0 0.000419826 0 0)
(0.118323 0.00714791 0 0.000434008 0 0)
(0.111042 0.00702053 0 0.000447902 0 0)
(0.103863 0.00686152 0 0.000459914 0 0)
(0.0968011 0.0066667 0 0.000469056 0 0)
(0.0898768 0.00643404 0 0.00047453 0 0)
(0.0831036 0.00616241 0 0.00047558 0 0)
(0.0764919 0.00584946 0 0.000471222 0 0)
(0.0700572 0.00549373 0 0.000460432 0 0)
(0.063816 0.00509396 0 0.00044212 0 0)
(0.0577849 0.00465038 0 0.000415401 0 0)
(0.0519835 0.00416464 0 0.000379674 0 0)
(0.0464341 0.00364051 0 0.000334897 0 0)
(0.04116 0.00308438 0 0.000281891 0 0)
(0.0361838 0.00250534 0 0.000222651 0 0)
(0.0315266 0.00191506 0 0.000160584 0 0)
(0.0272093 0.00132788 0 0.0001008 0 0)
(0.0232474 0.000759703 0 5.01152e-05 0 0)
(0.0196508 0.000227839 0 1.70321e-05 0 0)
(0.0164237 -0.000250685 0 1.12899e-05 0 0)
(0.0135617 -0.000660204 0 4.31965e-05 0 0)
(0.0110538 -0.000987791 0 0.000122629 0 0)
(0.00888291 -0.0012248 0 0.00025782 0 0)
(0.00702438 -0.00136755 0 0.000453923 0 0)
(0.00545152 -0.00141844 0 0.000711797 0 0)
(0.00413346 -0.00138531 0 0.00102682 0 0)
(0.00304013 -0.00128126 0 0.00138803 0 0)
(0.00214386 -0.0011232 0 0.00177798 0 0)
(0.00142187 -0.000930348 0 0.00217351 0 0)
(0.000856127 -0.000720359 0 0.00254538 0 0)
(0.000436494 -0.000508109 0 0.00286428 0 0)
(0.000157286 -0.00030264 0 0.003097 0 0)
(1.65248e-05 -9.29881e-05 0 0.00321899 0 0)
(0.0558699 0.000655887 0 0.01581 0 0)
(0.0242116 0.00384939 0 0.00623758 0 0)
(0.0102435 0.000865574 0 0.00302088 0 0)
(0.00476066 0.000838207 0 0.00196758 0 0)
(0.00398916 0.000389367 0 0.00148731 0 0)
(0.0041042 -0.000198199 0 0.00127269 0 0)
(0.00445215 -0.000610309 0 0.00122781 0 0)
(0.00488943 -0.000881127 0 0.00125108 0 0)
(0.00556445 -0.0011211 0 0.0012882 0 0)
(0.00656826 -0.00138755 0 0.00131575 0 0)
(0.00787605 -0.00169027 0 0.00132719 0 0)
(0.00941406 -0.00199378 0 0.00134048 0 0)
(0.0111567 -0.00226221 0 0.00135838 0 0)
(0.0131227 -0.00250338 0 0.00137626 0 0)
(0.0153132 -0.00274245 0 0.00139354 0 0)
(0.0177003 -0.0029889 0 0.00140135 0 0)
(0.0202585 -0.00324088 0 0.00139872 0 0)
(0.022976 -0.0034844 0 0.00139671 0 0)
(0.0258476 -0.00369093 0 0.00139414 0 0)
(0.0288711 -0.00384062 0 0.00137919 0 0)
(0.0320351 -0.00393898 0 0.00135014 0 0)
(0.0353113 -0.004006 0 0.00131604 0 0)
(0.0386564 -0.00405936 0 0.00128559 0 0)
(0.0420273 -0.00410758 0 0.00126228 0 0)
(0.0453877 -0.00415279 0 0.00124552 0 0)
(0.0487092 -0.00419503 0 0.00123125 0 0)
(0.0519924 -0.00423153 0 0.00121491 0 0)
(0.0552815 -0.00424808 0 0.0011956 0 0)
(0.0586391 -0.00422064 0 0.00117375 0 0)
(0.0620944 -0.0041334 0 0.00114281 0 0)
(0.0656109 -0.00399025 0 0.00109608 0 0)
(0.0691165 -0.00381215 0 0.00104527 0 0)
(0.0725449 -0.00363433 0 0.00100809 0 0)
(0.0758752 -0.00348544 0 0.000980921 0 0)
(0.0791558 -0.00334548 0 0.000953408 0 0)
(0.0824508 -0.00315372 0 0.000924017 0 0)
(0.0857768 -0.00286786 0 0.000878985 0 0)
(0.0890923 -0.00249013 0 0.000802585 0 0)
(0.0923256 -0.00204966 0 0.000710087 0 0)
(0.0954062 -0.0015828 0 0.000630634 0 0)
(0.0982765 -0.00111687 0 0.000574477 0 0)
(0.100894 -0.000663632 0 0.000535925 0 0)
(0.103237 -0.000228378 0 0.000508443 0 0)
(0.105302 0.000183434 0 0.000487837 0 0)
(0.107105 0.000582393 0 0.000470583 0 0)
(0.108698 0.00100922 0 0.000454613 0 0)
(0.110165 0.00151588 0 0.000436857 0 0)
(0.111648 0.00211446 0 0.000413745 0 0)
(0.1133 0.00276061 0 0.000389903 0 0)
(0.115214 0.00339253 0 0.000376338 0 0)
(0.117354 0.00398239 0 0.000376701 0 0)
(0.119584 0.00454579 0 0.000387228 0 0)
(0.121721 0.00511625 0 0.000405921 0 0)
(0.123649 0.00571409 0 0.000433739 0 0)
(0.125424 0.00632114 0 0.00047217 0 0)
(0.127247 0.00688728 0 0.00052058 0 0)
(0.129317 0.00735946 0 0.000569893 0 0)
(0.131637 0.00770798 0 0.000602903 0 0)
(0.134004 0.00792766 0 0.000607072 0 0)
(0.136053 0.00804215 0 0.000589887 0 0)
(0.137403 0.00811467 0 0.000574473 0 0)
(0.137759 0.00822734 0 0.000577328 0 0)
(0.137013 0.00843424 0 0.00059876 0 0)
(0.135264 0.00872819 0 0.000631936 0 0)
(0.13275 0.00905345 0 0.000671271 0 0)
(0.129758 0.00934716 0 0.00071274 0 0)
(0.126546 0.00957288 0 0.0007526 0 0)
(0.123294 0.00972517 0 0.00078816 0 0)
(0.120111 0.0098167 0 0.000818547 0 0)
(0.11704 0.00986338 0 0.000844117 0 0)
(0.1141 0.00987794 0 0.000865609 0 0)
(0.111285 0.0098673 0 0.000883489 0 0)
(0.108581 0.00983273 0 0.000897594 0 0)
(0.10597 0.00977263 0 0.000907384 0 0)
(0.103432 0.0096822 0 0.000911801 0 0)
(0.100939 0.00955451 0 0.000909454 0 0)
(0.0984618 0.00938187 0 0.000898829 0 0)
(0.095956 0.00915488 0 0.000878278 0 0)
(0.0933878 0.00886409 0 0.000846183 0 0)
(0.0907112 0.00849956 0 0.000801152 0 0)
(0.0878735 0.00805193 0 0.000742301 0 0)
(0.0848257 0.00751349 0 0.000669513 0 0)
(0.0815181 0.00687993 0 0.000583906 0 0)
(0.0778983 0.00615043 0 0.000487958 0 0)
(0.0739283 0.00532944 0 0.000385687 0 0)
(0.0695722 0.0044281 0 0.000282845 0 0)
(0.0648088 0.00346397 0 0.000186505 0 0)
(0.0596347 0.00246231 0 0.000104771 0 0)
(0.0540709 0.00145521 0 4.60153e-05 0 0)
(0.0481657 0.000480292 0 1.79941e-05 0 0)
(0.0419958 -0.000421166 0 2.69072e-05 0 0)
(0.0356695 -0.00120701 0 7.65332e-05 0 0)
(0.029332 -0.00183693 0 0.000167489 0 0)
(0.0231503 -0.00227495 0 0.000296431 0 0)
(0.0173181 -0.00249445 0 0.00045569 0 0)
(0.012036 -0.00248068 0 0.000633201 0 0)
(0.00750831 -0.00223389 0 0.000812186 0 0)
(0.00391926 -0.00177458 0 0.00097431 0 0)
(0.00143457 -0.00113906 0 0.00109319 0 0)
(0.000156606 -0.000389138 0 0.00116153 0 0)
(0.054616 -0.00146332 0 0.0148306 0 0)
(0.0235823 0.00347205 0 0.00648541 0 0)
(0.00864508 -0.000120314 0 0.00328109 0 0)
(0.00396383 0.000421403 0 0.00233721 0 0)
(0.00346538 0.000280203 0 0.00212962 0 0)
(0.00372401 -0.000234945 0 0.00210923 0 0)
(0.00414211 -0.000741213 0 0.00210093 0 0)
(0.00461826 -0.00117063 0 0.00210946 0 0)
(0.00533871 -0.00157089 0 0.00213784 0 0)
(0.00636977 -0.00197285 0 0.00215338 0 0)
(0.00766953 -0.00237038 0 0.00214488 0 0)
(0.00918717 -0.00275644 0 0.00214478 0 0)
(0.0109172 -0.00313246 0 0.00216637 0 0)
(0.0128744 -0.00349154 0 0.00219277 0 0)
(0.0150491 -0.00382272 0 0.00221373 0 0)
(0.0173974 -0.00411641 0 0.00222468 0 0)
(0.0198721 -0.00436574 0 0.00221605 0 0)
(0.0224628 -0.00458039 0 0.0021892 0 0)
(0.0252049 -0.00478188 0 0.00215882 0 0)
(0.028126 -0.00497577 0 0.00213329 0 0)
(0.0312122 -0.0051492 0 0.00211005 0 0)
(0.0344208 -0.00528967 0 0.00208467 0 0)
(0.0377045 -0.0053925 0 0.00205518 0 0)
(0.0410205 -0.00545927 0 0.00202263 0 0)
(0.0443491 -0.00549476 0 0.00198869 0 0)
(0.0476842 -0.00550079 0 0.00195386 0 0)
(0.0510092 -0.005475 0 0.00191771 0 0)
(0.0542941 -0.00541304 0 0.0018792 0 0)
(0.0575073 -0.00530742 0 0.00183628 0 0)
(0.0606375 -0.00514909 0 0.00178544 0 0)
(0.0636923 -0.00493603 0 0.00172396 0 0)
(0.0666642 -0.00468153 0 0.00165672 0 0)
(0.0695066 -0.00441176 0 0.00159626 0 0)
(0.0721445 -0.0041554 0 0.00154905 0 0)
(0.0745108 -0.00392556 0 0.00150902 0 0)
(0.076606 -0.00370184 0 0.00146989 0 0)
(0.0784926 -0.00343434 0 0.00143064 0 0)
(0.0802551 -0.00308077 0 0.00138678 0 0)
(0.0819424 -0.00263599 0 0.00133011 0 0)
(0.0835624 -0.00212802 0 0.00126051 0 0)
(0.0850916 -0.00159253 0 0.00118755 0 0)
(0.0865 -0.00105239 0 0.00112013 0 0)
(0.0877321 -0.000513846 0 0.00106133 0 0)
(0.0887234 2.15257e-05 0 0.00101148 0 0)
(0.0894361 0.000540441 0 0.000971482 0 0)
(0.0898949 0.00101672 0 0.000941016 0 0)
(0.0902002 0.00142922 0 0.00091547 0 0)
(0.0904724 0.00178631 0 0.000888689 0 0)
(0.0907867 0.00212909 0 0.000860349 0 0)
(0.0911448 0.00250913 0 0.000835435 0 0)
(0.0914952 0.00296526 0 0.000814128 0 0)
(0.0917743 0.00350843 0 0.000789412 0 0)
(0.091932 0.00411356 0 0.000760395 0 0)
(0.0919424 0.004724 0 0.000739273 0 0)
(0.0918226 0.00527238 0 0.000737097 0 0)
(0.0916116 0.00571436 0 0.00074971 0 0)
(0.0913501 0.00604982 0 0.000765053 0 0)
(0.0910268 0.00631113 0 0.000777593 0 0)
(0.0905577 0.00653801 0 0.000789664 0 0)
(0.089807 0.00676461 0 0.000805005 0 0)
(0.0886361 0.00701209 0 0.00082455 0 0)
(0.0869744 0.00728269 0 0.000847394 0 0)
(0.0848649 0.0075582 0 0.00087289 0 0)
(0.082437 0.00780619 0 0.00090059 0 0)
(0.0798462 0.00799584 0 0.000928905 0 0)
(0.0772297 0.00811081 0 0.000954722 0 0)
(0.0746854 0.00815307 0 0.000975102 0 0)
(0.0722691 0.00813598 0 0.000988512 0 0)
(0.0700093 0.00807751 0 0.000995329 0 0)
(0.0679227 0.00799369 0 0.000996741 0 0)
(0.066015 0.00789542 0 0.000993878 0 0)
(0.0642911 0.00778974 0 0.000987593 0 0)
(0.0627516 0.00767998 0 0.000978258 0 0)
(0.0613881 0.0075667 0 0.000965874 0 0)
(0.060197 0.00744922 0 0.000950192 0 0)
(0.0591625 0.00732506 0 0.000930777 0 0)
(0.0582677 0.00719061 0 0.000907011 0 0)
(0.0574949 0.00704164 0 0.000878225 0 0)
(0.0568112 0.00687233 0 0.000843704 0 0)
(0.0561814 0.00667657 0 0.000802829 0 0)
(0.0555679 0.00644821 0 0.000755165 0 0)
(0.0549132 0.00618006 0 0.000700483 0 0)
(0.0541647 0.0058668 0 0.000639091 0 0)
(0.0532515 0.00550343 0 0.000571747 0 0)
(0.0521054 0.00508799 0 0.000499903 0 0)
(0.0506468 0.00462056 0 0.00042553 0 0)
(0.0488035 0.00410555 0 0.0003512 0 0)
(0.0465061 0.00355102 0 0.000279793 0 0)
(0.0437003 0.00296964 0 0.000214338 0 0)
(0.0403542 0.00237771 0 0.000157629 0 0)
(0.0364665 0.00179482 0 0.000111988 0 0)
(0.0320782 0.0012426 0 7.90036e-05 0 0)
(0.0272838 0.000743251 0 5.9395e-05 0 0)
(0.02223 0.000318477 0 5.29406e-05 0 0)
(0.0171223 -1.26167e-05 0 5.83583e-05 0 0)
(0.0122105 -0.000235848 0 7.32206e-05 0 0)
(0.00778591 -0.000344054 0 9.38618e-05 0 0)
(0.00413247 -0.000343514 0 0.00011602 0 0)
(0.00152974 -0.000245701 0 0.000133845 0 0)
(0.000168448 -9.05553e-05 0 0.000146173 0 0)
(0.055252 -0.00151648 0 0.0150161 0 0)
(0.0222331 0.00393619 0 0.00638698 0 0)
(0.00881457 -0.000448863 0 0.003642 0 0)
(0.00344251 0.000446467 0 0.00291556 0 0)
(0.0028796 0.000182576 0 0.00267287 0 0)
(0.00325416 -0.000589911 0 0.00261088 0 0)
(0.00379271 -0.0012646 0 0.00266353 0 0)
(0.00429834 -0.0017714 0 0.00276914 0 0)
(0.00495216 -0.00220267 0 0.00289742 0 0)
(0.00589713 -0.00264499 0 0.0030285 0 0)
(0.00715039 -0.00312799 0 0.00313623 0 0)
(0.00865735 -0.00363207 0 0.003211 0 0)
(0.0103653 -0.0041221 0 0.00326313 0 0)
(0.0122491 -0.00457226 0 0.00330339 0 0)
(0.0143139 -0.00498052 0 0.00333413 0 0)
(0.0165797 -0.00536514 0 0.00335645 0 0)
(0.0190524 -0.00574515 0 0.00337268 0 0)
(0.0217133 -0.00612199 0 0.0033802 0 0)
(0.0245277 -0.00647932 0 0.00337726 0 0)
(0.027465 -0.0067929 0 0.0033671 0 0)
(0.0305087 -0.00703841 0 0.00334063 0 0)
(0.0336588 -0.00721103 0 0.00327763 0 0)
(0.036921 -0.00733448 0 0.00318289 0 0)
(0.0402854 -0.00743391 0 0.00308928 0 0)
(0.0437172 -0.00751274 0 0.00301742 0 0)
(0.0471665 -0.00756117 0 0.0029621 0 0)
(0.0505727 -0.00756711 0 0.00291125 0 0)
(0.053891 -0.0075207 0 0.0028566 0 0)
(0.0571121 -0.00741531 0 0.00279197 0 0)
(0.0602576 -0.00724752 0 0.00271184 0 0)
(0.0633572 -0.00701713 0 0.00261288 0 0)
(0.0664104 -0.00673013 0 0.0024998 0 0)
(0.0693791 -0.00640052 0 0.00238771 0 0)
(0.0722041 -0.00604588 0 0.00229048 0 0)
(0.074824 -0.005674 0 0.00220787 0 0)
(0.0771987 -0.0052701 0 0.00212994 0 0)
(0.0793248 -0.00480621 0 0.0020465 0 0)
(0.0812317 -0.00427277 0 0.00195331 0 0)
(0.0829741 -0.0036968 0 0.00185832 0 0)
(0.0846142 -0.00311827 0 0.00177367 0 0)
(0.0861915 -0.00255342 0 0.00170144 0 0)
(0.0876961 -0.00198877 0 0.0016348 0 0)
(0.0890731 -0.00140572 0 0.0015682 0 0)
(0.0902272 -0.000801383 0 0.00150388 0 0)
(0.0910601 -0.000195329 0 0.0014503 0 0)
(0.0915001 0.000384616 0 0.00141096 0 0)
(0.091524 0.000925787 0 0.00138124 0 0)
(0.0911697 0.00144021 0 0.00135583 0 0)
(0.0905118 0.00194879 0 0.00133257 0 0)
(0.0896469 0.00246499 0 0.00131087 0 0)
(0.0886693 0.00299833 0 0.00129029 0 0)
(0.0876507 0.00356008 0 0.00126968 0 0)
(0.086605 0.00415191 0 0.00124802 0 0)
(0.0854852 0.00475097 0 0.00122859 0 0)
(0.0842127 0.00531095 0 0.00121944 0 0)
(0.0827153 0.00578186 0 0.00122381 0 0)
(0.0809679 0.00614111 0 0.00123544 0 0)
(0.0789839 0.00641185 0 0.00124779 0 0)
(0.0767926 0.00665086 0 0.0012608 0 0)
(0.0744012 0.00691349 0 0.00127572 0 0)
(0.0717971 0.00722297 0 0.00129083 0 0)
(0.0689732 0.00756184 0 0.0013056 0 0)
(0.0659549 0.00788178 0 0.00132324 0 0)
(0.0628144 0.00812867 0 0.00134638 0 0)
(0.0596444 0.00826645 0 0.00137231 0 0)
(0.0565398 0.00828803 0 0.0013944 0 0)
(0.0535625 0.00820879 0 0.00140683 0 0)
(0.0507551 0.00805552 0 0.00140734 0 0)
(0.048133 0.00785415 0 0.00139662 0 0)
(0.0457011 0.00762539 0 0.00137686 0 0)
(0.0434555 0.00738284 0 0.00135014 0 0)
(0.0413935 0.00713502 0 0.00131793 0 0)
(0.0395132 0.00688725 0 0.0012813 0 0)
(0.0378075 0.00664192 0 0.00124076 0 0)
(0.0362739 0.00640076 0 0.00119672 0 0)
(0.0349042 0.00616409 0 0.00114939 0 0)
(0.0336895 0.00593161 0 0.00109897 0 0)
(0.0326195 0.00570243 0 0.0010456 0 0)
(0.0316807 0.00547514 0 0.00098945 0 0)
(0.0308561 0.00524818 0 0.000930881 0 0)
(0.030128 0.00501985 0 0.000870305 0 0)
(0.0294686 0.00478816 0 0.000808362 0 0)
(0.0288509 0.00455193 0 0.000745932 0 0)
(0.0282385 0.00431027 0 0.00068412 0 0)
(0.0275912 0.00406319 0 0.000624179 0 0)
(0.0268623 0.0038116 0 0.000567509 0 0)
(0.0260045 0.00355787 0 0.000515552 0 0)
(0.024966 0.00330487 0 0.000469606 0 0)
(0.0236958 0.00305608 0 0.000430799 0 0)
(0.0221526 0.00281469 0 0.000399885 0 0)
(0.0203046 0.00258287 0 0.000377344 0 0)
(0.0181436 0.00236018 0 0.000363074 0 0)
(0.0156895 0.00214315 0 0.000356593 0 0)
(0.0129997 0.00192461 0 0.000356893 0 0)
(0.0101777 0.00169579 0 0.000362734 0 0)
(0.00736853 0.00144698 0 0.00037234 0 0)
(0.0047614 0.00117178 0 0.000383952 0 0)
(0.00255366 0.000864264 0 0.000394242 0 0)
(0.000952901 0.000533889 0 0.00040602 0 0)
(0.000104948 0.000175172 0 0.000401331 0 0)
(0.05375 -0.00255428 0 0.0162898 0 0)
(0.0228287 0.00319322 0 0.00744969 0 0)
(0.00860622 -0.00150654 0 0.00456344 0 0)
(0.00334137 -0.000260101 0 0.00383284 0 0)
(0.00277592 -0.000266004 0 0.00370919 0 0)
(0.00315977 -0.0009691 0 0.0038745 0 0)
(0.00368444 -0.00167602 0 0.00410935 0 0)
(0.00420093 -0.00226765 0 0.00430462 0 0)
(0.00493337 -0.00281315 0 0.00446324 0 0)
(0.00598332 -0.00336656 0 0.00459026 0 0)
(0.00732152 -0.00394114 0 0.00466346 0 0)
(0.00886548 -0.00451842 0 0.00470089 0 0)
(0.0105602 -0.00508166 0 0.00475354 0 0)
(0.0124125 -0.00562861 0 0.00483075 0 0)
(0.0144645 -0.00615551 0 0.00490611 0 0)
(0.0167474 -0.00665298 0 0.00496038 0 0)
(0.0192588 -0.00711637 0 0.00498713 0 0)
(0.0219649 -0.00754212 0 0.00498063 0 0)
(0.0248177 -0.00792093 0 0.00494137 0 0)
(0.0277763 -0.0082456 0 0.00488566 0 0)
(0.0308212 -0.00852224 0 0.0048327 0 0)
(0.0339575 -0.00876283 0 0.00478522 0 0)
(0.0371858 -0.00896592 0 0.00473427 0 0)
(0.0404861 -0.00911535 0 0.00467182 0 0)
(0.043821 -0.00919077 0 0.00458965 0 0)
(0.0471575 -0.00918167 0 0.00448082 0 0)
(0.0504759 -0.00909611 0 0.00435193 0 0)
(0.0537606 -0.00895511 0 0.00422173 0 0)
(0.0569817 -0.00877724 0 0.00410268 0 0)
(0.0600965 -0.0085661 0 0.00399201 0 0)
(0.06309 -0.00830903 0 0.00388008 0 0)
(0.0659929 -0.00799162 0 0.00375891 0 0)
(0.0688583 -0.00761941 0 0.00362859 0 0)
(0.0717059 -0.00721377 0 0.0034995 0 0)
(0.074501 -0.00678933 0 0.0033816 0 0)
(0.0771833 -0.00634475 0 0.00327512 0 0)
(0.0797019 -0.0058687 0 0.00317475 0 0)
(0.0820356 -0.00535416 0 0.00307707 0 0)
(0.0841738 -0.00480862 0 0.00298282 0 0)
(0.0860971 -0.00424812 0 0.00289431 0 0)
(0.0877693 -0.00367478 0 0.00281028 0 0)
(0.0891634 -0.00306038 0 0.00272475 0 0)
(0.0902954 -0.00235931 0 0.00262559 0 0)
(0.091215 -0.00155266 0 0.00250009 0 0)
(0.0919415 -0.000675065 0 0.00235736 0 0)
(0.0924432 0.000200761 0 0.00223227 0 0)
(0.092656 0.00100378 0 0.00214952 0 0)
(0.092547 0.00169378 0 0.00210137 0 0)
(0.0921389 0.00227881 0 0.00206658 0 0)
(0.0914915 0.00280713 0 0.00203429 0 0)
(0.0906445 0.00334127 0 0.00200447 0 0)
(0.0895831 0.00393411 0 0.00197668 0 0)
(0.0882667 0.00461074 0 0.00194459 0 0)
(0.0866559 0.00535377 0 0.00190545 0 0)
(0.0847415 0.00610248 0 0.00186998 0 0)
(0.0825453 0.00677611 0 0.00185321 0 0)
(0.0800994 0.00731983 0 0.00185771 0 0)
(0.0774311 0.00773664 0 0.00187396 0 0)
(0.0745597 0.00808116 0 0.00189407 0 0)
(0.0714935 0.00841759 0 0.00191458 0 0)
(0.0682479 0.008777 0 0.00193318 0 0)
(0.0648441 0.0091381 0 0.00195074 0 0)
(0.0613286 0.00944233 0 0.00197223 0 0)
(0.0577714 0.00962886 0 0.00199949 0 0)
(0.0542424 0.00966446 0 0.00202606 0 0)
(0.0508061 0.00955252 0 0.00204121 0 0)
(0.0475151 0.0093236 0 0.00203811 0 0)
(0.0443936 0.0090159 0 0.00201634 0 0)
(0.0414554 0.00866249 0 0.00197911 0 0)
(0.038703 0.00828669 0 0.00193051 0 0)
(0.0361306 0.00790204 0 0.00187354 0 0)
(0.0337357 0.00751678 0 0.0018102 0 0)
(0.031509 0.00713474 0 0.00174158 0 0)
(0.0294475 0.00675883 0 0.00166838 0 0)
(0.0275416 0.0063905 0 0.00159125 0 0)
(0.0257894 0.00603157 0 0.00151078 0 0)
(0.0241788 0.00568248 0 0.0014276 0 0)
(0.0227051 0.00534441 0 0.00134246 0 0)
(0.0213582 0.00501788 0 0.00125624 0 0)
(0.0201278 0.0047034 0 0.0011699 0 0)
(0.0190023 0.00440158 0 0.00108467 0 0)
(0.0179713 0.00411343 0 0.0010019 0 0)
(0.0170171 0.0038397 0 0.000923163 0 0)
(0.0161265 0.003582 0 0.000850121 0 0)
(0.015279 0.00334194 0 0.000784583 0 0)
(0.0144559 0.00312167 0 0.000728298 0 0)
(0.0136356 0.00292345 0 0.000683017 0 0)
(0.0127939 0.00274911 0 0.000650338 0 0)
(0.0119073 0.00259953 0 0.000631772 0 0)
(0.0109545 0.00247419 0 0.000628786 0 0)
(0.00991746 0.00236936 0 0.000642528 0 0)
(0.00878362 0.00227782 0 0.000674335 0 0)
(0.00755258 0.00218692 0 0.000724387 0 0)
(0.00623959 0.00208055 0 0.00079256 0 0)
(0.00488186 0.00193876 0 0.000876228 0 0)
(0.00353751 0.00174117 0 0.000970347 0 0)
(0.00229014 0.00147333 0 0.00106767 0 0)
(0.00123027 0.00112526 0 0.00115432 0 0)
(0.000460227 0.000711087 0 0.00122868 0 0)
(5.0303e-05 0.000236177 0 0.00124223 0 0)
(0.0523067 -0.00276202 0 0.0150643 0 0)
(0.0234486 0.00516397 0 0.00742403 0 0)
(0.00853534 -0.00104201 0 0.00514534 0 0)
(0.00331744 0.000231426 0 0.00465073 0 0)
(0.00266887 1.7602e-05 0 0.00474334 0 0)
(0.0029406 -0.000931705 0 0.00503812 0 0)
(0.0035011 -0.00177181 0 0.00533468 0 0)
(0.00412462 -0.00243331 0 0.00563221 0 0)
(0.00489363 -0.0030531 0 0.00594313 0 0)
(0.00589881 -0.00371213 0 0.00623281 0 0)
(0.00717191 -0.0044111 0 0.00646759 0 0)
(0.00868689 -0.00512372 0 0.00664364 0 0)
(0.0104077 -0.00582724 0 0.00678035 0 0)
(0.0123257 -0.00650819 0 0.00689357 0 0)
(0.014444 -0.00716248 0 0.0069842 0 0)
(0.0167519 -0.00778912 0 0.00704876 0 0)
(0.0192334 -0.0083792 0 0.0070873 0 0)
(0.0218848 -0.00891671 0 0.00710229 0 0)
(0.0247 -0.00938904 0 0.00709177 0 0)
(0.0276549 -0.00979237 0 0.00704665 0 0)
(0.0307106 -0.010124 0 0.00695526 0 0)
(0.0338282 -0.0103758 0 0.00681597 0 0)
(0.0369706 -0.0105407 0 0.00664752 0 0)
(0.0401081 -0.0106256 0 0.00648213 0 0)
(0.0432294 -0.0106538 0 0.00634126 0 0)
(0.0463486 -0.0106445 0 0.00622003 0 0)
(0.0494871 -0.0105938 0 0.00609891 0 0)
(0.0526442 -0.0104812 0 0.0059592 0 0)
(0.0557853 -0.0102884 0 0.00578693 0 0)
(0.0588494 -0.0100087 0 0.00558461 0 0)
(0.0617847 -0.00965908 0 0.00537947 0 0)
(0.0645795 -0.00927726 0 0.00519904 0 0)
(0.067272 -0.00888987 0 0.00504475 0 0)
(0.0699077 -0.00848731 0 0.00490139 0 0)
(0.0724849 -0.0080368 0 0.00475503 0 0)
(0.0749593 -0.00751073 0 0.00459629 0 0)
(0.0772746 -0.00689845 0 0.00442245 0 0)
(0.0793882 -0.00620638 0 0.00423947 0 0)
(0.0812849 -0.00545039 0 0.0040551 0 0)
(0.0829456 -0.00464323 0 0.00387291 0 0)
(0.0843312 -0.00379443 0 0.00369568 0 0)
(0.0853891 -0.00291742 0 0.00353001 0 0)
(0.0861045 -0.00203531 0 0.00338432 0 0)
(0.0865355 -0.00116823 0 0.00326102 0 0)
(0.0867879 -0.000319961 0 0.00315556 0 0)
(0.0869369 0.000515881 0 0.00306252 0 0)
(0.0869737 0.00133638 0 0.00298097 0 0)
(0.0868454 0.00212292 0 0.00291338 0 0)
(0.0865063 0.00285824 0 0.00285928 0 0)
(0.0859536 0.00355281 0 0.00281378 0 0)
(0.0852002 0.00425107 0 0.00277168 0 0)
(0.0842274 0.00500672 0 0.00272587 0 0)
(0.0829801 0.00584046 0 0.00266881 0 0)
(0.0813999 0.00671565 0 0.00260756 0 0)
(0.0795068 0.00754686 0 0.00256525 0 0)
(0.0773893 0.00824812 0 0.00255602 0 0)
(0.0751763 0.00879082 0 0.00257128 0 0)
(0.0729299 0.00921493 0 0.00259599 0 0)
(0.07063 0.00959246 0 0.00262358 0 0)
(0.0681929 0.00997915 0 0.00265192 0 0)
(0.0655337 0.010387 0 0.00267879 0 0)
(0.0626105 0.0107808 0 0.00270642 0 0)
(0.0594481 0.0110955 0 0.0027405 0 0)
(0.0561189 0.011268 0 0.00278042 0 0)
(0.0527164 0.0112658 0 0.00281543 0 0)
(0.0493274 0.0110953 0 0.00283146 0 0)
(0.0460129 0.0107895 0 0.00282039 0 0)
(0.0428158 0.010391 0 0.00278263 0 0)
(0.0397629 0.00993742 0 0.00272327 0 0)
(0.0368674 0.00945617 0 0.00264829 0 0)
(0.0341332 0.00896354 0 0.00256197 0 0)
(0.0315597 0.00846954 0 0.00246748 0 0)
(0.029144 0.00797923 0 0.00236626 0 0)
(0.0268813 0.00749628 0 0.0022597 0 0)
(0.0247676 0.00702303 0 0.00214862 0 0)
(0.0227934 0.0065609 0 0.00203398 0 0)
(0.0209542 0.00611146 0 0.00191661 0 0)
(0.0192418 0.00567641 0 0.00179784 0 0)
(0.017649 0.00525745 0 0.00167912 0 0)
(0.0161693 0.00485501 0 0.00156123 0 0)
(0.0147957 0.00447222 0 0.00144667 0 0)
(0.0135183 0.00410973 0 0.00133685 0 0)
(0.0123309 0.00376951 0 0.0012337 0 0)
(0.0112249 0.00345474 0 0.00114015 0 0)
(0.0101924 0.00316695 0 0.00105806 0 0)
(0.00922496 0.00290834 0 0.000989805 0 0)
(0.00831317 0.00268069 0 0.000937852 0 0)
(0.00744915 0.0024849 0 0.000904381 0 0)
(0.00662511 0.00232135 0 0.000892141 0 0)
(0.00583267 0.00218785 0 0.000903758 0 0)
(0.00506466 0.00207936 0 0.000941821 0 0)
(0.00431614 0.00198798 0 0.00100924 0 0)
(0.00358528 0.00190199 0 0.00110838 0 0)
(0.00287489 0.00180615 0 0.00124004 0 0)
(0.00219404 0.00168228 0 0.00140116 0 0)
(0.00155788 0.00151153 0 0.00158358 0 0)
(0.000993184 0.00128049 0 0.00177345 0 0)
(0.000527241 0.00097902 0 0.00194519 0 0)
(0.000195991 0.00061946 0 0.00209017 0 0)
(2.10342e-05 0.000204321 0 0.00212618 0 0)
(0.0569222 -0.0036661 0 0.0157968 0 0)
(0.0220416 0.00477899 0 0.00819207 0 0)
(0.00971523 -0.00242829 0 0.0059036 0 0)
(0.00439106 -0.000810895 0 0.00553352 0 0)
(0.00364786 -0.000940378 0 0.0057927 0 0)
(0.0041065 -0.00194419 0 0.00629714 0 0)
(0.00480422 -0.00290257 0 0.0068044 0 0)
(0.0055013 -0.00371266 0 0.00726289 0 0)
(0.00637829 -0.00448522 0 0.00768998 0 0)
(0.00755045 -0.00529324 0 0.00806685 0 0)
(0.00902702 -0.00615091 0 0.00836312 0 0)
(0.0107559 -0.00702385 0 0.00858455 0 0)
(0.0127038 -0.00786576 0 0.00875997 0 0)
(0.0148631 -0.00864838 0 0.00890385 0 0)