# vtk DataFile Version 2.0
sampleSurface
ASCII
DATASET POLYDATA
POINTS 652 double
0 0 0
0.02 0 0
0.02 0 0.1
0 0 0.1
0.04 0 0
0.04 0 0.1
0.06 0 0
0.06 0 0.1
0.08 0 0
0.08 0 0.1
0.1 0 0
0.1 0 0.1
0.12 0 0
0.12 0 0.1
0.14 0 0
0.14 0 0.1
0.16 0 0
0.16 0 0.1
0.18 0 0
0.18 0 0.1
0.2 0 0
0.2 0 0.1
0.22 0 0
0.22 0 0.1
0.24 0 0
0.24 0 0.1
0.26 0 0
0.26 0 0.1
0.28 0 0
0.28 0 0.1
0.3 0 0
0.3 0 0.1
0.32 0 0
0.32 0 0.1
0.34 0 0
0.34 0 0.1
0.36 0 0
0.36 0 0.1
0.38 0 0
0.38 0 0.1
0.4 0 0
0.4 0 0.1
0.42 0 0
0.42 0 0.1
0.44 0 0
0.44 0 0.1
0.46 0 0
0.46 0 0.1
0.48 0 0
0.48 0 0.1
0.5 0 0
0.5 0 0.1
0.52 0 0
0.52 0 0.1
0.54 0 0
0.54 0 0.1
0.56 0 0
0.56 0 0.1
0.58 0 0
0.58 0 0.1
0.6 0 0
0.6 0 0.1
0.62 0 0
0.62 0 0.1
0.64 0 0
0.64 0 0.1
0.66 0 0
0.66 0 0.1
0.68 0 0
0.68 0 0.1
0.7 0 0
0.7 0 0.1
0.72 0 0
0.72 0 0.1
0.74 0 0
0.74 0 0.1
0.76 0 0
0.76 0 0.1
0.78 0 0
0.78 0 0.1
0.8 0 0
0.8 0 0.1
0.82 0 0
0.82 0 0.1
0.84 0 0
0.84 0 0.1
0.86 0 0
0.86 0 0.1
0.88 0 0
0.88 0 0.1
0.9 0 0
0.9 0 0.1
0.92 0 0
0.92 0 0.1
0.94 0 0
0.94 0 0.1
0.96 0 0
0.96 0 0.1
0.98 0 0
0.98 0 0.1
1 0 0
1 0 0.1
1.02 0 0
1.02 0 0.1
1.04 0 0
1.04 0 0.1
1.06 0 0
1.06 0 0.1
1.08 0 0
1.08 0 0.1
1.1 0 0
1.1 0 0.1
1.12 0 0
1.12 0 0.1
1.14 0 0
1.14 0 0.1
1.16 0 0
1.16 0 0.1
1.18 0 0
1.18 0 0.1
1.2 0 0
1.2 0 0.1
1.22 0 0
1.22 0 0.1
1.24 0 0
1.24 0 0.1
1.26 0 0
1.26 0 0.1
1.28 0 0
1.28 0 0.1
1.3 0 0
1.3 0 0.1
1.32 0 0
1.32 0 0.1
1.34 0 0
1.34 0 0.1
1.36 0 0
1.36 0 0.1
1.38 0 0
1.38 0 0.1
1.4 0 0
1.4 0 0.1
1.42 0 0
1.42 0 0.1
1.44 0 0
1.44 0 0.1
1.46 0 0
1.46 0 0.1
1.48 0 0
1.48 0 0.1
1.5 0 0
1.5 0 0.1
1.52 0 0
1.52 0 0.1
1.54 0 0
1.54 0 0.1
1.56 0 0
1.56 0 0.1
1.58 0 0
1.58 0 0.1
1.6 0 0
1.6 0 0.1
1.62 0 0
1.62 0 0.1
1.64 0 0
1.64 0 0.1
1.66 0 0
1.66 0 0.1
1.68 0 0
1.68 0 0.1
1.7 0 0
1.7 0 0.1
1.72 0 0
1.72 0 0.1
1.74 0 0
1.74 0 0.1
1.76 0 0
1.76 0 0.1
1.78 0 0
1.78 0 0.1
1.8 0 0
1.8 0 0.1
1.82 0 0
1.82 0 0.1
1.84 0 0
1.84 0 0.1
1.86 0 0
1.86 0 0.1
1.88 0 0
1.88 0 0.1
1.9 0 0
1.9 0 0.1
1.92 0 0
1.92 0 0.1
1.94 0 0
1.94 0 0.1
1.96 0 0
1.96 0 0.1
1.98 0 0
1.98 0 0.1
2 0 0
2 0 0.1
2 0.02 0
2 0.02 0.1
2 0.04 0
2 0.04 0.1
2 0.06 0
2 0.06 0.1
2 0.08 0
2 0.08 0.1
2 0.1 0
2 0.1 0.1
2 0.12 0
2 0.12 0.1
2 0.14 0
2 0.14 0.1
2 0.16 0
2 0.16 0.1
2 0.18 0
2 0.18 0.1
2 0.2 0
2 0.2 0.1
2 0.22 0
2 0.22 0.1
2 0.24 0
2 0.24 0.1
2 0.26 0
2 0.26 0.1
2 0.28 0
2 0.28 0.1
2 0.3 0
2 0.3 0.1
2 0.32 0
2 0.32 0.1
2 0.34 0
2 0.34 0.1
2 0.36 0
2 0.36 0.1
2 0.38 0
2 0.38 0.1
2 0.4 0
2 0.4 0.1
2 0.42 0
2 0.42 0.1
2 0.44 0
2 0.44 0.1
2 0.46 0
2 0.46 0.1
2 0.48 0
2 0.48 0.1
2 0.5 0
2 0.5 0.1
2 0.52 0
2 0.52 0.1
2 0.54 0
2 0.54 0.1
2 0.56 0
2 0.56 0.1
2 0.58 0
2 0.58 0.1
2 0.6 0
2 0.6 0.1
2 0.62 0
2 0.62 0.1
2 0.64 0
2 0.64 0.1
2 0.66 0
2 0.66 0.1
2 0.68 0
2 0.68 0.1
2 0.7 0
2 0.7 0.1
2 0.72 0
2 0.72 0.1
2 0.74 0
2 0.74 0.1
2 0.76 0
2 0.76 0.1
2 0.78 0
2 0.78 0.1
2 0.8 0
2 0.8 0.1
2 0.82 0
2 0.82 0.1
2 0.84 0
2 0.84 0.1
2 0.86 0
2 0.86 0.1
2 0.88 0
2 0.88 0.1
2 0.9 0
2 0.9 0.1
2 0.92 0
2 0.92 0.1
2 0.94 0
2 0.94 0.1
2 0.96 0
2 0.96 0.1
2 0.98 0
2 0.98 0.1
2 1 0
2 1 0.1
2.02 1 0
2.02 1 0.1
2.04 1 0
2.04 1 0.1
2.06 1 0
2.06 1 0.1
2.08 1 0
2.08 1 0.1
2.1 1 0
2.1 1 0.1
2.12 1 0
2.12 1 0.1
2.14 1 0
2.14 1 0.1
2.16 1 0
2.16 1 0.1
2.18 1 0
2.18 1 0.1
2.2 1 0
2.2 1 0.1
2.22 1 0
2.22 1 0.1
2.24 1 0
2.24 1 0.1
2.26 1 0
2.26 1 0.1
2.28 1 0
2.28 1 0.1
2.3 1 0
2.3 1 0.1
2.32 1 0
2.32 1 0.1
2.34 1 0
2.34 1 0.1
2.36 1 0
2.36 1 0.1
2.38 1 0
2.38 1 0.1
2.4 1 0
2.4 1 0.1
2.42 1 0
2.42 1 0.1
2.44 1 0
2.44 1 0.1
2.46 1 0
2.46 1 0.1
2.48 1 0
2.48 1 0.1
2.5 1 0
2.5 1 0.1
2.5 0 0
2.5 0 0.1
2.5 0.02 0.1
2.5 0.02 0
2.5 0.04 0.1
2.5 0.04 0
2.5 0.06 0.1
2.5 0.06 0
2.5 0.08 0.1
2.5 0.08 0
2.5 0.1 0.1
2.5 0.1 0
2.5 0.12 0.1
2.5 0.12 0
2.5 0.14 0.1
2.5 0.14 0
2.5 0.16 0.1
2.5 0.16 0
2.5 0.18 0.1
2.5 0.18 0
2.5 0.2 0.1
2.5 0.2 0
2.5 0.22 0.1
2.5 0.22 0
2.5 0.24 0.1
2.5 0.24 0
2.5 0.26 0.1
2.5 0.26 0
2.5 0.28 0.1
2.5 0.28 0
2.5 0.3 0.1
2.5 0.3 0
2.5 0.32 0.1
2.5 0.32 0
2.5 0.34 0.1
2.5 0.34 0
2.5 0.36 0.1
2.5 0.36 0
2.5 0.38 0.1
2.5 0.38 0
2.5 0.4 0.1
2.5 0.4 0
2.5 0.42 0.1
2.5 0.42 0
2.5 0.44 0.1
2.5 0.44 0
2.5 0.46 0.1
2.5 0.46 0
2.5 0.48 0.1
2.5 0.48 0
2.5 0.5 0.1
2.5 0.5 0
2.5 0.52 0.1
2.5 0.52 0
2.5 0.54 0.1
2.5 0.54 0
2.5 0.56 0.1
2.5 0.56 0
2.5 0.58 0.1
2.5 0.58 0
2.5 0.6 0.1
2.5 0.6 0
2.5 0.62 0.1
2.5 0.62 0
2.5 0.64 0.1
2.5 0.64 0
2.5 0.66 0.1
2.5 0.66 0
2.5 0.68 0.1
2.5 0.68 0
2.5 0.7 0.1
2.5 0.7 0
2.5 0.72 0.1
2.5 0.72 0
2.5 0.74 0.1
2.5 0.74 0
2.5 0.76 0.1
2.5 0.76 0
2.5 0.78 0.1
2.5 0.78 0
2.5 0.8 0.1
2.5 0.8 0
2.5 0.82 0.1
2.5 0.82 0
2.5 0.84 0.1
2.5 0.84 0
2.5 0.86 0.1
2.5 0.86 0
2.5 0.88 0.1
2.5 0.88 0
2.5 0.9 0.1
2.5 0.9 0
2.5 0.92 0.1
2.5 0.92 0
2.5 0.94 0.1
2.5 0.94 0
2.5 0.96 0.1
2.5 0.96 0
2.5 0.98 0.1
2.5 0.98 0
2.52 0 0
2.52 0 0.1
2.54 0 0
2.54 0 0.1
2.56 0 0
2.56 0 0.1
2.58 0 0
2.58 0 0.1
2.6 0 0
2.6 0 0.1
2.62 0 0
2.62 0 0.1
2.64 0 0
2.64 0 0.1
2.66 0 0
2.66 0 0.1
2.68 0 0
2.68 0 0.1
2.7 0 0
2.7 0 0.1
2.72 0 0
2.72 0 0.1
2.74 0 0
2.74 0 0.1
2.76 0 0
2.76 0 0.1
2.78 0 0
2.78 0 0.1
2.8 0 0
2.8 0 0.1
2.82 0 0
2.82 0 0.1
2.84 0 0
2.84 0 0.1
2.86 0 0
2.86 0 0.1
2.88 0 0
2.88 0 0.1
2.9 0 0
2.9 0 0.1
2.92 0 0
2.92 0 0.1
2.94 0 0
2.94 0 0.1
2.96 0 0
2.96 0 0.1
2.98 0 0
2.98 0 0.1
3 0 0
3 0 0.1
3.02 0 0
3.02 0 0.1
3.04 0 0
3.04 0 0.1
3.06 0 0
3.06 0 0.1
3.08 0 0
3.08 0 0.1
3.1 0 0
3.1 0 0.1
3.12 0 0
3.12 0 0.1
3.14 0 0
3.14 0 0.1
3.16 0 0
3.16 0 0.1
3.18 0 0
3.18 0 0.1
3.2 0 0
3.2 0 0.1
3.22 0 0
3.22 0 0.1
3.24 0 0
3.24 0 0.1
3.26 0 0
3.26 0 0.1
3.28 0 0
3.28 0 0.1
3.3 0 0
3.3 0 0.1
3.32 0 0
3.32 0 0.1
3.34 0 0
3.34 0 0.1
3.36 0 0
3.36 0 0.1
3.38 0 0
3.38 0 0.1
3.4 0 0
3.4 0 0.1
3.42 0 0
3.42 0 0.1
3.44 0 0
3.44 0 0.1
3.46 0 0
3.46 0 0.1
3.48 0 0
3.48 0 0.1
3.5 0 0
3.5 0 0.1
3.52 0 0
3.52 0 0.1
3.54 0 0
3.54 0 0.1
3.56 0 0
3.56 0 0.1
3.58 0 0
3.58 0 0.1
3.6 0 0
3.6 0 0.1
3.62 0 0
3.62 0 0.1
3.64 0 0
3.64 0 0.1
3.66 0 0
3.66 0 0.1
3.68 0 0
3.68 0 0.1
3.7 0 0
3.7 0 0.1
3.72 0 0
3.72 0 0.1
3.74 0 0
3.74 0 0.1
3.76 0 0
3.76 0 0.1
3.78 0 0
3.78 0 0.1
3.8 0 0
3.8 0 0.1
3.82 0 0
3.82 0 0.1
3.84 0 0
3.84 0 0.1
3.86 0 0
3.86 0 0.1
3.88 0 0
3.88 0 0.1
3.9 0 0
3.9 0 0.1
3.92 0 0
3.92 0 0.1
3.94 0 0
3.94 0 0.1
3.96 0 0
3.96 0 0.1
3.98 0 0
3.98 0 0.1
4 0 0
4 0 0.1
4.02 0 0
4.02 0 0.1
4.04 0 0
4.04 0 0.1
4.06 0 0
4.06 0 0.1
4.08 0 0
4.08 0 0.1
4.1 0 0
4.1 0 0.1
4.12 0 0
4.12 0 0.1
4.14 0 0
4.14 0 0.1
4.16 0 0
4.16 0 0.1
4.18 0 0
4.18 0 0.1
4.2 0 0
4.2 0 0.1
4.22 0 0
4.22 0 0.1
4.24 0 0
4.24 0 0.1
4.26 0 0
4.26 0 0.1
4.28 0 0
4.28 0 0.1
4.3 0 0
4.3 0 0.1
4.32 0 0
4.32 0 0.1
4.34 0 0
4.34 0 0.1
4.36 0 0
4.36 0 0.1
4.38 0 0
4.38 0 0.1
4.4 0 0
4.4 0 0.1
4.42 0 0
4.42 0 0.1
4.44 0 0
4.44 0 0.1
4.46 0 0
4.46 0 0.1
4.48 0 0
4.48 0 0.1
4.5 0 0
4.5 0 0.1

POLYGONS 325 1625
4 0 1 2 3
4 1 4 5 2
4 4 6 7 5
4 6 8 9 7
4 8 10 11 9
4 10 12 13 11
4 12 14 15 13
4 14 16 17 15
4 16 18 19 17
4 18 20 21 19
4 20 22 23 21
4 22 24 25 23
4 24 26 27 25
4 26 28 29 27
4 28 30 31 29
4 30 32 33 31
4 32 34 35 33
4 34 36 37 35
4 36 38 39 37
4 38 40 41 39
4 40 42 43 41
4 42 44 45 43
4 44 46 47 45
4 46 48 49 47
4 48 50 51 49
4 50 52 53 51
4 52 54 55 53
4 54 56 57 55
4 56 58 59 57
4 58 60 61 59
4 60 62 63 61
4 62 64 65 63
4 64 66 67 65
4 66 68 69 67
4 68 70 71 69
4 70 72 73 71
4 72 74 75 73
4 74 76 77 75
4 76 78 79 77
4 78 80 81 79
4 80 82 83 81
4 82 84 85 83
4 84 86 87 85
4 86 88 89 87
4 88 90 91 89
4 90 92 93 91
4 92 94 95 93
4 94 96 97 95
4 96 98 99 97
4 98 100 101 99
4 100 102 103 101
4 102 104 105 103
4 104 106 107 105
4 106 108 109 107
4 108 110 111 109
4 110 112 113 111
4 112 114 115 113
4 114 116 117 115
4 116 118 119 117
4 118 120 121 119
4 120 122 123 121
4 122 124 125 123
4 124 126 127 125
4 126 128 129 127
4 128 130 131 129
4 130 132 133 131
4 132 134 135 133
4 134 136 137 135
4 136 138 139 137
4 138 140 141 139
4 140 142 143 141
4 142 144 145 143
4 144 146 147 145
4 146 148 149 147
4 148 150 151 149
4 150 152 153 151
4 152 154 155 153
4 154 156 157 155
4 156 158 159 157
4 158 160 161 159
4 160 162 163 161
4 162 164 165 163
4 164 166 167 165
4 166 168 169 167
4 168 170 171 169
4 170 172 173 171
4 172 174 175 173
4 174 176 177 175
4 176 178 179 177
4 178 180 181 179
4 180 182 183 181
4 182 184 185 183
4 184 186 187 185
4 186 188 189 187
4 188 190 191 189
4 190 192 193 191
4 192 194 195 193
4 194 196 197 195
4 196 198 199 197
4 198 200 201 199
4 200 202 203 201
4 202 204 205 203
4 204 206 207 205
4 206 208 209 207
4 208 210 211 209
4 210 212 213 211
4 212 214 215 213
4 214 216 217 215
4 216 218 219 217
4 218 220 221 219
4 220 222 223 221
4 222 224 225 223
4 224 226 227 225
4 226 228 229 227
4 228 230 231 229
4 230 232 233 231
4 232 234 235 233
4 234 236 237 235
4 236 238 239 237
4 238 240 241 239
4 240 242 243 241
4 242 244 245 243
4 244 246 247 245
4 246 248 249 247
4 248 250 251 249
4 250 252 253 251
4 252 254 255 253
4 254 256 257 255
4 256 258 259 257
4 258 260 261 259
4 260 262 263 261
4 262 264 265 263
4 264 266 267 265
4 266 268 269 267
4 268 270 271 269
4 270 272 273 271
4 272 274 275 273
4 274 276 277 275
4 276 278 279 277
4 278 280 281 279
4 280 282 283 281
4 282 284 285 283
4 284 286 287 285
4 286 288 289 287
4 288 290 291 289
4 290 292 293 291
4 292 294 295 293
4 294 296 297 295
4 296 298 299 297
4 298 300 301 299
4 300 302 303 301
4 302 304 305 303
4 304 306 307 305
4 306 308 309 307
4 308 310 311 309
4 310 312 313 311
4 312 314 315 313
4 314 316 317 315
4 316 318 319 317
4 318 320 321 319
4 320 322 323 321
4 322 324 325 323
4 324 326 327 325
4 326 328 329 327
4 328 330 331 329
4 330 332 333 331
4 332 334 335 333
4 334 336 337 335
4 336 338 339 337
4 338 340 341 339
4 340 342 343 341
4 342 344 345 343
4 344 346 347 345
4 346 348 349 347
4 348 350 351 349
4 352 353 354 355
4 355 354 356 357
4 357 356 358 359
4 359 358 360 361
4 361 360 362 363
4 363 362 364 365
4 365 364 366 367
4 367 366 368 369
4 369 368 370 371
4 371 370 372 373
4 373 372 374 375
4 375 374 376 377
4 377 376 378 379
4 379 378 380 381
4 381 380 382 383
4 383 382 384 385
4 385 384 386 387
4 387 386 388 389
4 389 388 390 391
4 391 390 392 393
4 393 392 394 395
4 395 394 396 397
4 397 396 398 399
4 399 398 400 401
4 401 400 402 403
4 403 402 404 405
4 405 404 406 407
4 407 406 408 409
4 409 408 410 411
4 411 410 412 413
4 413 412 414 415
4 415 414 416 417
4 417 416 418 419
4 419 418 420 421
4 421 420 422 423
4 423 422 424 425
4 425 424 426 427
4 427 426 428 429
4 429 428 430 431
4 431 430 432 433
4 433 432 434 435
4 435 434 436 437
4 437 436 438 439
4 439 438 440 441
4 441 440 442 443
4 443 442 444 445
4 445 444 446 447
4 447 446 448 449
4 449 448 450 451
4 451 450 351 350
4 352 452 453 353
4 452 454 455 453
4 454 456 457 455
4 456 458 459 457
4 458 460 461 459
4 460 462 463 461
4 462 464 465 463
4 464 466 467 465
4 466 468 469 467
4 468 470 471 469
4 470 472 473 471
4 472 474 475 473
4 474 476 477 475
4 476 478 479 477
4 478 480 481 479
4 480 482 483 481
4 482 484 485 483
4 484 486 487 485
4 486 488 489 487
4 488 490 491 489
4 490 492 493 491
4 492 494 495 493
4 494 496 497 495
4 496 498 499 497
4 498 500 501 499
4 500 502 503 501
4 502 504 505 503
4 504 506 507 505
4 506 508 509 507
4 508 510 511 509
4 510 512 513 511
4 512 514 515 513
4 514 516 517 515
4 516 518 519 517
4 518 520 521 519
4 520 522 523 521
4 522 524 525 523
4 524 526 527 525
4 526 528 529 527
4 528 530 531 529
4 530 532 533 531
4 532 534 535 533
4 534 536 537 535
4 536 538 539 537
4 538 540 541 539
4 540 542 543 541
4 542 544 545 543
4 544 546 547 545
4 546 548 549 547
4 548 550 551 549
4 550 552 553 551
4 552 554 555 553
4 554 556 557 555
4 556 558 559 557
4 558 560 561 559
4 560 562 563 561
4 562 564 565 563
4 564 566 567 565
4 566 568 569 567
4 568 570 571 569
4 570 572 573 571
4 572 574 575 573
4 574 576 577 575
4 576 578 579 577
4 578 580 581 579
4 580 582 583 581
4 582 584 585 583
4 584 586 587 585
4 586 588 589 587
4 588 590 591 589
4 590 592 593 591
4 592 594 595 593
4 594 596 597 595
4 596 598 599 597
4 598 600 601 599
4 600 602 603 601
4 602 604 605 603
4 604 606 607 605
4 606 608 609 607
4 608 610 611 609
4 610 612 613 611
4 612 614 615 613
4 614 616 617 615
4 616 618 619 617
4 618 620 621 619
4 620 622 623 621
4 622 624 625 623
4 624 626 627 625
4 626 628 629 627
4 628 630 631 629
4 630 632 633 631
4 632 634 635 633
4 634 636 637 635
4 636 638 639 637
4 638 640 641 639
4 640 642 643 641
4 642 644 645 643
4 644 646 647 645
4 646 648 649 647
4 648 650 651 649
POINT_DATA 652
FIELD attributes 1
U 3 652 float
2.47549 0.00789497 0.0171488
1.23824 0.00395015 0.00857439
1.23824 0.00395015 0.00857439
2.47549 0.00789497 0.0171488
0.000989883 4.96466e-06 0
0.000989883 4.96466e-06 0
0.000990042 4.14479e-06 0
0.000990042 4.14479e-06 0
0.000990083 2.47857e-06 0
0.000990083 2.47857e-06 0
0.000991137 5.80026e-07 0
0.000991137 5.80026e-07 0
0.000992155 4.68107e-07 0
0.000992155 4.68107e-07 0
0.000991442 1.8516e-06 0
0.000991442 1.8516e-06 0
0.000989283 2.5465e-06 0
0.000989283 2.5465e-06 0
0.000987199 1.60537e-06 0
0.000987199 1.60537e-06 0
0.000986105 3.6135e-07 0
0.000986105 3.6135e-07 0
0.000985597 6.30003e-07 0
0.000985597 6.30003e-07 0
0.000984536 2.61132e-06 0
0.000984536 2.61132e-06 0
0.00098215 4.67835e-06 0
0.00098215 4.67835e-06 0
0.000978699 4.9832e-06 0
0.000978699 4.9832e-06 0
0.000975174 3.15049e-06 0
0.000975174 3.15049e-06 0
0.000972384 5.29587e-07 0
0.000972384 5.29587e-07 0
0.000970373 -1.01784e-06 0
0.000970373 -1.01784e-06 0
0.000968476 -5.49869e-07 0
0.000968476 -5.49869e-07 0
0.00096574 1.49278e-06 0
0.00096574 1.49278e-06 0
0.000961444 3.89054e-06 0
0.000961444 3.89054e-06 0
0.000955466 5.56983e-06 0
0.000955466 5.56983e-06 0
0.000948255 6.13862e-06 0
0.000948255 6.13862e-06 0
0.00094046 5.83757e-06 0
0.00094046 5.83757e-06 0
0.000932577 5.16047e-06 0
0.000932577 5.16047e-06 0
0.000924835 4.50849e-06 0
0.000924835 4.50849e-06 0
0.000917272 4.06156e-06 0
0.000917272 4.06156e-06 0
0.000909826 3.82772e-06 0
0.000909826 3.82772e-06 0
0.000902416 3.74282e-06 0
0.000902416 3.74282e-06 0
0.000894979 3.73903e-06 0
0.000894979 3.73903e-06 0
0.000887482 3.771e-06 0
0.000887482 3.771e-06 0
0.00087991 3.81597e-06 0
0.00087991 3.81597e-06 0
0.000872257 3.86521e-06 0
0.000872257 3.86521e-06 0
0.000864517 3.91632e-06 0
0.000864517 3.91632e-06 0
0.000856687 3.96905e-06 0
0.000856687 3.96905e-06 0
0.000848762 4.02358e-06 0
0.000848762 4.02358e-06 0
0.000840739 4.08009e-06 0
0.000840739 4.08009e-06 0
0.000832614 4.13866e-06 0
0.000832614 4.13866e-06 0
0.000824381 4.19935e-06 0
0.000824381 4.19935e-06 0
0.000816038 4.26216e-06 0
0.000816038 4.26216e-06 0
0.000807578 4.32711e-06 0
0.000807578 4.32711e-06 0
0.000798998 4.39419e-06 0
0.000798998 4.39419e-06 0
0.000790294 4.46341e-06 0
0.000790294 4.46341e-06 0
0.000781459 4.53475e-06 0
0.000781459 4.53475e-06 0
0.000772491 4.60821e-06 0
0.000772491 4.60821e-06 0
0.000763384 4.68375e-06 0
0.000763384 4.68375e-06 0
0.000754134 4.76137e-06 0
0.000754134 4.76137e-06 0
0.000744736 4.84103e-06 0
0.000744736 4.84103e-06 0
0.000735186 4.92268e-06 0
0.000735186 4.92268e-06 0
0.000725479 5.00628e-06 0
0.000725479 5.00628e-06 0
0.00071561 5.09178e-06 0
0.00071561 5.09178e-06 0
0.000705575 5.17911e-06 0
0.000705575 5.17911e-06 0
0.00069537 5.26819e-06 0
0.00069537 5.26819e-06 0
0.00068499 5.35894e-06 0
0.00068499 5.35894e-06 0
0.000674431 5.45125e-06 0
0.000674431 5.45125e-06 0
0.00066369 5.54503e-06 0
0.00066369 5.54503e-06 0
0.000652761 5.64014e-06 0
0.000652761 5.64014e-06 0
0.000641643 5.73645e-06 0
0.000641643 5.73645e-06 0
0.00063033 5.83382e-06 0
0.00063033 5.83382e-06 0
0.00061882 5.93209e-06 0
0.00061882 5.93209e-06 0
0.000607109 6.03111e-06 0
0.000607109 6.03111e-06 0
0.000595196 6.1307e-06 0
0.000595196 6.1307e-06 0
0.000583077 6.23067e-06 0
0.000583077 6.23067e-06 0
0.00057075 6.3308e-06 0
0.00057075 6.3308e-06 0
0.000558214 6.43085e-06 0
0.000558214 6.43085e-06 0
0.000545467 6.53062e-06 0
0.000545467 6.53062e-06 0
0.000532509 6.62995e-06 0
0.000532509 6.62995e-06 0
0.00051934 6.72874e-06 0
0.00051934 6.72874e-06 0
0.000505961 6.82639e-06 0
0.000505961 6.82639e-06 0
0.000492373 6.9216e-06 0
0.000492373 6.9216e-06 0
0.000478578 7.0132e-06 0
0.000478578 7.0132e-06 0
0.000464576 7.10041e-06 0
0.000464576 7.10041e-06 0
0.000450371 7.18283e-06 0
0.000450371 7.18283e-06 0
0.000435967 7.26018e-06 0
0.000435967 7.26018e-06 0
0.000421367 7.3321e-06 0
0.000421367 7.3321e-06 0
0.000406577 7.39817e-06 0
0.000406577 7.39817e-06 0
0.000391603 7.45797e-06 0
0.000391603 7.45797e-06 0
0.000376451 7.51116e-06 0
0.000376451 7.51116e-06 0
0.000361129 7.55739e-06 0
0.000361129 7.55739e-06 0
0.000345646 7.59643e-06 0
0.000345646 7.59643e-06 0
0.000330008 7.62808e-06 0
0.000330008 7.62808e-06 0
0.000314227 7.65222e-06 0
0.000314227 7.65222e-06 0
0.000298311 7.66883e-06 0
0.000298311 7.66883e-06 0
0.000282272 7.67802e-06 0
0.000282272 7.67802e-06 0
0.000266119 7.67998e-06 0
0.000266119 7.67998e-06 0
0.000249863 7.67507e-06 0
0.000249863 7.67507e-06 0
0.000233516 7.66377e-06 0
0.000233516 7.66377e-06 0
0.000217087 7.64669e-06 0
0.000217087 7.64669e-06 0
0.000200587 7.62459e-06 0
0.000200587 7.62459e-06 0
0.000184027 7.59835e-06 0
0.000184027 7.59835e-06 0
0.000167415 7.56897e-06 0
0.000167415 7.56897e-06 0
0.00015076 7.53751e-06 0
0.00015076 7.53751e-06 0
0.000134071 7.50512e-06 0
0.000134071 7.50512e-06 0
0.000117355 7.47299e-06 0
0.000117355 7.47299e-06 0
0.000100617 7.44228e-06 0
0.000100617 7.44228e-06 0
8.38632e-05 7.41412e-06 0
8.38632e-05 7.41412e-06 0
6.7098e-05 7.38958e-06 0
6.7098e-05 7.38958e-06 0
5.03248e-05 7.36922e-06 0
5.03248e-05 7.36922e-06 0
3.35473e-05 7.35305e-06 0
3.35473e-05 7.35305e-06 0
1.67672e-05 7.34356e-06 0
1.67672e-05 7.34356e-06 0
8.37632e-06 7.3411e-06 0
8.37632e-06 7.3411e-06 0
9.17641e-06 1.68592e-05 0
9.17641e-06 1.68592e-05 0
9.81099e-06 3.662e-05 0
9.81099e-06 3.662e-05 0
9.54748e-06 5.61582e-05 0
9.54748e-06 5.61582e-05 0
9.43494e-06 7.49297e-05 0
9.43494e-06 7.49297e-05 0
9.43576e-06 9.38676e-05 0
9.43576e-06 9.38676e-05 0
9.4751e-06 0.000112814 0
9.4751e-06 0.000112814 0
9.52724e-06 0.000131838 0
9.52724e-06 0.000131838 0
9.58754e-06 0.000150978 0
9.58754e-06 0.000150978 0
9.65618e-06 0.000170248 0
9.65618e-06 0.000170248 0
9.73377e-06 0.000189664 0
9.73377e-06 0.000189664 0
9.82089e-06 0.000209244 0
9.82089e-06 0.000209244 0
9.91804e-06 0.000229008 0
9.91804e-06 0.000229008 0
1.00258e-05 0.000248977 0
1.00258e-05 0.000248977 0
1.01448e-05 0.000269172 0
1.01448e-05 0.000269172 0
1.02757e-05 0.000289617 0
1.02757e-05 0.000289617 0
1.04195e-05 0.000310335 0
1.04195e-05 0.000310335 0
1.0577e-05 0.000331355 0
1.0577e-05 0.000331355 0
1.07492e-05 0.000352703 0
1.07492e-05 0.000352703 0
1.09375e-05 0.000374411 0
1.09375e-05 0.000374411 0
1.1143e-05 0.000396512 0
1.1143e-05 0.000396512 0
1.13676e-05 0.000419043 0
1.13676e-05 0.000419043 0
1.16127e-05 0.000442042 0
1.16127e-05 0.000442042 0
1.1881e-05 0.000465553 0
1.1881e-05 0.000465553 0
1.2174e-05 0.000489624 0
1.2174e-05 0.000489624 0
1.24943e-05 0.000514306 0
1.24943e-05 0.000514306 0
1.285e-05 0.000539663 0
1.285e-05 0.000539663 0
1.32298e-05 0.00056575 0
1.32298e-05 0.00056575 0
1.36662e-05 0.000592659 0
1.36662e-05 0.000592659 0
1.41302e-05 0.000620448 0
1.41302e-05 0.000620448 0
1.46509e-05 0.000649243 0
1.46509e-05 0.000649243 0
1.52374e-05 0.000679123 0
1.52374e-05 0.000679123 0
1.58919e-05 0.000710237 0
1.58919e-05 0.000710237 0
1.65835e-05 0.000742689 0
1.65835e-05 0.000742689 0
1.74765e-05 0.000776765 0
1.74765e-05 0.000776765 0
1.83065e-05 0.000812438 0
1.83065e-05 0.000812438 0
1.94803e-05 0.000850255 0
1.94803e-05 0.000850255 0
2.05967e-05 0.000890131 0
2.05967e-05 0.000890131 0
2.22714e-05 0.000933017 0
2.22714e-05 0.000933017 0
2.33984e-05 0.000978356 0
2.33984e-05 0.000978356 0
2.6213e-05 0.00102805 0
2.6213e-05 0.00102805 0
2.77112e-05 0.00108107 0
2.77112e-05 0.00108107 0
3.22693e-05 0.00114099 0
3.22693e-05 0.00114099 0
3.35637e-05 0.00120522 0
3.35637e-05 0.00120522 0
4.23745e-05 0.00128099 0
4.23745e-05 0.00128099 0
4.38163e-05 0.00136399 0
4.38163e-05 0.00136399 0
6.44077e-05 0.00146854 0
6.44077e-05 0.00146854 0
6.75991e-05 0.00159133 0
6.75991e-05 0.00159133 0
0.000126738 0.0017582 0
0.000126738 0.0017582 0
0.000152539 0.00198383 0
0.000152539 0.00198383 0
0.00017534 0.00124354 0
0.00017534 0.00124354 0
-0.000189742 -4.84405e-05 0
-0.000189742 -4.84405e-05 0
-3.96376e-05 -0.000527193 0
-3.96376e-05 -0.000527193 0
0.000193249 -0.000161021 0
0.000193249 -0.000161021 0
-0.00050559 0.000390171 0
-0.00050559 0.000390171 0
-0.00137552 0.000517038 0
-0.00137552 0.000517038 0
-0.00227987 0.000449294 0
-0.00227987 0.000449294 0
-0.00295071 0.00032929 0
-0.00295071 0.00032929 0
-0.00339364 0.000188558 0
-0.00339364 0.000188558 0
-0.00355931 4.83541e-05 0
-0.00355931 4.83541e-05 0
-0.00349034 -7.65154e-05 0
-0.00349034 -7.65154e-05 0
-0.00321764 -0.000175315 0
-0.00321764 -0.000175315 0
-0.0027939 -0.000244055 0
-0.0027939 -0.000244055 0
-0.00226921 -0.000281559 0
-0.00226921 -0.000281559 0
-0.00170331 -0.000291571 0
-0.00170331 -0.000291571 0
-0.00113915 -0.000281965 0
-0.00113915 -0.000281965 0
-0.000606701 -0.000257571 0
-0.000606701 -0.000257571 0
-0.000131895 -0.000222809 0
-0.000131895 -0.000222809 0
0.000263461 -0.000184476 0
0.000263461 -0.000184476 0
0.000588827 -0.00015135 0
0.000588827 -0.00015135 0
0.000851381 -0.0001207 0
0.000851381 -0.0001207 0
0.00106449 -9.95275e-05 0
0.00106449 -9.95275e-05 0
0.00123661 -7.98308e-05 0
0.00123661 -7.98308e-05 0
0.00138294 -7.39194e-05 0
0.00138294 -7.39194e-05 0
0.00150713 -6.42877e-05 0
0.00150713 -6.42877e-05 0
0.000857252 -5.01397e-05 0
0.000857252 -5.01397e-05 0
1.7505e-06 -2.31728e-06 0
1.7505e-06 -2.31728e-06 0
1.73888e-06 -4.63614e-06 0
1.73888e-06 -4.63614e-06 0
1.70303e-06 -9.23863e-06 0
1.70303e-06 -9.23863e-06 0
1.64134e-06 -1.37455e-05 0
1.64134e-06 -1.37455e-05 0
1.55299e-06 -1.81063e-05 0
1.55299e-06 -1.81063e-05 0
1.4373e-06 -2.22689e-05 0
1.4373e-06 -2.22689e-05 0
1.293e-06 -2.61788e-05 0
1.293e-06 -2.61788e-05 0
1.11823e-06 -2.97775e-05 0
1.11823e-06 -2.97775e-05 0
9.10695e-07 -3.30024e-05 0
9.10695e-07 -3.30024e-05 0
6.67505e-07 -3.57854e-05 0
6.67505e-07 -3.57854e-05 0
3.85048e-07 -3.80519e-05 0
3.85048e-07 -3.80519e-05 0
5.88397e-08 -3.97197e-05 0
5.88397e-08 -3.97197e-05 0
-3.16391e-07 -4.06982e-05 0
-3.16391e-07 -4.06982e-05 0
-7.44723e-07 -4.08853e-05 0
-7.44723e-07 -4.08853e-05 0
-1.22692e-06 -4.01633e-05 0
-1.22692e-06 -4.01633e-05 0
-1.76891e-06 -3.84005e-05 0
-1.76891e-06 -3.84005e-05 0
-2.38328e-06 -3.54481e-05 0
-2.38328e-06 -3.54481e-05 0
-3.08165e-06 -3.11369e-05 0
-3.08165e-06 -3.11369e-05 0
-3.87508e-06 -2.52731e-05 0
-3.87508e-06 -2.52731e-05 0
-4.77681e-06 -1.76328e-05 0
-4.77681e-06 -1.76328e-05 0
-5.80339e-06 -7.96611e-06 0
-5.80339e-06 -7.96611e-06 0
-6.96743e-06 4.02474e-06 0
-6.96743e-06 4.02474e-06 0
-8.29168e-06 1.87103e-05 0
-8.29168e-06 1.87103e-05 0
-9.82303e-06 3.64875e-05 0
-9.82303e-06 3.64875e-05 0
-1.15928e-05 5.78329e-05 0
-1.15928e-05 5.78329e-05 0
-1.36164e-05 8.32375e-05 0
-1.36164e-05 8.32375e-05 0
-1.59331e-05 0.000113375 0
-1.59331e-05 0.000113375 0
-1.85902e-05 0.000148774 0
-1.85902e-05 0.000148774 0
-2.1611e-05 0.00019044 0
-2.1611e-05 0.00019044 0
-2.50609e-05 0.000238753 0
-2.50609e-05 0.000238753 0
-2.88426e-05 0.000295143 0
-2.88426e-05 0.000295143 0
-3.32033e-05 0.000359557 0
-3.32033e-05 0.000359557 0
-3.73757e-05 0.000433618 0
-3.73757e-05 0.000433618 0
-4.20275e-05 0.000516216 0
-4.20275e-05 0.000516216 0
-4.68738e-05 0.000608421 0
-4.68738e-05 0.000608421 0
-4.94286e-05 0.000709075 0
-4.94286e-05 0.000709075 0
-5.03949e-05 0.000813834 0
-5.03949e-05 0.000813834 0
-5.07264e-05 0.000920487 0
-5.07264e-05 0.000920487 0
-4.82691e-05 0.00102584 0
-4.82691e-05 0.00102584 0
-3.99252e-05 0.0011195 0
-3.99252e-05 0.0011195 0
-2.45594e-05 0.00119208 0
-2.45594e-05 0.00119208 0
-2.2806e-06 0.00122915 0
-2.2806e-06 0.00122915 0
2.69942e-05 0.00122376 0
2.69942e-05 0.00122376 0
5.77694e-05 0.00115395 0
5.77694e-05 0.00115395 0
8.85829e-05 0.00103399 0
8.85829e-05 0.00103399 0
0.000115188 0.00084326 0
0.000115188 0.00084326 0
0.000143492 0.000631549 0
0.000143492 0.000631549 0
0.000116594 0.000340868 0
0.000116594 0.000340868 0
1.98636e-05 0.000162639 0
1.98636e-05 0.000162639 0
6.14967e-05 6.90502e-05 0
6.14967e-05 6.90502e-05 0
4.66528e-06 -2.69801e-06 0
4.66528e-06 -2.69801e-06 0
1.07756e-05 -2.99556e-06 0
1.07756e-05 -2.99556e-06 0
1.67062e-05 -2.90528e-06 0
1.67062e-05 -2.90528e-06 0
2.24428e-05 -2.938e-06 0
2.24428e-05 -2.938e-06 0
2.84809e-05 -3.03499e-06 0
2.84809e-05 -3.03499e-06 0
3.46827e-05 -3.15899e-06 0
3.46827e-05 -3.15899e-06 0
4.11583e-05 -3.30088e-06 0
4.11583e-05 -3.30088e-06 0
4.79363e-05 -3.45834e-06 0
4.79363e-05 -3.45834e-06 0
5.5044e-05 -3.62933e-06 0
5.5044e-05 -3.62933e-06 0
6.25069e-05 -3.81148e-06 0
6.25069e-05 -3.81148e-06 0
7.03445e-05 -4.00227e-06 0
7.03445e-05 -4.00227e-06 0
7.85716e-05 -4.19912e-06 0
7.85716e-05 -4.19912e-06 0
8.71976e-05 -4.39946e-06 0
8.71976e-05 -4.39946e-06 0
9.62267e-05 -4.60075e-06 0
9.62267e-05 -4.60075e-06 0
0.000105658 -4.80055e-06 0
0.000105658 -4.80055e-06 0
0.000115487 -4.99654e-06 0
0.000115487 -4.99654e-06 0
0.000125702 -5.18658e-06 0
0.000125702 -5.18658e-06 0
0.000136291 -5.36873e-06 0
0.000136291 -5.36873e-06 0
0.000147235 -5.54126e-06 0
0.000147235 -5.54126e-06 0
0.000158513 -5.70267e-06 0
0.000158513 -5.70267e-06 0
0.000170102 -5.85167e-06 0
0.000170102 -5.85167e-06 0
0.000181976 -5.98724e-06 0
0.000181976 -5.98724e-06 0
0.000194108 -6.10855e-06 0
0.000194108 -6.10855e-06 0
0.000206467 -6.21505e-06 0
0.000206467 -6.21505e-06 0
0.000219023 -6.30637e-06 0
0.000219023 -6.30637e-06 0
0.000231748 -6.38236e-06 0
0.000231748 -6.38236e-06 0
0.000244608 -6.44304e-06 0
0.000244608 -6.44304e-06 0
0.000257575 -6.48862e-06 0
0.000257575 -6.48862e-06 0
0.000270618 -6.51944e-06 0
0.000270618 -6.51944e-06 0
0.000283708 -6.53596e-06 0
0.000283708 -6.53596e-06 0
0.000296817 -6.53878e-06 0
0.000296817 -6.53878e-06 0
0.000309918 -6.52854e-06 0
0.000309918 -6.52854e-06 0
0.000322986 -6.50598e-06 0
0.000322986 -6.50598e-06 0
0.000335997 -6.47188e-06 0
0.000335997 -6.47188e-06 0
0.000348929 -6.42706e-06 0
0.000348929 -6.42706e-06 0
0.000361761 -6.37234e-06 0
0.000361761 -6.37234e-06 0
0.000374473 -6.30857e-06 0
0.000374473 -6.30857e-06 0
0.000387049 -6.23659e-06 0
0.000387049 -6.23659e-06 0
0.000399474 -6.1572e-06 0
0.000399474 -6.1572e-06 0
0.000411732 -6.07121e-06 0
0.000411732 -6.07121e-06 0
0.000423811 -5.97939e-06 0
0.000423811 -5.97939e-06 0
0.000435701 -5.88246e-06 0
0.000435701 -5.88246e-06 0
0.000447392 -5.78113e-06 0
0.000447392 -5.78113e-06 0
0.000458876 -5.67606e-06 0
0.000458876 -5.67606e-06 0
0.000470146 -5.56785e-06 0
0.000470146 -5.56785e-06 0
0.000481197 -5.45709e-06 0
0.000481197 -5.45709e-06 0
0.000492023 -5.34429e-06 0
0.000492023 -5.34429e-06 0
0.000502621 -5.22995e-06 0
0.000502621 -5.22995e-06 0
0.000512989 -5.11451e-06 0
0.000512989 -5.11451e-06 0
0.000523124 -4.99838e-06 0
0.000523124 -4.99838e-06 0
0.000533027 -4.88193e-06 0
0.000533027 -4.88193e-06 0
0.000542695 -4.76548e-06 0
0.000542695 -4.76548e-06 0
0.000552131 -4.64933e-06 0
0.000552131 -4.64933e-06 0
0.000561334 -4.53374e-06 0
0.000561334 -4.53374e-06 0
0.000570306 -4.41896e-06 0
0.000570306 -4.41896e-06 0
0.00057905 -4.30518e-06 0
0.00057905 -4.30518e-06 0
0.000587566 -4.19257e-06 0
0.000587566 -4.19257e-06 0
0.000595858 -4.08131e-06 0
0.000595858 -4.08131e-06 0
0.000603928 -3.97151e-06 0
0.000603928 -3.97151e-06 0
0.00061178 -3.86329e-06 0
0.00061178 -3.86329e-06 0
0.000619416 -3.75674e-06 0
0.000619416 -3.75674e-06 0
0.000626841 -3.65194e-06 0
0.000626841 -3.65194e-06 0
0.000634058 -3.54895e-06 0
0.000634058 -3.54895e-06 0
0.00064107 -3.44781e-06 0
0.00064107 -3.44781e-06 0
0.000647881 -3.34856e-06 0
0.000647881 -3.34856e-06 0
0.000654495 -3.25123e-06 0
0.000654495 -3.25123e-06 0
0.000660916 -3.15582e-06 0
0.000660916 -3.15582e-06 0
0.000667148 -3.06235e-06 0
0.000667148 -3.06235e-06 0
0.000673194 -2.97081e-06 0
0.000673194 -2.97081e-06 0
0.000679059 -2.88118e-06 0
0.000679059 -2.88118e-06 0
0.000684746 -2.79346e-06 0
0.000684746 -2.79346e-06 0
0.000690259 -2.70761e-06 0
0.000690259 -2.70761e-06 0
0.000695602 -2.62363e-06 0
0.000695602 -2.62363e-06 0
0.000700779 -2.54146e-06 0
0.000700779 -2.54146e-06 0
0.000705793 -2.46109e-06 0
0.000705793 -2.46109e-06 0
0.000710647 -2.38247e-06 0
0.000710647 -2.38247e-06 0
0.000715346 -2.30556e-06 0
0.000715346 -2.30556e-06 0
0.000719892 -2.23032e-06 0
0.000719892 -2.23032e-06 0
0.000724289 -2.15671e-06 0
0.000724289 -2.15671e-06 0
0.00072854 -2.08469e-06 0
0.00072854 -2.08469e-06 0
0.000732649 -2.01419e-06 0
0.000732649 -2.01419e-06 0
0.000736617 -1.9452e-06 0
0.000736617 -1.9452e-06 0
0.000740449 -1.87763e-06 0
0.000740449 -1.87763e-06 0
0.000744147 -1.81148e-06 0
0.000744147 -1.81148e-06 0
0.000747713 -1.74663e-06 0
0.000747713 -1.74663e-06 0
0.000751151 -1.68313e-06 0
0.000751151 -1.68313e-06 0
0.000754464 -1.6208e-06 0
0.000754464 -1.6208e-06 0
0.00075765 -1.55976e-06 0
0.00075765 -1.55976e-06 0
0.00076072 -1.4997e-06 0
0.00076072 -1.4997e-06 0
0.000763664 -1.44101e-06 0
0.000763664 -1.44101e-06 0
0.000766501 -1.38293e-06 0
0.000766501 -1.38293e-06 0
0.000769207 -1.32646e-06 0
0.000769207 -1.32646e-06 0
0.000771827 -1.27003e-06 0
0.000771827 -1.27003e-06 0
0.000774292 -1.21587e-06 0
0.000774292 -1.21587e-06 0
0.000776718 -1.16038e-06 0
0.000776718 -1.16038e-06 0
0.000778923 -1.10905e-06 0
0.000778923 -1.10905e-06 0
0.000781201 -1.05336e-06 0
0.000781201 -1.05336e-06 0
0.000783088 -1.0061e-06 0
0.000783088 -1.0061e-06 0
0.984423 -0.00112757 0
0.984423 -0.00112757 0
1.96806 -0.00225415 0
1.96806 -0.00225415 0
