/*--------------------------------*- C++ -*----------------------------------*\
| =========                 |                                                 |
| \\      /  F ield         | OpenFOAM: The Open Source CFD Toolbox           |
|  \\    /   O peration     | Version:  4.1                                   |
|   \\  /    A nd           | Web:      www.OpenFOAM.org                      |
|    \\/     M anipulation  |                                                 |
\*---------------------------------------------------------------------------*/
FoamFile
{
    version     2.0;
    format      ascii;
    class       surfaceScalarField;
    location    "0.11";
    object      phi;
}
// * * * * * * * * * * * * * * * * * * * * * * * * * * * * * * * * * * * * * //

dimensions      [0 3 -1 0 0 0 0];

internalField   nonuniform List<scalar> 
87025
(
1.9869e-05
1.30965e-07
1.97561e-05
1.12892e-07
1.96614e-05
9.47009e-08
1.95708e-05
9.06181e-08
1.9482e-05
8.88417e-08
1.9394e-05
8.7971e-08
1.93064e-05
8.76344e-08
1.92188e-05
8.75977e-08
1.9131e-05
8.77526e-08
1.9043e-05
8.80453e-08
1.89545e-05
8.84466e-08
1.88656e-05
8.89394e-08
1.87761e-05
8.95138e-08
1.86859e-05
9.01634e-08
1.8595e-05
9.08843e-08
1.85034e-05
9.16741e-08
1.84108e-05
9.25315e-08
1.83174e-05
9.34557e-08
1.82229e-05
9.44464e-08
1.81274e-05
9.55038e-08
1.80308e-05
9.66283e-08
1.7933e-05
9.78205e-08
1.78339e-05
9.90812e-08
1.77335e-05
1.00411e-07
1.76317e-05
1.01812e-07
1.75284e-05
1.03284e-07
1.74236e-05
1.04829e-07
1.73171e-05
1.06447e-07
1.7209e-05
1.08142e-07
1.70991e-05
1.09913e-07
1.69873e-05
1.11763e-07
1.68736e-05
1.13693e-07
1.67579e-05
1.15705e-07
1.66401e-05
1.178e-07
1.65201e-05
1.1998e-07
1.63979e-05
1.22248e-07
1.62733e-05
1.24603e-07
1.61462e-05
1.2705e-07
1.60166e-05
1.29588e-07
1.58844e-05
1.32221e-07
1.57495e-05
1.3495e-07
1.56117e-05
1.37776e-07
1.5471e-05
1.40702e-07
1.53272e-05
1.43729e-07
1.51804e-05
1.4686e-07
1.50303e-05
1.50095e-07
1.48769e-05
1.53436e-07
1.472e-05
1.56885e-07
1.45595e-05
1.60443e-07
1.43954e-05
1.64111e-07
1.42275e-05
1.67891e-07
1.40557e-05
1.71783e-07
1.388e-05
1.75788e-07
1.37e-05
1.79906e-07
1.35159e-05
1.84138e-07
1.33274e-05
1.88483e-07
1.31345e-05
1.92942e-07
1.2937e-05
1.97513e-07
1.27348e-05
2.02194e-07
1.25278e-05
2.06986e-07
1.23159e-05
2.11884e-07
1.2099e-05
2.16888e-07
1.1877e-05
2.21993e-07
1.16498e-05
2.27196e-07
1.14173e-05
2.32492e-07
1.11795e-05
2.37876e-07
1.09361e-05
2.43343e-07
1.06872e-05
2.48885e-07
1.04327e-05
2.54496e-07
1.01726e-05
2.60167e-07
9.90668e-06
2.65889e-07
9.63503e-06
2.71652e-07
9.35758e-06
2.77445e-07
9.07433e-06
2.83256e-07
8.78526e-06
2.89072e-07
8.49038e-06
2.9488e-07
8.18971e-06
3.00664e-07
7.8833e-06
3.0641e-07
7.5712e-06
3.121e-07
7.25349e-06
3.17718e-07
6.93024e-06
3.23246e-07
6.60157e-06
3.28665e-07
6.26762e-06
3.33956e-07
5.92852e-06
3.391e-07
5.58444e-06
3.44076e-07
5.23558e-06
3.48865e-07
4.88213e-06
3.53447e-07
4.52433e-06
3.57801e-07
4.16242e-06
3.61909e-07
3.79667e-06
3.65751e-07
3.42736e-06
3.69309e-07
3.05479e-06
3.72566e-07
2.67929e-06
3.75505e-07
2.30118e-06
3.78111e-07
1.92081e-06
3.80371e-07
1.53853e-06
3.82271e-07
1.15474e-06
3.83798e-07
7.698e-07
3.84936e-07
3.84156e-07
3.85643e-07
3.84156e-07
1.99428e-05
1.88162e-07
1.98589e-05
1.96779e-07
1.97695e-05
1.84137e-07
1.96807e-05
1.79422e-07
1.95924e-05
1.7708e-07
1.95045e-05
1.75905e-07
1.94167e-05
1.7546e-07
1.93288e-05
1.75488e-07
1.92407e-05
1.75849e-07
1.91523e-05
1.76462e-07
1.90634e-05
1.77281e-07
1.89741e-05
1.78277e-07
1.88842e-05
1.79432e-07
1.87936e-05
1.80737e-07
1.87023e-05
1.82182e-07
1.86102e-05
1.83766e-07
1.85173e-05
1.85483e-07
1.84234e-05
1.87335e-07
1.83285e-05
1.89319e-07
1.82326e-05
1.91438e-07
1.81355e-05
1.9369e-07
1.80373e-05
1.96078e-07
1.79377e-05
1.98603e-07
1.78369e-05
2.01268e-07
1.77346e-05
2.04073e-07
1.76309e-05
2.07022e-07
1.75256e-05
2.10117e-07
1.74187e-05
2.1336e-07
1.73101e-05
2.16755e-07
1.71997e-05
2.20304e-07
1.70874e-05
2.24011e-07
1.69732e-05
2.27878e-07
1.6857e-05
2.31909e-07
1.67387e-05
2.36107e-07
1.66182e-05
2.40477e-07
1.64955e-05
2.4502e-07
1.63703e-05
2.49741e-07
1.62427e-05
2.54644e-07
1.61126e-05
2.59732e-07
1.59798e-05
2.65009e-07
1.58443e-05
2.70478e-07
1.57059e-05
2.76144e-07
1.55646e-05
2.82009e-07
1.54203e-05
2.88078e-07
1.52728e-05
2.94354e-07
1.5122e-05
3.0084e-07
1.49679e-05
3.07539e-07
1.48103e-05
3.14454e-07
1.46492e-05
3.21589e-07
1.44844e-05
3.28945e-07
1.43157e-05
3.36525e-07
1.41432e-05
3.4433e-07
1.39666e-05
3.52363e-07
1.37859e-05
3.60623e-07
1.36009e-05
3.69113e-07
1.34116e-05
3.7783e-07
1.32177e-05
3.86775e-07
1.30193e-05
3.95946e-07
1.28162e-05
4.0534e-07
1.26082e-05
4.14955e-07
1.23953e-05
4.24787e-07
1.21773e-05
4.34829e-07
1.19543e-05
4.45076e-07
1.17259e-05
4.55521e-07
1.14923e-05
4.66154e-07
1.12532e-05
4.76965e-07
1.10086e-05
4.87943e-07
1.07584e-05
4.99075e-07
1.05025e-05
5.10345e-07
1.0241e-05
5.21736e-07
9.97363e-06
5.33232e-07
9.70047e-06
5.44811e-07
9.42147e-06
5.56452e-07
9.13659e-06
5.68131e-07
8.84584e-06
5.79821e-07
8.54923e-06
5.91496e-07
8.24676e-06
6.03126e-07
7.93849e-06
6.14679e-07
7.62447e-06
6.26124e-07
7.30477e-06
6.37424e-07
6.97947e-06
6.48544e-07
6.64869e-06
6.59446e-07
6.31255e-06
6.70092e-07
5.97121e-06
6.80443e-07
5.62482e-06
6.90459e-07
5.27359e-06
7.00099e-07
4.91772e-06
7.09322e-07
4.55743e-06
7.18089e-07
4.19298e-06
7.26361e-07
3.82463e-06
7.34098e-07
3.45268e-06
7.41264e-07
3.07742e-06
7.47823e-07
2.69918e-06
7.53744e-07
2.3183e-06
7.58994e-07
1.93512e-06
7.63547e-07
1.55002e-06
7.67377e-07
1.16335e-06
7.70464e-07
7.75496e-07
7.7279e-07
3.86796e-07
7.74344e-07
7.70952e-07
1.99316e-05
2.56611e-07
1.98484e-05
2.79885e-07
1.97629e-05
2.69642e-07
1.96763e-05
2.66032e-07
1.95893e-05
2.6409e-07
1.95021e-05
2.6309e-07
1.94148e-05
2.62801e-07
1.93272e-05
2.63041e-07
1.92394e-05
2.63691e-07
1.91512e-05
2.64674e-07
1.90625e-05
2.65941e-07
1.89733e-05
2.67459e-07
1.88836e-05
2.69208e-07
1.87931e-05
2.71176e-07
1.8702e-05
2.73352e-07
1.861e-05
2.75732e-07
1.85172e-05
2.78313e-07
1.84234e-05
2.81093e-07
1.83287e-05
2.84072e-07
1.82328e-05
2.87251e-07
1.81359e-05
2.90631e-07
1.80378e-05
2.94215e-07
1.79384e-05
2.98004e-07
1.78376e-05
3.02001e-07
1.77355e-05
3.0621e-07
1.76319e-05
3.10635e-07
1.75267e-05
3.15278e-07
1.74199e-05
3.20144e-07
1.73115e-05
3.25237e-07
1.72012e-05
3.30562e-07
1.70891e-05
3.36123e-07
1.6975e-05
3.41925e-07
1.6859e-05
3.47973e-07
1.67408e-05
3.54272e-07
1.66205e-05
3.60827e-07
1.64978e-05
3.67644e-07
1.63728e-05
3.74728e-07
1.62454e-05
3.82084e-07
1.61154e-05
3.89719e-07
1.59828e-05
3.97637e-07
1.58474e-05
4.05844e-07
1.57092e-05
4.14345e-07
1.55681e-05
4.23147e-07
1.54239e-05
4.32254e-07
1.52766e-05
4.41672e-07
1.5126e-05
4.51406e-07
1.49721e-05
4.6146e-07
1.48147e-05
4.71839e-07
1.46538e-05
4.82548e-07
1.44891e-05
4.93589e-07
1.43207e-05
5.04967e-07
1.41483e-05
5.16685e-07
1.39719e-05
5.28743e-07
1.37914e-05
5.41145e-07
1.36066e-05
5.53891e-07
1.34175e-05
5.6698e-07
1.32239e-05
5.80411e-07
1.30256e-05
5.94183e-07
1.28227e-05
6.08292e-07
1.26149e-05
6.22733e-07
1.24022e-05
6.375e-07
1.21844e-05
6.52585e-07
1.19615e-05
6.6798e-07
1.17334e-05
6.83672e-07
1.14999e-05
6.99649e-07
1.12609e-05
7.15896e-07
1.10165e-05
7.32394e-07
1.07664e-05
7.49125e-07
1.05107e-05
7.66067e-07
1.02493e-05
7.83193e-07
9.98201e-06
8.00477e-07
9.70893e-06
8.1789e-07
9.42998e-06
8.35397e-07
9.14515e-06
8.52963e-07
8.85442e-06
8.7055e-07
8.5578e-06
8.88115e-07
8.25532e-06
9.05615e-07
7.94699e-06
9.23002e-07
7.63289e-06
9.40227e-07
7.31307e-06
9.57238e-07
6.98764e-06
9.7398e-07
6.65669e-06
9.90397e-07
6.32035e-06
1.00643e-06
5.97877e-06
1.02202e-06
5.63212e-06
1.03711e-06
5.28059e-06
1.05163e-06
4.92438e-06
1.06553e-06
4.56373e-06
1.07874e-06
4.19888e-06
1.09121e-06
3.8301e-06
1.10287e-06
3.45769e-06
1.11367e-06
3.08195e-06
1.12356e-06
2.70321e-06
1.13249e-06
2.32179e-06
1.14041e-06
1.93806e-06
1.14727e-06
1.55239e-06
1.15305e-06
1.16514e-06
1.15771e-06
7.76696e-07
1.16123e-06
3.8746e-07
1.16358e-06
1.15841e-06
1.99275e-05
3.29156e-07
1.98439e-05
3.63447e-07
1.97597e-05
3.53848e-07
1.96743e-05
3.51375e-07
1.95883e-05
3.50129e-07
1.95018e-05
3.49561e-07
1.9415e-05
3.49611e-07
1.93279e-05
3.50184e-07
1.92404e-05
3.512e-07
1.91524e-05
3.52603e-07
1.9064e-05
3.54349e-07
1.89751e-05
3.5641e-07
1.88855e-05
3.58767e-07
1.87953e-05
3.61405e-07
1.87043e-05
3.64317e-07
1.86126e-05
3.67498e-07
1.85199e-05
3.70943e-07
1.84264e-05
3.74652e-07
1.83318e-05
3.78625e-07
1.82362e-05
3.82864e-07
1.81395e-05
3.8737e-07
1.80415e-05
3.92146e-07
1.79424e-05
3.97196e-07
1.78418e-05
4.02523e-07
1.77399e-05
4.08133e-07
1.76365e-05
4.14028e-07
1.75316e-05
4.20216e-07
1.7425e-05
4.267e-07
1.73168e-05
4.33488e-07
1.72067e-05
4.40583e-07
1.70949e-05
4.47994e-07
1.69811e-05
4.55726e-07
1.68653e-05
4.63786e-07
1.67474e-05
4.7218e-07
1.66273e-05
4.80916e-07
1.65049e-05
4.90001e-07
1.63802e-05
4.99442e-07
1.6253e-05
5.09247e-07
1.61233e-05
5.19422e-07
1.5991e-05
5.29976e-07
1.58559e-05
5.40915e-07
1.5718e-05
5.52247e-07
1.55772e-05
5.6398e-07
1.54333e-05
5.7612e-07
1.52863e-05
5.88675e-07
1.51361e-05
6.01652e-07
1.49825e-05
6.15057e-07
1.48254e-05
6.28895e-07
1.46648e-05
6.43174e-07
1.45005e-05
6.57898e-07
1.43324e-05
6.73071e-07
1.41604e-05
6.88698e-07
1.39843e-05
7.04781e-07
1.38041e-05
7.21323e-07
1.36197e-05
7.38325e-07
1.34309e-05
7.55787e-07
1.32376e-05
7.73708e-07
1.30397e-05
7.92084e-07
1.28371e-05
8.10912e-07
1.26296e-05
8.30185e-07
1.24172e-05
8.49895e-07
1.21998e-05
8.70033e-07
1.19772e-05
8.90586e-07
1.17493e-05
9.11539e-07
1.15161e-05
9.32875e-07
1.12774e-05
9.54574e-07
1.10332e-05
9.76613e-07
1.07834e-05
9.98966e-07
1.05278e-05
1.0216e-06
1.02665e-05
1.04449e-06
9.9994e-06
1.0676e-06
9.72642e-06
1.09087e-06
9.44753e-06
1.11428e-06
9.16272e-06
1.13777e-06
8.87197e-06
1.1613e-06
8.57529e-06
1.1848e-06
8.27269e-06
1.20822e-06
7.9642e-06
1.23149e-06
7.64988e-06
1.25455e-06
7.3298e-06
1.27732e-06
7.00404e-06
1.29974e-06
6.67271e-06
1.32173e-06
6.33592e-06
1.34321e-06
5.99384e-06
1.3641e-06
5.64663e-06
1.38432e-06
5.29447e-06
1.40379e-06
4.93758e-06
1.42242e-06
4.57618e-06
1.44014e-06
4.21053e-06
1.45686e-06
3.8409e-06
1.4725e-06
3.46757e-06
1.487e-06
3.09087e-06
1.50027e-06
2.71112e-06
1.51225e-06
2.32865e-06
1.52287e-06
1.94384e-06
1.53209e-06
1.55704e-06
1.53985e-06
1.16865e-06
1.54611e-06
7.79054e-07
1.55083e-06
3.88655e-07
1.55398e-06
1.54707e-06
1.99256e-05
4.03591e-07
1.98415e-05
4.47546e-07
1.97577e-05
4.37616e-07
1.96731e-05
4.36003e-07
1.95877e-05
4.35459e-07
1.95019e-05
4.35413e-07
1.94156e-05
4.35898e-07
1.93289e-05
4.36882e-07
1.92418e-05
4.38324e-07
1.91542e-05
4.40187e-07
1.90661e-05
4.42441e-07
1.89774e-05
4.45065e-07
1.88882e-05
4.48043e-07
1.87982e-05
4.51361e-07
1.87075e-05
4.55015e-07
1.8616e-05
4.58998e-07
1.85236e-05
4.63309e-07
1.84304e-05
4.67947e-07
1.83361e-05
4.72913e-07
1.82407e-05
4.78209e-07
1.81443e-05
4.83838e-07
1.80466e-05
4.89804e-07
1.79477e-05
4.9611e-07
1.78474e-05
5.02763e-07
1.77458e-05
5.09768e-07
1.76427e-05
5.17131e-07
1.75381e-05
5.24857e-07
1.74318e-05
5.32954e-07
1.73239e-05
5.41429e-07
1.72142e-05
5.5029e-07
1.71026e-05
5.59544e-07
1.69891e-05
5.69199e-07
1.68737e-05
5.79264e-07
1.67561e-05
5.89747e-07
1.66364e-05
6.00657e-07
1.65144e-05
6.12003e-07
1.639e-05
6.23793e-07
1.62632e-05
6.36038e-07
1.61339e-05
6.48747e-07
1.60019e-05
6.61929e-07
1.58673e-05
6.75593e-07
1.57298e-05
6.89748e-07
1.55893e-05
7.04405e-07
1.54459e-05
7.19571e-07
1.52993e-05
7.35257e-07
1.51495e-05
7.5147e-07
1.49963e-05
7.68219e-07
1.48397e-05
7.85512e-07
1.46795e-05
8.03355e-07
1.45157e-05
8.21756e-07
1.4348e-05
8.40721e-07
1.41765e-05
8.60254e-07
1.40009e-05
8.8036e-07
1.38212e-05
9.01042e-07
1.36372e-05
9.223e-07
1.34488e-05
9.44136e-07
1.3256e-05
9.66548e-07
1.30585e-05
9.89533e-07
1.28564e-05
1.01309e-06
1.26494e-05
1.0372e-06
1.24374e-05
1.06186e-06
1.22204e-05
1.08707e-06
1.19981e-05
1.11279e-06
1.17707e-05
1.13902e-06
1.15378e-05
1.16574e-06
1.12995e-05
1.19291e-06
1.10556e-05
1.22052e-06
1.0806e-05
1.24852e-06
1.05507e-05
1.27689e-06
1.02896e-05
1.30558e-06
1.00227e-05
1.33454e-06
9.74983e-06
1.36373e-06
9.47103e-06
1.39309e-06
9.18625e-06
1.42256e-06
8.89548e-06
1.45207e-06
8.59871e-06
1.48157e-06
8.29596e-06
1.51096e-06
7.98726e-06
1.54018e-06
7.67266e-06
1.56915e-06
7.35222e-06
1.59776e-06
7.02603e-06
1.62593e-06
6.69419e-06
1.65357e-06
6.35682e-06
1.68058e-06
6.01407e-06
1.70685e-06
5.6661e-06
1.73229e-06
5.31311e-06
1.75678e-06
4.9553e-06
1.78023e-06
4.5929e-06
1.80254e-06
4.22617e-06
1.82359e-06
3.85539e-06
1.84329e-06
3.48084e-06
1.86154e-06
3.10285e-06
1.87826e-06
2.72174e-06
1.89335e-06
2.33787e-06
1.90675e-06
1.9516e-06
1.91836e-06
1.5633e-06
1.92814e-06
1.17338e-06
1.93603e-06
7.82218e-07
1.94198e-06
3.90242e-07
1.94596e-06
1.93731e-06
1.99247e-05
4.78906e-07
1.98403e-05
5.31979e-07
1.97567e-05
5.21196e-07
1.96725e-05
5.20184e-07
1.95877e-05
5.20257e-07
1.95024e-05
5.20733e-07
1.94166e-05
5.21686e-07
1.93303e-05
5.23122e-07
1.92436e-05
5.25026e-07
1.91565e-05
5.27379e-07
1.90687e-05
5.30165e-07
1.89804e-05
5.33368e-07
1.88915e-05
5.36977e-07
1.88019e-05
5.40983e-07
1.87115e-05
5.45382e-07
1.86203e-05
5.50171e-07
1.85283e-05
5.55348e-07
1.84353e-05
5.60914e-07
1.83414e-05
5.6687e-07
1.82464e-05
5.73221e-07
1.81502e-05
5.79969e-07
1.80529e-05
5.8712e-07
1.79543e-05
5.94679e-07
1.78544e-05
6.02652e-07
1.77532e-05
6.11046e-07
1.76504e-05
6.19869e-07
1.75462e-05
6.29127e-07
1.74403e-05
6.3883e-07
1.73327e-05
6.48986e-07
1.72234e-05
6.59604e-07
1.71123e-05
6.70693e-07
1.69992e-05
6.82263e-07
1.68841e-05
6.94324e-07
1.6767e-05
7.06887e-07
1.66477e-05
7.19961e-07
1.65261e-05
7.33559e-07
1.64022e-05
7.4769e-07
1.62759e-05
7.62366e-07
1.61471e-05
7.77599e-07
1.60156e-05
7.93399e-07
1.58814e-05
8.09779e-07
1.57444e-05
8.26748e-07
1.56045e-05
8.44319e-07
1.54616e-05
8.62503e-07
1.53155e-05
8.81311e-07
1.51662e-05
9.00752e-07
1.50136e-05
9.20838e-07
1.48575e-05
9.41577e-07
1.46979e-05
9.62979e-07
1.45346e-05
9.85052e-07
1.43675e-05
1.0078e-06
1.41966e-05
1.03124e-06
1.40216e-05
1.05536e-06
1.38424e-05
1.08018e-06
1.3659e-05
1.1057e-06
1.34712e-05
1.13191e-06
1.3279e-05
1.15882e-06
1.30821e-05
1.18641e-06
1.28805e-05
1.2147e-06
1.2674e-05
1.24366e-06
1.24626e-05
1.27329e-06
1.22461e-05
1.30357e-06
1.20244e-05
1.33449e-06
1.17974e-05
1.36602e-06
1.1565e-05
1.39814e-06
1.13271e-05
1.43082e-06
1.10836e-05
1.46403e-06
1.08344e-05
1.49772e-06
1.05794e-05
1.53185e-06
1.03186e-05
1.56638e-06
1.00519e-05
1.60126e-06
9.77919e-06
1.63641e-06
9.5005e-06
1.67178e-06
9.21577e-06
1.70729e-06
8.92497e-06
1.74287e-06
8.62811e-06
1.77843e-06
8.32518e-06
1.81389e-06
8.01623e-06
1.84914e-06
7.70128e-06
1.88409e-06
7.3804e-06
1.91864e-06
7.05367e-06
1.95266e-06
6.72119e-06
1.98605e-06
6.38309e-06
2.01869e-06
6.0395e-06
2.05044e-06
5.69059e-06
2.0812e-06
5.33656e-06
2.11082e-06
4.9776e-06
2.13919e-06
4.61395e-06
2.16618e-06
4.24588e-06
2.19166e-06
3.87365e-06
2.21552e-06
3.49756e-06
2.23763e-06
3.11795e-06
2.25788e-06
2.73514e-06
2.27616e-06
2.34949e-06
2.29239e-06
1.96138e-06
2.30647e-06
1.57119e-06
2.31833e-06
1.17933e-06
2.32789e-06
7.86204e-07
2.33511e-06
3.92237e-07
2.33992e-06
2.32955e-06
1.99243e-05
5.54582e-07
1.98398e-05
6.1653e-07
1.97564e-05
6.04614e-07
1.96725e-05
6.04016e-07
1.95882e-05
6.0461e-07
1.95033e-05
6.05572e-07
1.9418e-05
6.06993e-07
1.93323e-05
6.08894e-07
1.9246e-05
6.11278e-07
1.91592e-05
6.14139e-07
1.90719e-05
6.17471e-07
1.8984e-05
6.21264e-07
1.88955e-05
6.25513e-07
1.88063e-05
6.30213e-07
1.87163e-05
6.3536e-07
1.86255e-05
6.40955e-07
1.85339e-05
6.46998e-07
1.84413e-05
6.5349e-07
1.83477e-05
6.60434e-07
1.82531e-05
6.67835e-07
1.81574e-05
6.75698e-07
1.80605e-05
6.84028e-07
1.79623e-05
6.92833e-07
1.78628e-05
7.02119e-07
1.7762e-05
7.11896e-07
1.76597e-05
7.22171e-07
1.75559e-05
7.32953e-07
1.74504e-05
7.44253e-07
1.73434e-05
7.5608e-07
1.72345e-05
7.68446e-07
1.71238e-05
7.8136e-07
1.70113e-05
7.94835e-07
1.68967e-05
8.08882e-07
1.67801e-05
8.23514e-07
1.66613e-05
8.38743e-07
1.65403e-05
8.54581e-07
1.64169e-05
8.71042e-07
1.62912e-05
8.88138e-07
1.61629e-05
9.05883e-07
1.6032e-05
9.24291e-07
1.58984e-05
9.43374e-07
1.5762e-05
9.63147e-07
1.56227e-05
9.83622e-07
1.54804e-05
1.00481e-06
1.5335e-05
1.02673e-06
1.51863e-05
1.04939e-06
1.50344e-05
1.0728e-06
1.4879e-05
1.09698e-06
1.472e-05
1.12193e-06
1.45574e-05
1.14767e-06
1.4391e-05
1.1742e-06
1.42207e-05
1.20153e-06
1.40464e-05
1.22967e-06
1.38679e-05
1.25863e-06
1.36852e-05
1.2884e-06
1.34982e-05
1.31899e-06
1.33066e-05
1.35039e-06
1.31104e-05
1.38261e-06
1.29094e-05
1.41564e-06
1.27037e-05
1.44946e-06
1.24929e-05
1.48407e-06
1.2277e-05
1.51945e-06
1.20559e-05
1.55558e-06
1.18295e-05
1.59243e-06
1.15977e-05
1.62999e-06
1.13603e-05
1.6682e-06
1.11173e-05
1.70705e-06
1.08685e-05
1.74647e-06
1.06139e-05
1.78642e-06
1.03535e-05
1.82685e-06
1.0087e-05
1.86769e-06
9.81456e-06
1.90887e-06
9.53602e-06
1.95032e-06
9.25135e-06
1.99196e-06
8.96054e-06
2.03368e-06
8.66356e-06
2.0754e-06
8.36044e-06
2.11701e-06
8.05118e-06
2.1584e-06
7.73582e-06
2.19945e-06
7.41442e-06
2.24004e-06
7.08706e-06
2.28003e-06
6.75383e-06
2.31928e-06
6.41485e-06
2.35767e-06
6.07026e-06
2.39503e-06
5.72022e-06
2.43123e-06
5.36493e-06
2.46612e-06
5.00459e-06
2.49953e-06
4.63943e-06
2.53133e-06
4.26973e-06
2.56137e-06
3.89575e-06
2.58949e-06
3.51781e-06
2.61557e-06
3.13623e-06
2.63946e-06
2.75136e-06
2.66103e-06
2.36357e-06
2.68019e-06
1.97323e-06
2.69681e-06
1.58076e-06
2.71081e-06
1.18655e-06
2.7221e-06
7.91037e-07
2.73062e-06
3.94654e-07
2.73631e-06
2.7242e-06
1.99243e-05
6.30326e-07
1.98398e-05
7.01019e-07
1.97566e-05
6.87818e-07
1.96731e-05
6.87512e-07
1.95891e-05
6.88544e-07
1.95048e-05
6.89949e-07
1.94199e-05
6.91819e-07
1.93346e-05
6.94184e-07
1.92489e-05
6.97053e-07
1.91626e-05
7.0043e-07
1.90757e-05
7.04314e-07
1.89883e-05
7.08704e-07
1.89002e-05
7.13598e-07
1.88114e-05
7.18994e-07
1.87219e-05
7.24891e-07
1.86316e-05
7.31292e-07
1.85404e-05
7.38199e-07
1.84482e-05
7.45613e-07
1.83551e-05
7.53541e-07
1.8261e-05
7.61988e-07
1.81657e-05
7.70959e-07
1.80693e-05
7.80462e-07
1.79716e-05
7.90505e-07
1.78726e-05
8.01097e-07
1.77723e-05
8.12247e-07
1.76705e-05
8.23965e-07
1.75672e-05
8.36262e-07
1.74623e-05
8.49149e-07
1.73557e-05
8.62637e-07
1.72474e-05
8.76739e-07
1.71373e-05
8.91467e-07
1.70253e-05
9.06835e-07
1.69113e-05
9.22856e-07
1.67953e-05
9.39545e-07
1.66771e-05
9.56915e-07
1.65567e-05
9.74981e-07
1.6434e-05
9.93758e-07
1.63089e-05
1.01326e-06
1.61813e-05
1.03351e-06
1.60511e-05
1.05451e-06
1.59182e-05
1.07628e-06
1.57825e-05
1.09884e-06
1.56439e-05
1.12221e-06
1.55023e-05
1.14639e-06
1.53576e-05
1.17141e-06
1.52097e-05
1.19728e-06
1.50585e-05
1.224e-06
1.49039e-05
1.25161e-06
1.47457e-05
1.2801e-06
1.45839e-05
1.30949e-06
1.44183e-05
1.3398e-06
1.42488e-05
1.37102e-06
1.40753e-05
1.40317e-06
1.38977e-05
1.43626e-06
1.37158e-05
1.47028e-06
1.35296e-05
1.50525e-06
1.33388e-05
1.54115e-06
1.31434e-05
1.578e-06
1.29433e-05
1.61577e-06
1.27383e-05
1.65447e-06
1.25283e-05
1.69408e-06
1.23131e-05
1.73457e-06
1.20928e-05
1.77594e-06
1.18671e-05
1.81815e-06
1.16359e-05
1.86117e-06
1.13991e-05
1.90496e-06
1.11567e-05
1.94948e-06
1.09085e-05
1.99469e-06
1.06544e-05
2.04052e-06
1.03943e-05
2.08691e-06
1.01282e-05
2.13379e-06
9.85602e-06
2.18108e-06
9.57765e-06
2.22869e-06
9.29308e-06
2.27653e-06
9.00226e-06
2.3245e-06
8.70518e-06
2.37248e-06
8.40183e-06
2.42036e-06
8.09223e-06
2.468e-06
7.77641e-06
2.51527e-06
7.45441e-06
2.56203e-06
7.12632e-06
2.60812e-06
6.79221e-06
2.65339e-06
6.45222e-06
2.69767e-06
6.10646e-06
2.74079e-06
5.75511e-06
2.78259e-06
5.39834e-06
2.82288e-06
5.03639e-06
2.86149e-06
4.66947e-06
2.89825e-06
4.29785e-06
2.93298e-06
3.92183e-06
2.96552e-06
3.5417e-06
2.99569e-06
3.15782e-06
3.02334e-06
2.77052e-06
3.04833e-06
2.38019e-06
3.07051e-06
1.98723e-06
3.08977e-06
1.59205e-06
3.10599e-06
1.19507e-06
3.11907e-06
7.96743e-07
3.12895e-06
3.97507e-07
3.13554e-06
3.12171e-06
1.99244e-05
7.05953e-07
1.98401e-05
7.85304e-07
1.97572e-05
7.70736e-07
1.9674e-05
7.70641e-07
1.95905e-05
7.72049e-07
1.95066e-05
7.73855e-07
1.94223e-05
7.76152e-07
1.93375e-05
7.78969e-07
1.92522e-05
7.8232e-07
1.91665e-05
7.86213e-07
1.90801e-05
7.90653e-07
1.89932e-05
7.95641e-07
1.89056e-05
8.01181e-07
1.88173e-05
8.07273e-07
1.87283e-05
8.13919e-07
1.86385e-05
8.21124e-07
1.85478e-05
8.28891e-07
1.84562e-05
8.37224e-07
1.83636e-05
8.4613e-07
1.82699e-05
8.55615e-07
1.81752e-05
8.65688e-07
1.80793e-05
8.76356e-07
1.79822e-05
8.87629e-07
1.78838e-05
8.99517e-07
1.7784e-05
9.1203e-07
1.76828e-05
9.25181e-07
1.75801e-05
9.38981e-07
1.74758e-05
9.53442e-07
1.73698e-05
9.68579e-07
1.72622e-05
9.84405e-07
1.71527e-05
1.00093e-06
1.70413e-05
1.01818e-06
1.6928e-05
1.03616e-06
1.68127e-05
1.05489e-06
1.66952e-05
1.07439e-06
1.65755e-05
1.09467e-06
1.64535e-05
1.11575e-06
1.63292e-05
1.13764e-06
1.62023e-05
1.16037e-06
1.60728e-05
1.18395e-06
1.59407e-05
1.2084e-06
1.58058e-05
1.23374e-06
1.56681e-05
1.25998e-06
1.55273e-05
1.28714e-06
1.53835e-05
1.31524e-06
1.52365e-05
1.3443e-06
1.50861e-05
1.37433e-06
1.49324e-05
1.40535e-06
1.47751e-05
1.43737e-06
1.46142e-05
1.4704e-06
1.44495e-05
1.50447e-06
1.4281e-05
1.53958e-06
1.41084e-05
1.57573e-06
1.39317e-05
1.61295e-06
1.37508e-05
1.65122e-06
1.35655e-05
1.69057e-06
1.33756e-05
1.73098e-06
1.31812e-05
1.77246e-06
1.2982e-05
1.81499e-06
1.27779e-05
1.85857e-06
1.25688e-05
1.90319e-06
1.23545e-05
1.94883e-06
1.2135e-05
1.99546e-06
1.19101e-05
2.04305e-06
1.16797e-05
2.09157e-06
1.14436e-05
2.14099e-06
1.12019e-05
2.19124e-06
1.09543e-05
2.24229e-06
1.07008e-05
2.29405e-06
1.04412e-05
2.34647e-06
1.01755e-05
2.39947e-06
9.90363e-06
2.45295e-06
9.6255e-06
2.50682e-06
9.34105e-06
2.56098e-06
9.05024e-06
2.6153e-06
8.75305e-06
2.66967e-06
8.44947e-06
2.72394e-06
8.1395e-06
2.77797e-06
7.82317e-06
2.83161e-06
7.50051e-06
2.88469e-06
7.17159e-06
2.93704e-06
6.83649e-06
2.98848e-06
6.49534e-06
3.03882e-06
6.14825e-06
3.08788e-06
5.7954e-06
3.13544e-06
5.43696e-06
3.18132e-06
5.07315e-06
3.2253e-06
4.7042e-06
3.2672e-06
4.33039e-06
3.3068e-06
3.952e-06
3.34391e-06
3.56936e-06
3.37833e-06
3.1828e-06
3.4099e-06
2.7927e-06
3.43843e-06
2.39945e-06
3.46377e-06
2.00345e-06
3.48577e-06
1.60514e-06
3.5043e-06
1.20495e-06
3.51926e-06
8.03357e-07
3.53055e-06
4.00815e-07
3.53808e-06
3.52252e-06
1.99246e-05
7.81332e-07
1.98407e-05
8.69271e-07
1.97581e-05
8.53291e-07
1.96754e-05
8.53354e-07
1.95923e-05
8.55093e-07
1.95089e-05
8.57266e-07
1.94251e-05
8.59966e-07
1.93409e-05
8.63221e-07
1.92561e-05
8.67045e-07
1.91709e-05
8.71449e-07
1.90851e-05
8.76442e-07
1.89987e-05
8.82027e-07
1.89117e-05
8.88211e-07
1.8824e-05
8.94997e-07
1.87355e-05
9.02389e-07
1.86462e-05
9.10394e-07
1.85561e-05
9.19016e-07
1.84651e-05
9.28262e-07
1.83731e-05
9.38139e-07
1.828e-05
9.48656e-07
1.81859e-05
9.59821e-07
1.80906e-05
9.71645e-07
1.79941e-05
9.84137e-07
1.78963e-05
9.9731e-07
1.77972e-05
1.01118e-06
1.76966e-05
1.02575e-06
1.75945e-05
1.04104e-06
1.74909e-05
1.05706e-06
1.73857e-05
1.07383e-06
1.72787e-05
1.09137e-06
1.71699e-05
1.10968e-06
1.70593e-05
1.1288e-06
1.69468e-05
1.14872e-06
1.68322e-05
1.16948e-06
1.67155e-05
1.19108e-06
1.65966e-05
1.21356e-06
1.64754e-05
1.23692e-06
1.63519e-05
1.26119e-06
1.62259e-05
1.28638e-06
1.60973e-05
1.31252e-06
1.59661e-05
1.33963e-06
1.58321e-05
1.36772e-06
1.56952e-05
1.39682e-06
1.55554e-05
1.42695e-06
1.54126e-05
1.45812e-06
1.52665e-05
1.49035e-06
1.51172e-05
1.52367e-06
1.49644e-05
1.55808e-06
1.48082e-05
1.59362e-06
1.46483e-05
1.63029e-06
1.44847e-05
1.6681e-06
1.43172e-05
1.70708e-06
1.41456e-05
1.74724e-06
1.397e-05
1.78857e-06
1.37901e-05
1.8311e-06
1.36059e-05
1.87482e-06
1.34171e-05
1.91974e-06
1.32237e-05
1.96585e-06
1.30256e-05
2.01316e-06
1.28225e-05
2.06164e-06
1.26144e-05
2.11129e-06
1.24011e-05
2.16209e-06
1.21826e-05
2.21401e-06
1.19586e-05
2.26702e-06
1.17291e-05
2.32109e-06
1.14939e-05
2.37617e-06
1.12529e-05
2.43222e-06
1.10061e-05
2.48916e-06
1.07532e-05
2.54693e-06
1.04942e-05
2.60546e-06
1.0229e-05
2.66467e-06
9.95751e-06
2.72444e-06
9.67965e-06
2.78468e-06
9.39537e-06
2.84526e-06
9.10461e-06
2.90607e-06
8.80733e-06
2.96695e-06
8.50351e-06
3.02776e-06
8.19314e-06
3.08834e-06
7.87625e-06
3.1485e-06
7.55286e-06
3.20808e-06
7.22303e-06
3.26687e-06
6.88684e-06
3.32467e-06
6.54439e-06
3.38127e-06
6.19582e-06
3.43645e-06
5.84128e-06
3.48998e-06
5.48095e-06
3.54165e-06
5.11504e-06
3.59121e-06
4.7438e-06
3.63844e-06
4.3675e-06
3.6831e-06
3.98643e-06
3.72497e-06
3.60092e-06
3.76384e-06
3.21134e-06
3.79949e-06
2.81804e-06
3.83172e-06
2.42145e-06
3.86036e-06
2.02199e-06
3.88523e-06
1.6201e-06
3.90619e-06
1.21625e-06
3.92311e-06
8.10918e-07
3.93588e-06
4.04597e-07
3.9444e-06
3.92712e-06
1.9925e-05
8.56364e-07
1.98414e-05
9.52826e-07
1.97593e-05
9.3541e-07
1.96771e-05
9.35597e-07
1.95945e-05
9.37632e-07
1.95116e-05
9.40144e-07
1.94284e-05
9.43226e-07
1.93447e-05
9.46903e-07
1.92605e-05
9.5119e-07
1.91759e-05
9.56098e-07
1.90907e-05
9.61638e-07
1.90049e-05
9.67816e-07
1.89185e-05
9.74639e-07
1.88314e-05
9.82114e-07
1.87435e-05
9.90248e-07
1.86549e-05
9.99046e-07
1.85654e-05
1.00852e-06
1.8475e-05
1.01867e-06
1.83836e-05
1.02951e-06
1.82912e-05
1.04105e-06
1.81977e-05
1.0533e-06
1.81031e-05
1.06626e-06
1.80073e-05
1.07997e-06
1.79102e-05
1.09441e-06
1.78117e-05
1.10962e-06
1.77119e-05
1.12559e-06
1.76106e-05
1.14236e-06
1.75077e-05
1.15993e-06
1.74032e-05
1.17832e-06
1.7297e-05
1.19755e-06
1.71891e-05
1.21764e-06
1.70793e-05
1.23859e-06
1.69675e-05
1.26045e-06
1.68538e-05
1.28321e-06
1.6738e-05
1.30691e-06
1.662e-05
1.33156e-06
1.64997e-05
1.35719e-06
1.63771e-05
1.38381e-06
1.6252e-05
1.41145e-06
1.61244e-05
1.44013e-06
1.59942e-05
1.46988e-06
1.58612e-05
1.50071e-06
1.57254e-05
1.53264e-06
1.55866e-05
1.56571e-06
1.54448e-05
1.59993e-06
1.52998e-05
1.63532e-06
1.51516e-05
1.6719e-06
1.5e-05
1.7097e-06
1.48449e-05
1.74873e-06
1.46861e-05
1.78902e-06
1.45236e-05
1.83058e-06
1.43573e-05
1.87342e-06
1.4187e-05
1.91756e-06
1.40126e-05
1.96301e-06
1.38339e-05
2.00978e-06
1.36508e-05
2.05788e-06
1.34632e-05
2.10731e-06
1.3271e-05
2.15806e-06
1.30741e-05
2.21015e-06
1.28721e-05
2.26354e-06
1.26652e-05
2.31824e-06
1.24531e-05
2.37423e-06
1.22356e-05
2.43147e-06
1.20127e-05
2.48994e-06
1.17842e-05
2.5496e-06
1.155e-05
2.6104e-06
1.13099e-05
2.67229e-06
1.10638e-05
2.7352e-06
1.08117e-05
2.79906e-06
1.05534e-05
2.86379e-06
1.02888e-05
2.92929e-06
1.00177e-05
2.99546e-06
9.74024e-06
3.06218e-06
9.45618e-06
3.12933e-06
9.16549e-06
3.19675e-06
8.86814e-06
3.26431e-06
8.56408e-06
3.33182e-06
8.25331e-06
3.39911e-06
7.93582e-06
3.46599e-06
7.61165e-06
3.53226e-06
7.28083e-06
3.59769e-06
6.94344e-06
3.66206e-06
6.59957e-06
3.72513e-06
6.24936e-06
3.78666e-06
5.89294e-06
3.8464e-06
5.53051e-06
3.90408e-06
5.16227e-06
3.95945e-06
4.78846e-06
4.01224e-06
4.40937e-06
4.06219e-06
4.0253e-06
4.10905e-06
3.63657e-06
4.15256e-06
3.24357e-06
4.19249e-06
2.84668e-06
4.22862e-06
2.44632e-06
4.26072e-06
2.04295e-06
4.28861e-06
1.63702e-06
4.31212e-06
1.22903e-06
4.3311e-06
8.19473e-07
4.34544e-06
4.08877e-07
4.355e-06
4.336e-06
1.99254e-05
9.30967e-07
1.98423e-05
1.03589e-06
1.97607e-05
1.01702e-06
1.9679e-05
1.01731e-06
1.9597e-05
1.01962e-06
1.95147e-05
1.02245e-06
1.94321e-05
1.02589e-06
1.9349e-05
1.02997e-06
1.92655e-05
1.03471e-06
1.91814e-05
1.04012e-06
1.90969e-05
1.04619e-06
1.90117e-05
1.05296e-06
1.8926e-05
1.06042e-06
1.88395e-05
1.06857e-06
1.87523e-05
1.07744e-06
1.86643e-05
1.08703e-06
1.85755e-05
1.09734e-06
1.84858e-05
1.10839e-06
1.83951e-05
1.12018e-06
1.83034e-05
1.13273e-06
1.82107e-05
1.14605e-06
1.81168e-05
1.16015e-06
1.80217e-05
1.17505e-06
1.79254e-05
1.19075e-06
1.78277e-05
1.20728e-06
1.77286e-05
1.22465e-06
1.76281e-05
1.24288e-06
1.75261e-05
1.26198e-06
1.74224e-05
1.28197e-06
1.73171e-05
1.30288e-06
1.721e-05
1.32471e-06
1.71011e-05
1.3475e-06
1.69903e-05
1.37126e-06
1.68775e-05
1.39601e-06
1.67626e-05
1.42178e-06
1.66456e-05
1.44859e-06
1.65263e-05
1.47646e-06
1.64047e-05
1.50541e-06
1.62807e-05
1.53548e-06
1.61542e-05
1.56668e-06
1.6025e-05
1.59904e-06
1.58931e-05
1.63258e-06
1.57584e-05
1.66733e-06
1.56208e-05
1.70332e-06
1.54802e-05
1.74056e-06
1.53364e-05
1.77909e-06
1.51894e-05
1.81892e-06
1.5039e-05
1.86008e-06
1.48851e-05
1.9026e-06
1.47277e-05
1.94649e-06
1.45665e-05
1.99176e-06
1.44015e-05
2.03845e-06
1.42324e-05
2.08657e-06
1.40593e-05
2.13613e-06
1.3882e-05
2.18714e-06
1.37002e-05
2.23961e-06
1.3514e-05
2.29354e-06
1.33231e-05
2.34895e-06
1.31275e-05
2.40582e-06
1.29269e-05
2.46414e-06
1.27212e-05
2.52391e-06
1.25103e-05
2.58511e-06
1.22941e-05
2.6477e-06
1.20723e-05
2.71167e-06
1.1845e-05
2.77696e-06
1.16118e-05
2.84354e-06
1.13728e-05
2.91133e-06
1.11277e-05
2.98029e-06
1.08764e-05
3.05032e-06
1.06189e-05
3.12134e-06
1.03549e-05
3.19325e-06
1.00845e-05
3.26593e-06
9.80739e-06
3.33927e-06
9.52361e-06
3.41311e-06
9.23305e-06
3.48731e-06
8.93565e-06
3.5617e-06
8.63138e-06
3.63609e-06
8.32019e-06
3.7103e-06
8.00209e-06
3.7841e-06
7.67708e-06
3.85727e-06
7.3452e-06
3.92957e-06
7.00651e-06
4.00075e-06
6.6611e-06
4.07054e-06
6.30909e-06
4.13868e-06
5.95062e-06
4.20487e-06
5.58587e-06
4.26883e-06
5.21506e-06
4.33027e-06
4.83842e-06
4.38888e-06
4.45623e-06
4.44438e-06
4.06881e-06
4.49647e-06
3.67651e-06
4.54487e-06
3.27969e-06
4.58931e-06
2.87878e-06
4.62953e-06
2.47421e-06
4.66528e-06
2.06646e-06
4.69636e-06
1.656e-06
4.72257e-06
1.24337e-06
4.74374e-06
8.29075e-07
4.75973e-06
4.1368e-07
4.7704e-06
4.74968e-06
1.99259e-05
1.00507e-06
1.98434e-05
1.11838e-06
1.97624e-05
1.09807e-06
1.96812e-05
1.09844e-06
1.95998e-05
1.101e-06
1.95182e-05
1.10412e-06
1.94361e-05
1.10792e-06
1.93537e-05
1.11239e-06
1.92709e-05
1.11757e-06
1.91875e-05
1.12346e-06
1.91037e-05
1.13007e-06
1.90192e-05
1.13741e-06
1.89341e-05
1.14549e-06
1.88484e-05
1.15432e-06
1.87619e-05
1.16392e-06
1.86746e-05
1.17428e-06
1.85866e-05
1.18542e-06
1.84976e-05
1.19736e-06
1.84077e-05
1.21009e-06
1.83168e-05
1.22364e-06
1.82248e-05
1.23802e-06
1.81317e-05
1.25324e-06
1.80374e-05
1.26932e-06
1.79419e-05
1.28627e-06
1.78451e-05
1.30411e-06
1.77469e-05
1.32286e-06
1.76472e-05
1.34253e-06
1.75461e-05
1.36314e-06
1.74433e-05
1.38472e-06
1.73389e-05
1.40728e-06
1.72328e-05
1.43084e-06