# vtk DataFile Version 2.0
sampleSurface
ASCII
DATASET POLYDATA
POINTS 652 double
0 0 0
0.02 0 0
0.02 0 0.1
0 0 0.1
0.04 0 0
0.04 0 0.1
0.06 0 0
0.06 0 0.1
0.08 0 0
0.08 0 0.1
0.1 0 0
0.1 0 0.1
0.12 0 0
0.12 0 0.1
0.14 0 0
0.14 0 0.1
0.16 0 0
0.16 0 0.1
0.18 0 0
0.18 0 0.1
0.2 0 0
0.2 0 0.1
0.22 0 0
0.22 0 0.1
0.24 0 0
0.24 0 0.1
0.26 0 0
0.26 0 0.1
0.28 0 0
0.28 0 0.1
0.3 0 0
0.3 0 0.1
0.32 0 0
0.32 0 0.1
0.34 0 0
0.34 0 0.1
0.36 0 0
0.36 0 0.1
0.38 0 0
0.38 0 0.1
0.4 0 0
0.4 0 0.1
0.42 0 0
0.42 0 0.1
0.44 0 0
0.44 0 0.1
0.46 0 0
0.46 0 0.1
0.48 0 0
0.48 0 0.1
0.5 0 0
0.5 0 0.1
0.52 0 0
0.52 0 0.1
0.54 0 0
0.54 0 0.1
0.56 0 0
0.56 0 0.1
0.58 0 0
0.58 0 0.1
0.6 0 0
0.6 0 0.1
0.62 0 0
0.62 0 0.1
0.64 0 0
0.64 0 0.1
0.66 0 0
0.66 0 0.1
0.68 0 0
0.68 0 0.1
0.7 0 0
0.7 0 0.1
0.72 0 0
0.72 0 0.1
0.74 0 0
0.74 0 0.1
0.76 0 0
0.76 0 0.1
0.78 0 0
0.78 0 0.1
0.8 0 0
0.8 0 0.1
0.82 0 0
0.82 0 0.1
0.84 0 0
0.84 0 0.1
0.86 0 0
0.86 0 0.1
0.88 0 0
0.88 0 0.1
0.9 0 0
0.9 0 0.1
0.92 0 0
0.92 0 0.1
0.94 0 0
0.94 0 0.1
0.96 0 0
0.96 0 0.1
0.98 0 0
0.98 0 0.1
1 0 0
1 0 0.1
1.02 0 0
1.02 0 0.1
1.04 0 0
1.04 0 0.1
1.06 0 0
1.06 0 0.1
1.08 0 0
1.08 0 0.1
1.1 0 0
1.1 0 0.1
1.12 0 0
1.12 0 0.1
1.14 0 0
1.14 0 0.1
1.16 0 0
1.16 0 0.1
1.18 0 0
1.18 0 0.1
1.2 0 0
1.2 0 0.1
1.22 0 0
1.22 0 0.1
1.24 0 0
1.24 0 0.1
1.26 0 0
1.26 0 0.1
1.28 0 0
1.28 0 0.1
1.3 0 0
1.3 0 0.1
1.32 0 0
1.32 0 0.1
1.34 0 0
1.34 0 0.1
1.36 0 0
1.36 0 0.1
1.38 0 0
1.38 0 0.1
1.4 0 0
1.4 0 0.1
1.42 0 0
1.42 0 0.1
1.44 0 0
1.44 0 0.1
1.46 0 0
1.46 0 0.1
1.48 0 0
1.48 0 0.1
1.5 0 0
1.5 0 0.1
1.52 0 0
1.52 0 0.1
1.54 0 0
1.54 0 0.1
1.56 0 0
1.56 0 0.1
1.58 0 0
1.58 0 0.1
1.6 0 0
1.6 0 0.1
1.62 0 0
1.62 0 0.1
1.64 0 0
1.64 0 0.1
1.66 0 0
1.66 0 0.1
1.68 0 0
1.68 0 0.1
1.7 0 0
1.7 0 0.1
1.72 0 0
1.72 0 0.1
1.74 0 0
1.74 0 0.1
1.76 0 0
1.76 0 0.1
1.78 0 0
1.78 0 0.1
1.8 0 0
1.8 0 0.1
1.82 0 0
1.82 0 0.1
1.84 0 0
1.84 0 0.1
1.86 0 0
1.86 0 0.1
1.88 0 0
1.88 0 0.1
1.9 0 0
1.9 0 0.1
1.92 0 0
1.92 0 0.1
1.94 0 0
1.94 0 0.1
1.96 0 0
1.96 0 0.1
1.98 0 0
1.98 0 0.1
2 0 0
2 0 0.1
2 0.02 0
2 0.02 0.1
2 0.04 0
2 0.04 0.1
2 0.06 0
2 0.06 0.1
2 0.08 0
2 0.08 0.1
2 0.1 0
2 0.1 0.1
2 0.12 0
2 0.12 0.1
2 0.14 0
2 0.14 0.1
2 0.16 0
2 0.16 0.1
2 0.18 0
2 0.18 0.1
2 0.2 0
2 0.2 0.1
2 0.22 0
2 0.22 0.1
2 0.24 0
2 0.24 0.1
2 0.26 0
2 0.26 0.1
2 0.28 0
2 0.28 0.1
2 0.3 0
2 0.3 0.1
2 0.32 0
2 0.32 0.1
2 0.34 0
2 0.34 0.1
2 0.36 0
2 0.36 0.1
2 0.38 0
2 0.38 0.1
2 0.4 0
2 0.4 0.1
2 0.42 0
2 0.42 0.1
2 0.44 0
2 0.44 0.1
2 0.46 0
2 0.46 0.1
2 0.48 0
2 0.48 0.1
2 0.5 0
2 0.5 0.1
2 0.52 0
2 0.52 0.1
2 0.54 0
2 0.54 0.1
2 0.56 0
2 0.56 0.1
2 0.58 0
2 0.58 0.1
2 0.6 0
2 0.6 0.1
2 0.62 0
2 0.62 0.1
2 0.64 0
2 0.64 0.1
2 0.66 0
2 0.66 0.1
2 0.68 0
2 0.68 0.1
2 0.7 0
2 0.7 0.1
2 0.72 0
2 0.72 0.1
2 0.74 0
2 0.74 0.1
2 0.76 0
2 0.76 0.1
2 0.78 0
2 0.78 0.1
2 0.8 0
2 0.8 0.1
2 0.82 0
2 0.82 0.1
2 0.84 0
2 0.84 0.1
2 0.86 0
2 0.86 0.1
2 0.88 0
2 0.88 0.1
2 0.9 0
2 0.9 0.1
2 0.92 0
2 0.92 0.1
2 0.94 0
2 0.94 0.1
2 0.96 0
2 0.96 0.1
2 0.98 0
2 0.98 0.1
2 1 0
2 1 0.1
2.02 1 0
2.02 1 0.1
2.04 1 0
2.04 1 0.1
2.06 1 0
2.06 1 0.1
2.08 1 0
2.08 1 0.1
2.1 1 0
2.1 1 0.1
2.12 1 0
2.12 1 0.1
2.14 1 0
2.14 1 0.1
2.16 1 0
2.16 1 0.1
2.18 1 0
2.18 1 0.1
2.2 1 0
2.2 1 0.1
2.22 1 0
2.22 1 0.1
2.24 1 0
2.24 1 0.1
2.26 1 0
2.26 1 0.1
2.28 1 0
2.28 1 0.1
2.3 1 0
2.3 1 0.1
2.32 1 0
2.32 1 0.1
2.34 1 0
2.34 1 0.1
2.36 1 0
2.36 1 0.1
2.38 1 0
2.38 1 0.1
2.4 1 0
2.4 1 0.1
2.42 1 0
2.42 1 0.1
2.44 1 0
2.44 1 0.1
2.46 1 0
2.46 1 0.1
2.48 1 0
2.48 1 0.1
2.5 1 0
2.5 1 0.1
2.5 0 0
2.5 0 0.1
2.5 0.02 0.1
2.5 0.02 0
2.5 0.04 0.1
2.5 0.04 0
2.5 0.06 0.1
2.5 0.06 0
2.5 0.08 0.1
2.5 0.08 0
2.5 0.1 0.1
2.5 0.1 0
2.5 0.12 0.1
2.5 0.12 0
2.5 0.14 0.1
2.5 0.14 0
2.5 0.16 0.1
2.5 0.16 0
2.5 0.18 0.1
2.5 0.18 0
2.5 0.2 0.1
2.5 0.2 0
2.5 0.22 0.1
2.5 0.22 0
2.5 0.24 0.1
2.5 0.24 0
2.5 0.26 0.1
2.5 0.26 0
2.5 0.28 0.1
2.5 0.28 0
2.5 0.3 0.1
2.5 0.3 0
2.5 0.32 0.1
2.5 0.32 0
2.5 0.34 0.1
2.5 0.34 0
2.5 0.36 0.1
2.5 0.36 0
2.5 0.38 0.1
2.5 0.38 0
2.5 0.4 0.1
2.5 0.4 0
2.5 0.42 0.1
2.5 0.42 0
2.5 0.44 0.1
2.5 0.44 0
2.5 0.46 0.1
2.5 0.46 0
2.5 0.48 0.1
2.5 0.48 0
2.5 0.5 0.1
2.5 0.5 0
2.5 0.52 0.1
2.5 0.52 0
2.5 0.54 0.1
2.5 0.54 0
2.5 0.56 0.1
2.5 0.56 0
2.5 0.58 0.1
2.5 0.58 0
2.5 0.6 0.1
2.5 0.6 0
2.5 0.62 0.1
2.5 0.62 0
2.5 0.64 0.1
2.5 0.64 0
2.5 0.66 0.1
2.5 0.66 0
2.5 0.68 0.1
2.5 0.68 0
2.5 0.7 0.1
2.5 0.7 0
2.5 0.72 0.1
2.5 0.72 0
2.5 0.74 0.1
2.5 0.74 0
2.5 0.76 0.1
2.5 0.76 0
2.5 0.78 0.1
2.5 0.78 0
2.5 0.8 0.1
2.5 0.8 0
2.5 0.82 0.1
2.5 0.82 0
2.5 0.84 0.1
2.5 0.84 0
2.5 0.86 0.1
2.5 0.86 0
2.5 0.88 0.1
2.5 0.88 0
2.5 0.9 0.1
2.5 0.9 0
2.5 0.92 0.1
2.5 0.92 0
2.5 0.94 0.1
2.5 0.94 0
2.5 0.96 0.1
2.5 0.96 0
2.5 0.98 0.1
2.5 0.98 0
2.52 0 0
2.52 0 0.1
2.54 0 0
2.54 0 0.1
2.56 0 0
2.56 0 0.1
2.58 0 0
2.58 0 0.1
2.6 0 0
2.6 0 0.1
2.62 0 0
2.62 0 0.1
2.64 0 0
2.64 0 0.1
2.66 0 0
2.66 0 0.1
2.68 0 0
2.68 0 0.1
2.7 0 0
2.7 0 0.1
2.72 0 0
2.72 0 0.1
2.74 0 0
2.74 0 0.1
2.76 0 0
2.76 0 0.1
2.78 0 0
2.78 0 0.1
2.8 0 0
2.8 0 0.1
2.82 0 0
2.82 0 0.1
2.84 0 0
2.84 0 0.1
2.86 0 0
2.86 0 0.1
2.88 0 0
2.88 0 0.1
2.9 0 0
2.9 0 0.1
2.92 0 0
2.92 0 0.1
2.94 0 0
2.94 0 0.1
2.96 0 0
2.96 0 0.1
2.98 0 0
2.98 0 0.1
3 0 0
3 0 0.1
3.02 0 0
3.02 0 0.1
3.04 0 0
3.04 0 0.1
3.06 0 0
3.06 0 0.1
3.08 0 0
3.08 0 0.1
3.1 0 0
3.1 0 0.1
3.12 0 0
3.12 0 0.1
3.14 0 0
3.14 0 0.1
3.16 0 0
3.16 0 0.1
3.18 0 0
3.18 0 0.1
3.2 0 0
3.2 0 0.1
3.22 0 0
3.22 0 0.1
3.24 0 0
3.24 0 0.1
3.26 0 0
3.26 0 0.1
3.28 0 0
3.28 0 0.1
3.3 0 0
3.3 0 0.1
3.32 0 0
3.32 0 0.1
3.34 0 0
3.34 0 0.1
3.36 0 0
3.36 0 0.1
3.38 0 0
3.38 0 0.1
3.4 0 0
3.4 0 0.1
3.42 0 0
3.42 0 0.1
3.44 0 0
3.44 0 0.1
3.46 0 0
3.46 0 0.1
3.48 0 0
3.48 0 0.1
3.5 0 0
3.5 0 0.1
3.52 0 0
3.52 0 0.1
3.54 0 0
3.54 0 0.1
3.56 0 0
3.56 0 0.1
3.58 0 0
3.58 0 0.1
3.6 0 0
3.6 0 0.1
3.62 0 0
3.62 0 0.1
3.64 0 0
3.64 0 0.1
3.66 0 0
3.66 0 0.1
3.68 0 0
3.68 0 0.1
3.7 0 0
3.7 0 0.1
3.72 0 0
3.72 0 0.1
3.74 0 0
3.74 0 0.1
3.76 0 0
3.76 0 0.1
3.78 0 0
3.78 0 0.1
3.8 0 0
3.8 0 0.1
3.82 0 0
3.82 0 0.1
3.84 0 0
3.84 0 0.1
3.86 0 0
3.86 0 0.1
3.88 0 0
3.88 0 0.1
3.9 0 0
3.9 0 0.1
3.92 0 0
3.92 0 0.1
3.94 0 0
3.94 0 0.1
3.96 0 0
3.96 0 0.1
3.98 0 0
3.98 0 0.1
4 0 0
4 0 0.1
4.02 0 0
4.02 0 0.1
4.04 0 0
4.04 0 0.1
4.06 0 0
4.06 0 0.1
4.08 0 0
4.08 0 0.1
4.1 0 0
4.1 0 0.1
4.12 0 0
4.12 0 0.1
4.14 0 0
4.14 0 0.1
4.16 0 0
4.16 0 0.1
4.18 0 0
4.18 0 0.1
4.2 0 0
4.2 0 0.1
4.22 0 0
4.22 0 0.1
4.24 0 0
4.24 0 0.1
4.26 0 0
4.26 0 0.1
4.28 0 0
4.28 0 0.1
4.3 0 0
4.3 0 0.1
4.32 0 0
4.32 0 0.1
4.34 0 0
4.34 0 0.1
4.36 0 0
4.36 0 0.1
4.38 0 0
4.38 0 0.1
4.4 0 0
4.4 0 0.1
4.42 0 0
4.42 0 0.1
4.44 0 0
4.44 0 0.1
4.46 0 0
4.46 0 0.1
4.48 0 0
4.48 0 0.1
4.5 0 0
4.5 0 0.1

POLYGONS 325 1625
4 0 1 2 3
4 1 4 5 2
4 4 6 7 5
4 6 8 9 7
4 8 10 11 9
4 10 12 13 11
4 12 14 15 13
4 14 16 17 15
4 16 18 19 17
4 18 20 21 19
4 20 22 23 21
4 22 24 25 23
4 24 26 27 25
4 26 28 29 27
4 28 30 31 29
4 30 32 33 31
4 32 34 35 33
4 34 36 37 35
4 36 38 39 37
4 38 40 41 39
4 40 42 43 41
4 42 44 45 43
4 44 46 47 45
4 46 48 49 47
4 48 50 51 49
4 50 52 53 51
4 52 54 55 53
4 54 56 57 55
4 56 58 59 57
4 58 60 61 59
4 60 62 63 61
4 62 64 65 63
4 64 66 67 65
4 66 68 69 67
4 68 70 71 69
4 70 72 73 71
4 72 74 75 73
4 74 76 77 75
4 76 78 79 77
4 78 80 81 79
4 80 82 83 81
4 82 84 85 83
4 84 86 87 85
4 86 88 89 87
4 88 90 91 89
4 90 92 93 91
4 92 94 95 93
4 94 96 97 95
4 96 98 99 97
4 98 100 101 99
4 100 102 103 101
4 102 104 105 103
4 104 106 107 105
4 106 108 109 107
4 108 110 111 109
4 110 112 113 111
4 112 114 115 113
4 114 116 117 115
4 116 118 119 117
4 118 120 121 119
4 120 122 123 121
4 122 124 125 123
4 124 126 127 125
4 126 128 129 127
4 128 130 131 129
4 130 132 133 131
4 132 134 135 133
4 134 136 137 135
4 136 138 139 137
4 138 140 141 139
4 140 142 143 141
4 142 144 145 143
4 144 146 147 145
4 146 148 149 147
4 148 150 151 149
4 150 152 153 151
4 152 154 155 153
4 154 156 157 155
4 156 158 159 157
4 158 160 161 159
4 160 162 163 161
4 162 164 165 163
4 164 166 167 165
4 166 168 169 167
4 168 170 171 169
4 170 172 173 171
4 172 174 175 173
4 174 176 177 175
4 176 178 179 177
4 178 180 181 179
4 180 182 183 181
4 182 184 185 183
4 184 186 187 185
4 186 188 189 187
4 188 190 191 189
4 190 192 193 191
4 192 194 195 193
4 194 196 197 195
4 196 198 199 197
4 198 200 201 199
4 200 202 203 201
4 202 204 205 203
4 204 206 207 205
4 206 208 209 207
4 208 210 211 209
4 210 212 213 211
4 212 214 215 213
4 214 216 217 215
4 216 218 219 217
4 218 220 221 219
4 220 222 223 221
4 222 224 225 223
4 224 226 227 225
4 226 228 229 227
4 228 230 231 229
4 230 232 233 231
4 232 234 235 233
4 234 236 237 235
4 236 238 239 237
4 238 240 241 239
4 240 242 243 241
4 242 244 245 243
4 244 246 247 245
4 246 248 249 247
4 248 250 251 249
4 250 252 253 251
4 252 254 255 253
4 254 256 257 255
4 256 258 259 257
4 258 260 261 259
4 260 262 263 261
4 262 264 265 263
4 264 266 267 265
4 266 268 269 267
4 268 270 271 269
4 270 272 273 271
4 272 274 275 273
4 274 276 277 275
4 276 278 279 277
4 278 280 281 279
4 280 282 283 281
4 282 284 285 283
4 284 286 287 285
4 286 288 289 287
4 288 290 291 289
4 290 292 293 291
4 292 294 295 293
4 294 296 297 295
4 296 298 299 297
4 298 300 301 299
4 300 302 303 301
4 302 304 305 303
4 304 306 307 305
4 306 308 309 307
4 308 310 311 309
4 310 312 313 311
4 312 314 315 313
4 314 316 317 315
4 316 318 319 317
4 318 320 321 319
4 320 322 323 321
4 322 324 325 323
4 324 326 327 325
4 326 328 329 327
4 328 330 331 329
4 330 332 333 331
4 332 334 335 333
4 334 336 337 335
4 336 338 339 337
4 338 340 341 339
4 340 342 343 341
4 342 344 345 343
4 344 346 347 345
4 346 348 349 347
4 348 350 351 349
4 352 353 354 355
4 355 354 356 357
4 357 356 358 359
4 359 358 360 361
4 361 360 362 363
4 363 362 364 365
4 365 364 366 367
4 367 366 368 369
4 369 368 370 371
4 371 370 372 373
4 373 372 374 375
4 375 374 376 377
4 377 376 378 379
4 379 378 380 381
4 381 380 382 383
4 383 382 384 385
4 385 384 386 387
4 387 386 388 389
4 389 388 390 391
4 391 390 392 393
4 393 392 394 395
4 395 394 396 397
4 397 396 398 399
4 399 398 400 401
4 401 400 402 403
4 403 402 404 405
4 405 404 406 407
4 407 406 408 409
4 409 408 410 411
4 411 410 412 413
4 413 412 414 415
4 415 414 416 417
4 417 416 418 419
4 419 418 420 421
4 421 420 422 423
4 423 422 424 425
4 425 424 426 427
4 427 426 428 429
4 429 428 430 431
4 431 430 432 433
4 433 432 434 435
4 435 434 436 437
4 437 436 438 439
4 439 438 440 441
4 441 440 442 443
4 443 442 444 445
4 445 444 446 447
4 447 446 448 449
4 449 448 450 451
4 451 450 351 350
4 352 452 453 353
4 452 454 455 453
4 454 456 457 455
4 456 458 459 457
4 458 460 461 459
4 460 462 463 461
4 462 464 465 463
4 464 466 467 465
4 466 468 469 467
4 468 470 471 469
4 470 472 473 471
4 472 474 475 473
4 474 476 477 475
4 476 478 479 477
4 478 480 481 479
4 480 482 483 481
4 482 484 485 483
4 484 486 487 485
4 486 488 489 487
4 488 490 491 489
4 490 492 493 491
4 492 494 495 493
4 494 496 497 495
4 496 498 499 497
4 498 500 501 499
4 500 502 503 501
4 502 504 505 503
4 504 506 507 505
4 506 508 509 507
4 508 510 511 509
4 510 512 513 511
4 512 514 515 513
4 514 516 517 515
4 516 518 519 517
4 518 520 521 519
4 520 522 523 521
4 522 524 525 523
4 524 526 527 525
4 526 528 529 527
4 528 530 531 529
4 530 532 533 531
4 532 534 535 533
4 534 536 537 535
4 536 538 539 537
4 538 540 541 539
4 540 542 543 541
4 542 544 545 543
4 544 546 547 545
4 546 548 549 547
4 548 550 551 549
4 550 552 553 551
4 552 554 555 553
4 554 556 557 555
4 556 558 559 557
4 558 560 561 559
4 560 562 563 561
4 562 564 565 563
4 564 566 567 565
4 566 568 569 567
4 568 570 571 569
4 570 572 573 571
4 572 574 575 573
4 574 576 577 575
4 576 578 579 577
4 578 580 581 579
4 580 582 583 581
4 582 584 585 583
4 584 586 587 585
4 586 588 589 587
4 588 590 591 589
4 590 592 593 591
4 592 594 595 593
4 594 596 597 595
4 596 598 599 597
4 598 600 601 599
4 600 602 603 601
4 602 604 605 603
4 604 606 607 605
4 606 608 609 607
4 608 610 611 609
4 610 612 613 611
4 612 614 615 613
4 614 616 617 615
4 616 618 619 617
4 618 620 621 619
4 620 622 623 621
4 622 624 625 623
4 624 626 627 625
4 626 628 629 627
4 628 630 631 629
4 630 632 633 631
4 632 634 635 633
4 634 636 637 635
4 636 638 639 637
4 638 640 641 639
4 640 642 643 641
4 642 644 645 643
4 644 646 647 645
4 646 648 649 647
4 648 650 651 649
POINT_DATA 652
FIELD attributes 1
U 3 652 float
2.42929 0.0287868 0.0527461
1.21514 0.0143947 0.0263731
1.21514 0.0143947 0.0263731
2.42929 0.0287868 0.0527461
0.000981696 2.87011e-06 0
0.000981696 2.87011e-06 0
0.000984161 1.6181e-06 0
0.000984161 1.6181e-06 0
0.000986908 -8.12729e-07 0
0.000986908 -8.12729e-07 0
0.000989027 -1.40152e-06 0
0.000989027 -1.40152e-06 0
0.000989228 1.55591e-07 0
0.000989228 1.55591e-07 0
0.000987815 2.03787e-06 0
0.000987815 2.03787e-06 0
0.000986212 2.55332e-06 0
0.000986212 2.55332e-06 0
0.000985466 1.84538e-06 0
0.000985466 1.84538e-06 0
0.0009854 1.37525e-06 0
0.0009854 1.37525e-06 0
0.000984931 1.97574e-06 0
0.000984931 1.97574e-06 0
0.000983246 3.00615e-06 0
0.000983246 3.00615e-06 0
0.000980579 3.27533e-06 0
0.000980579 3.27533e-06 0
0.000977844 2.42497e-06 0
0.000977844 2.42497e-06 0
0.000975699 1.35024e-06 0
0.000975699 1.35024e-06 0
0.000973993 1.35718e-06 0
0.000973993 1.35718e-06 0
0.000971937 2.88883e-06 0
0.000971937 2.88883e-06 0
0.000968764 4.9843e-06 0
0.000968764 4.9843e-06 0
0.000964442 5.98209e-06 0
0.000964442 5.98209e-06 0
0.00095978 4.88336e-06 0
0.00095978 4.88336e-06 0
0.000955801 2.24373e-06 0
0.000955801 2.24373e-06 0
0.000952906 -1.87757e-07 0
0.000952906 -1.87757e-07 0
0.000950509 -7.83649e-07 0
0.000950509 -7.83649e-07 0
0.0009474 8.06266e-07 0
0.0009474 8.06266e-07 0
0.000942561 3.49767e-06 0
0.000942561 3.49767e-06 0
0.000935831 5.58177e-06 0
0.000935831 5.58177e-06 0
0.000927985 5.82058e-06 0
0.000927985 5.82058e-06 0
0.000920243 4.16394e-06 0
0.000920243 4.16394e-06 0
0.000913657 1.77655e-06 0
0.000913657 1.77655e-06 0
0.00090867 3.21446e-07 0
0.00090867 3.21446e-07 0
0.000904897 8.77362e-07 0
0.000904897 8.77362e-07 0
0.000901266 3.18861e-06 0
0.000901266 3.18861e-06 0
0.000896625 5.75599e-06 0
0.000896625 5.75599e-06 0
0.000890485 6.89676e-06 0
0.000890485 6.89676e-06 0
0.000883294 6.06462e-06 0
0.000883294 6.06462e-06 0
0.00087594 4.24274e-06 0
0.00087594 4.24274e-06 0
0.000868929 3.03656e-06 0
0.000868929 3.03656e-06 0
0.000862028 3.31934e-06 0
0.000862028 3.31934e-06 0
0.000854623 4.6806e-06 0
0.000854623 4.6806e-06 0
0.000846334 6.06784e-06 0
0.000846334 6.06784e-06 0
0.000837225 6.79942e-06 0
0.000837225 6.79942e-06 0
0.00082755 6.89459e-06 0
0.00082755 6.89459e-06 0
0.00081749 6.60431e-06 0
0.00081749 6.60431e-06 0
0.000807222 5.94072e-06 0
0.000807222 5.94072e-06 0
0.000797051 4.82767e-06 0
0.000797051 4.82767e-06 0
0.000787259 3.56469e-06 0
0.000787259 3.56469e-06 0
0.000777764 2.84235e-06 0
0.000777764 2.84235e-06 0
0.000768074 3.15493e-06 0
0.000768074 3.15493e-06 0
0.000757722 4.30564e-06 0
0.000757722 4.30564e-06 0
0.000746716 5.64991e-06 0
0.000746716 5.64991e-06 0
0.000735419 6.81095e-06 0
0.000735419 6.81095e-06 0
0.000723929 7.97981e-06 0
0.000723929 7.97981e-06 0
0.000711713 9.42028e-06 0
0.000711713 9.42028e-06 0
0.000698031 1.08423e-05 0
0.000698031 1.08423e-05 0
0.000682764 1.15465e-05 0
0.000682764 1.15465e-05 0
0.000666676 1.13182e-05 0
0.000666676 1.13182e-05 0
0.000650646 1.10187e-05 0
0.000650646 1.10187e-05 0
0.000634578 1.19899e-05 0
0.000634578 1.19899e-05 0
0.000617132 1.46961e-05 0
0.000617132 1.46961e-05 0
0.00059671 1.80063e-05 0
0.00059671 1.80063e-05 0
0.000572851 1.9988e-05 0
0.000572851 1.9988e-05 0
0.000546737 1.94928e-05 0
0.000546737 1.94928e-05 0
0.00052041 1.69344e-05 0
0.00052041 1.69344e-05 0
0.000495568 1.36911e-05 0
0.000495568 1.36911e-05 0
0.000472947 1.10222e-05 0
0.000472947 1.10222e-05 0
0.000452421 9.46236e-06 0
0.000452421 9.46236e-06 0
0.000433397 8.88022e-06 0
0.000433397 8.88022e-06 0
0.000415178 8.87693e-06 0
0.000415178 8.87693e-06 0
0.000397201 9.10333e-06 0
0.000397201 9.10333e-06 0
0.000379111 9.35226e-06 0
0.000379111 9.35226e-06 0
0.000360735 9.54268e-06 0
0.000360735 9.54268e-06 0
0.000342018 9.66516e-06 0
0.000342018 9.66516e-06 0
0.00032297 9.73219e-06 0
0.00032297 9.73219e-06 0
0.000303634 9.75307e-06 0
0.000303634 9.75307e-06 0
0.000284063 9.72825e-06 0
0.000284063 9.72825e-06 0
0.000264322 9.6514e-06 0
0.000264322 9.6514e-06 0
0.000244484 9.51304e-06 0
0.000244484 9.51304e-06 0
0.000224633 9.30318e-06 0
0.000224633 9.30318e-06 0
0.000204868 9.01228e-06 0
0.000204868 9.01228e-06 0
0.000185299 8.63178e-06 0
0.000185299 8.63178e-06 0
0.000166052 8.15467e-06 0
0.000166052 8.15467e-06 0
0.000147263 7.57617e-06 0
0.000147263 7.57617e-06 0
0.000129078 6.8948e-06 0
0.000129078 6.8948e-06 0
0.000111648 6.11304e-06 0
0.000111648 6.11304e-06 0
9.51229e-05 5.23754e-06 0
9.51229e-05 5.23754e-06 0
7.96498e-05 4.27919e-06 0
7.96498e-05 4.27919e-06 0
6.53627e-05 3.25337e-06 0
6.53627e-05 3.25337e-06 0
5.23775e-05 2.18178e-06 0
5.23775e-05 2.18178e-06 0
4.07858e-05 1.09241e-06 0
4.07858e-05 1.09241e-06 0
3.06514e-05 1.35239e-08 0
3.06514e-05 1.35239e-08 0
2.20073e-05 -1.02987e-06 0
2.20073e-05 -1.02987e-06 0
1.48537e-05 -2.01485e-06 0
1.48537e-05 -2.01485e-06 0
9.15638e-06 -2.92081e-06 0
9.15638e-06 -2.92081e-06 0
4.84643e-06 -3.72957e-06 0
4.84643e-06 -3.72957e-06 0
1.81704e-06 -4.42746e-06 0
1.81704e-06 -4.42746e-06 0
-6.57857e-08 -5.00278e-06 0
-6.57857e-08 -5.00278e-06 0
-9.76073e-07 -5.45548e-06 0
-9.76073e-07 -5.45548e-06 0
-1.10903e-06 -5.79182e-06 0
-1.10903e-06 -5.79182e-06 0
-6.94804e-07 -5.98664e-06 0
-6.94804e-07 -5.98664e-06 0
-3.85719e-07 -6.04245e-06 0
-3.85719e-07 -6.04245e-06 0
4.28471e-06 -6.75816e-07 0
4.28471e-06 -6.75816e-07 0
1.11267e-05 1.74114e-05 0
1.11267e-05 1.74114e-05 0
1.38127e-05 4.40885e-05 0
1.38127e-05 4.40885e-05 0
1.40918e-05 7.24986e-05 0
1.40918e-05 7.24986e-05 0
1.33642e-05 0.000100282 0
1.33642e-05 0.000100282 0
1.23833e-05 0.000125977 0
1.23833e-05 0.000125977 0
1.15122e-05 0.00014983 0
1.15122e-05 0.00014983 0
1.08763e-05 0.000172189 0
1.08763e-05 0.000172189 0
1.04852e-05 0.000193559 0
1.04852e-05 0.000193559 0
1.02993e-05 0.000214376 0
1.02993e-05 0.000214376 0
1.02645e-05 0.000234986 0
1.02645e-05 0.000234986 0
1.03315e-05 0.000255647 0
1.03315e-05 0.000255647 0
1.0462e-05 0.000276519 0
1.0462e-05 0.000276519 0
1.06295e-05 0.000297697 0
1.06295e-05 0.000297697 0
1.08175e-05 0.000319232 0
1.08175e-05 0.000319232 0
1.10167e-05 0.000341153 0
1.10167e-05 0.000341153 0
1.1223e-05 0.000363478 0
1.1223e-05 0.000363478 0
1.14354e-05 0.000386218 0
1.14354e-05 0.000386218 0
1.1655e-05 0.000409386 0
1.1655e-05 0.000409386 0
1.1884e-05 0.000433 0
1.1884e-05 0.000433 0
1.21249e-05 0.00045708 0
1.21249e-05 0.00045708 0
1.2381e-05 0.000481654 0
1.2381e-05 0.000481654 0
1.26544e-05 0.000506754 0
1.26544e-05 0.000506754 0
1.29495e-05 0.000532421 0
1.29495e-05 0.000532421 0
1.32677e-05 0.000558696 0
1.32677e-05 0.000558696 0
1.36153e-05 0.000585636 0
1.36153e-05 0.000585636 0
1.39923e-05 0.000613295 0
1.39923e-05 0.000613295 0
1.44089e-05 0.000641748 0
1.44089e-05 0.000641748 0
1.4862e-05 0.000671061 0
1.4862e-05 0.000671061 0
1.53696e-05 0.000701337 0
1.53696e-05 0.000701337 0
1.59204e-05 0.000732657 0
1.59204e-05 0.000732657 0
1.6552e-05 0.000765168 0
1.6552e-05 0.000765168 0
1.72279e-05 0.000798956 0
1.72279e-05 0.000798956 0
1.80383e-05 0.000834255 0
1.80383e-05 0.000834255 0
1.88742e-05 0.000871139 0
1.88742e-05 0.000871139 0
1.99546e-05 0.00091 0
1.99546e-05 0.00091 0
2.09979e-05 0.000950848 0
2.09979e-05 0.000950848 0
2.25218e-05 0.000994407 0
2.25218e-05 0.000994407 0
2.38068e-05 0.00104048 0
2.38068e-05 0.00104048 0
2.61617e-05 0.00109049 0
2.61617e-05 0.00109049 0
2.76368e-05 0.00114373 0
2.76368e-05 0.00114373 0
3.17295e-05 0.00120304 0
3.17295e-05 0.00120304 0
3.32115e-05 0.00126681 0
3.32115e-05 0.00126681 0
4.10948e-05 0.00134061 0
4.10948e-05 0.00134061 0
4.24731e-05 0.00142175 0
4.24731e-05 0.00142175 0
6.02831e-05 0.00152131 0
6.02831e-05 0.00152131 0
6.31912e-05 0.00163812 0
6.31912e-05 0.00163812 0
0.000113776 0.00179275 0
0.000113776 0.00179275 0
0.000134986 0.00199839 0
0.000134986 0.00199839 0
0.000155162 0.00127735 0
0.000155162 0.00127735 0
-0.000261408 0.000259114 0
-0.000261408 0.000259114 0
-0.000630622 0.00010602 0
-0.000630622 0.00010602 0
-0.000907229 0.000190475 0
-0.000907229 0.000190475 0
-0.00139595 0.000201879 0
-0.00139595 0.000201879 0
-0.00167194 0.000107966 0
-0.00167194 0.000107966 0
-0.00181509 -1.10994e-05 0
-0.00181509 -1.10994e-05 0
-0.00170125 -0.000138515 0
-0.00170125 -0.000138515 0
-0.00137536 -0.000268821 0
-0.00137536 -0.000268821 0
-0.000801407 -0.000386498 0
-0.000801407 -0.000386498 0
-5.56741e-06 -0.000486559 0
-5.56741e-06 -0.000486559 0
0.000960273 -0.000529272 0
0.000960273 -0.000529272 0
0.00189524 -0.000482307 0
0.00189524 -0.000482307 0
0.00269824 -0.000376143 0
0.00269824 -0.000376143 0
0.00326163 -0.000253222 0
0.00326163 -0.000253222 0
0.0035839 -0.000112843 0
0.0035839 -0.000112843 0
0.00367985 1.31886e-05 0
0.00367985 1.31886e-05 0
0.00355797 0.000119994 0
0.00355797 0.000119994 0
0.00318349 0.000319844 0
0.00318349 0.000319844 0
0.00262441 0.000468925 0
0.00262441 0.000468925 0
0.00181828 0.000384086 0
0.00181828 0.000384086 0
0.00105686 0.000353298 0
0.00105686 0.000353298 0
0.000469613 0.000194673 0
0.000469613 0.000194673 0
0.000550389 -0.000195652 0
0.000550389 -0.000195652 0
0.000367819 5.13719e-05 0
0.000367819 5.13719e-05 0
-0.000130029 0.000888859 0
-0.000130029 0.000888859 0
-8.43867e-06 7.00153e-06 0
-8.43867e-06 7.00153e-06 0
-9.3235e-06 1.63125e-05 0
-9.3235e-06 1.63125e-05 0
-1.00493e-05 3.57254e-05 0
-1.00493e-05 3.57254e-05 0
-9.73628e-06 5.49191e-05 0
-9.73628e-06 5.49191e-05 0
-9.50859e-06 7.31668e-05 0
-9.50859e-06 7.31668e-05 0
-9.3907e-06 9.13558e-05 0
-9.3907e-06 9.13558e-05 0
-9.30356e-06 0.000109343 0
-9.30356e-06 0.000109343 0
-9.20854e-06 0.000127173 0
-9.20854e-06 0.000127173 0
-9.0924e-06 0.000144823 0
-9.0924e-06 0.000144823 0
-8.95049e-06 0.000162242 0
-8.95049e-06 0.000162242 0
-8.77992e-06 0.000179377 0
-8.77992e-06 0.000179377 0
-8.57786e-06 0.000196171 0
-8.57786e-06 0.000196171 0
-8.34093e-06 0.000212557 0
-8.34093e-06 0.000212557 0
-8.06586e-06 0.000228465 0
-8.06586e-06 0.000228465 0
-7.7498e-06 0.000243816 0
-7.7498e-06 0.000243816 0
-7.38953e-06 0.000258525 0
-7.38953e-06 0.000258525 0
-6.98256e-06 0.000272502 0
-6.98256e-06 0.000272502 0
-6.52849e-06 0.000285655 0
-6.52849e-06 0.000285655 0
-6.02791e-06 0.000297887 0
-6.02791e-06 0.000297887 0
-5.48153e-06 0.000309102 0
-5.48153e-06 0.000309102 0
-4.89228e-06 0.000319203 0
-4.89228e-06 0.000319203 0
-4.26395e-06 0.000328104 0
-4.26395e-06 0.000328104 0
-3.60164e-06 0.000335723 0
-3.60164e-06 0.000335723 0
-2.90981e-06 0.000341996 0
-2.90981e-06 0.000341996 0
-2.19683e-06 0.00034686 0
-2.19683e-06 0.00034686 0
-1.4718e-06 0.000350303 0
-1.4718e-06 0.000350303 0
-7.21666e-07 0.000352282 0
-7.21666e-07 0.000352282 0
5.67485e-08 0.000352859 0
5.67485e-08 0.000352859 0
8.59851e-07 0.000351872 0
8.59851e-07 0.000351872 0
1.66144e-06 0.000349643 0
1.66144e-06 0.000349643 0
2.44294e-06 0.0003458 0
2.44294e-06 0.0003458 0
3.11342e-06 0.000341385 0
3.11342e-06 0.000341385 0
3.67525e-06 0.000335151 0
3.67525e-06 0.000335151 0
4.01177e-06 0.000329806 0
4.01177e-06 0.000329806 0
4.17365e-06 0.000322416 0
4.17365e-06 0.000322416 0
3.99234e-06 0.000317858 0
3.99234e-06 0.000317858 0
3.52304e-06 0.000311165 0
3.52304e-06 0.000311165 0
2.30319e-06 0.000309668 0
2.30319e-06 0.000309668 0
9.09352e-07 0.000306623 0
9.09352e-07 0.000306623 0
-1.3949e-06 0.00031158 0
-1.3949e-06 0.00031158 0
-5.61883e-06 0.000314959 0
-5.61883e-06 0.000314959 0
-4.06399e-06 0.000337302 0
-4.06399e-06 0.000337302 0
-2.03973e-05 0.000341806 0
-2.03973e-05 0.000341806 0
-2.42001e-05 0.000398383 0
-2.42001e-05 0.000398383 0
-2.22422e-05 0.00043993 0
-2.22422e-05 0.00043993 0
-3.85291e-05 0.000490651 0
-3.85291e-05 0.000490651 0
-9.40518e-05 0.000607188 0
-9.40518e-05 0.000607188 0
-9.25463e-05 0.000726593 0
-9.25463e-05 0.000726593 0
-0.000192835 0.000959447 0
-0.000192835 0.000959447 0
-0.000183446 0.00120286 0
-0.000183446 0.00120286 0
-1.62426e-05 6.97524e-06 0
-1.62426e-05 6.97524e-06 0
-3.22551e-05 7.07491e-06 0
-3.22551e-05 7.07491e-06 0
-4.8744e-05 7.31949e-06 0
-4.8744e-05 7.31949e-06 0
-6.54183e-05 7.58464e-06 0
-6.54183e-05 7.58464e-06 0
-8.24318e-05 7.90015e-06 0
-8.24318e-05 7.90015e-06 0
-9.98193e-05 8.24636e-06 0
-9.98193e-05 8.24636e-06 0
-0.000117584 8.60108e-06 0
-0.000117584 8.60108e-06 0
-0.000135733 8.94638e-06 0
-0.000135733 8.94638e-06 0
-0.000154226 9.26408e-06 0
-0.000154226 9.26408e-06 0
-0.000173028 9.53901e-06 0
-0.000173028 9.53901e-06 0
-0.000192067 9.75921e-06 0
-0.000192067 9.75921e-06 0
-0.000211279 9.9166e-06 0
-0.000211279 9.9166e-06 0
-0.000230574 1.00068e-05 0
-0.000230574 1.00068e-05 0
-0.000249869 1.00307e-05 0
-0.000249869 1.00307e-05 0
-0.000269058 9.99142e-06 0
-0.000269058 9.99142e-06 0
-0.000288028 9.88589e-06 0
-0.000288028 9.88589e-06 0
-0.000306651 9.70604e-06 0
-0.000306651 9.70604e-06 0
-0.000324789 9.44333e-06 0
-0.000324789 9.44333e-06 0
-0.000342287 9.08931e-06 0
-0.000342287 9.08931e-06 0
-0.000358977 8.63588e-06 0
-0.000358977 8.63588e-06 0
-0.000374677 8.07632e-06 0
-0.000374677 8.07632e-06 0
-0.000389193 7.40582e-06 0
-0.000389193 7.40582e-06 0
-0.000402323 6.62144e-06 0
-0.000402323 6.62144e-06 0
-0.000413861 5.72266e-06 0
-0.000413861 5.72266e-06 0
-0.000423604 4.71285e-06 0
-0.000423604 4.71285e-06 0
-0.000431358 3.60092e-06 0
-0.000431358 3.60092e-06 0
-0.000436946 2.40399e-06 0
-0.000436946 2.40399e-06 0
-0.000440216 1.14664e-06 0
-0.000440216 1.14664e-06 0
-0.000441033 -1.38397e-07 0
-0.000441033 -1.38397e-07 0
-0.000439355 -1.41712e-06 0
-0.000439355 -1.41712e-06 0
-0.000435169 -2.68529e-06 0
-0.000435169 -2.68529e-06 0
-0.00042844 -3.94883e-06 0
-0.00042844 -3.94883e-06 0
-0.000419184 -5.19656e-06 0
-0.000419184 -5.19656e-06 0
-0.000407448 -6.41339e-06 0
-0.000407448 -6.41339e-06 0
-0.000393311 -7.58271e-06 0
-0.000393311 -7.58271e-06 0
-0.000376886 -8.68895e-06 0
-0.000376886 -8.68895e-06 0
-0.000358316 -9.71848e-06 0
-0.000358316 -9.71848e-06 0
-0.000337768 -1.06601e-05 0
-0.000337768 -1.06601e-05 0
-0.000315429 -1.15054e-05 0
-0.000315429 -1.15054e-05 0
-0.000291499 -1.22488e-05 0
-0.000291499 -1.22488e-05 0
-0.000266186 -1.28875e-05 0
-0.000266186 -1.28875e-05 0
-0.000239704 -1.34208e-05 0
-0.000239704 -1.34208e-05 0
-0.000212262 -1.38505e-05 0
-0.000212262 -1.38505e-05 0
-0.000184065 -1.41804e-05 0
-0.000184065 -1.41804e-05 0
-0.000155308 -1.44157e-05 0
-0.000155308 -1.44157e-05 0
-0.000126176 -1.45632e-05 0
-0.000126176 -1.45632e-05 0
-9.6835e-05 -1.46294e-05 0
-9.6835e-05 -1.46294e-05 0
-6.74362e-05 -1.46213e-05 0
-6.74362e-05 -1.46213e-05 0
-3.81151e-05 -1.45499e-05 0
-3.81151e-05 -1.45499e-05 0
-9.00588e-06 -1.44203e-05 0
-9.00588e-06 -1.44203e-05 0
1.97774e-05 -1.42405e-05 0
1.97774e-05 -1.42405e-05 0
4.81575e-05 -1.40209e-05 0
4.81575e-05 -1.40209e-05 0
7.60631e-05 -1.3766e-05 0
7.60631e-05 -1.3766e-05 0
0.000103427 -1.34828e-05 0
0.000103427 -1.34828e-05 0
0.0001302 -1.31773e-05 0
0.0001302 -1.31773e-05 0
0.000156343 -1.2855e-05 0
0.000156343 -1.2855e-05 0
0.000181826 -1.25207e-05 0
0.000181826 -1.25207e-05 0
0.000206631 -1.21785e-05 0
0.000206631 -1.21785e-05 0
0.000230745 -1.1832e-05 0
0.000230745 -1.1832e-05 0
0.000254163 -1.14842e-05 0
0.000254163 -1.14842e-05 0
0.000276886 -1.11376e-05 0
0.000276886 -1.11376e-05 0
0.000298917 -1.07945e-05 0
0.000298917 -1.07945e-05 0
0.000320266 -1.04565e-05 0
0.000320266 -1.04565e-05 0
0.000340945 -1.0125e-05 0
0.000340945 -1.0125e-05 0
0.000360967 -9.80109e-06 0
0.000360967 -9.80109e-06 0
0.000380349 -9.48565e-06 0
0.000380349 -9.48565e-06 0
0.000399108 -9.17929e-06 0
0.000399108 -9.17929e-06 0
0.000417263 -8.88247e-06 0
0.000417263 -8.88247e-06 0
0.000434834 -8.5955e-06 0
0.000434834 -8.5955e-06 0
0.00045184 -8.3186e-06 0
0.00045184 -8.3186e-06 0
0.000468301 -8.05178e-06 0
0.000468301 -8.05178e-06 0
0.000484238 -7.79498e-06 0
0.000484238 -7.79498e-06 0
0.000499671 -7.54816e-06 0
0.000499671 -7.54816e-06 0
0.000514619 -7.31126e-06 0
0.000514619 -7.31126e-06 0
0.000529103 -7.08422e-06 0
0.000529103 -7.08422e-06 0
0.000543142 -6.86684e-06 0
0.000543142 -6.86684e-06 0
0.000556754 -6.65887e-06 0
0.000556754 -6.65887e-06 0
0.000569959 -6.46002e-06 0
0.000569959 -6.46002e-06 0
0.000582775 -6.27005e-06 0
0.000582775 -6.27005e-06 0
0.000595218 -6.08874e-06 0
0.000595218 -6.08874e-06 0
0.000607307 -5.91585e-06 0
0.000607307 -5.91585e-06 0
0.000619056 -5.75115e-06 0
0.000619056 -5.75115e-06 0
0.000630486 -5.59438e-06 0
0.000630486 -5.59438e-06 0
0.000641605 -5.44535e-06 0
0.000641605 -5.44535e-06 0
0.000652438 -5.30377e-06 0
0.000652438 -5.30377e-06 0
0.000662987 -5.16953e-06 0
0.000662987 -5.16953e-06 0
0.000673285 -5.04225e-06 0
0.000673285 -5.04225e-06 0
0.000683316 -4.92192e-06 0
0.000683316 -4.92192e-06 0
0.000693141 -4.80799e-06 0
0.000693141 -4.80799e-06 0
0.000702699 -4.70075e-06 0
0.000702699 -4.70075e-06 0
0.000712116 -4.5993e-06 0
0.000712116 -4.5993e-06 0
0.000721231 -4.50461e-06 0
0.000721231 -4.50461e-06 0
0.00073032 -4.41492e-06 0
0.00073032 -4.41492e-06 0
0.000738993 -4.33254e-06 0
0.000738993 -4.33254e-06 0
0.000747874 -4.25361e-06 0
0.000747874 -4.25361e-06 0
0.000756042 -4.18362e-06 0
0.000756042 -4.18362e-06 0
0.000764915 -4.11411e-06 0
0.000764915 -4.11411e-06 0
0.000772377 -4.05759e-06 0
0.000772377 -4.05759e-06 0
0.986874 -0.00493864 0
0.986874 -0.00493864 0
1.97297 -0.00987324 0
1.97297 -0.00987324 0
