/*--------------------------------*- C++ -*----------------------------------*\
| =========                 |                                                 |
| \\      /  F ield         | OpenFOAM: The Open Source CFD Toolbox           |
|  \\    /   O peration     | Version:  4.1                                   |
|   \\  /    A nd           | Web:      www.OpenFOAM.org                      |
|    \\/     M anipulation  |                                                 |
\*---------------------------------------------------------------------------*/
FoamFile
{
    version     2.0;
    format      ascii;
    class       volScalarField;
    location    "0.02";
    object      epsilon;
}
// * * * * * * * * * * * * * * * * * * * * * * * * * * * * * * * * * * * * * //

dimensions      [0 2 -3 0 0 0 0];

internalField   nonuniform List<scalar> 
43750
(
9.54017
9.8708
10.1926
10.5018
10.7929
11.0596
11.2943
11.4901
11.6425
11.7514
11.8198
11.8533
11.8588
11.8431
11.8124
11.7713
11.7237
11.6721
11.6183
11.5631
11.5072
11.4508
11.3941
11.337
11.2796
11.2219
11.1638
11.1052
11.0462
10.9868
10.9268
10.8663
10.8053
10.7436
10.6813
10.6183
10.5546
10.4902
10.4251
10.3591
10.2924
10.2248
10.1563
10.0869
10.0166
9.94533
9.8731
9.79986
9.72559
9.65027
9.57388
9.4964
9.41782
9.3381
9.25725
9.17524
9.09206
9.00771
8.92218
8.83546
8.74756
8.65847
8.56821
8.47677
8.38418
8.29045
8.19559
8.09963
8.00261
7.90454
7.80548
7.70546
7.60453
7.50274
7.40016
7.29683
7.19283
7.08823
6.98311
6.87755
6.77163
6.66544
6.55909
6.45266
6.34625
6.23997
6.13393
6.02823
5.92298
5.81829
5.71427
5.61104
5.50871
5.4074
5.30725
5.20839
5.11106
5.01571
4.92401
4.86551
12.9879
11.443
10.1616
9.09435
8.20594
7.4716
6.87304
6.39406
6.01803
5.72841
5.51015
5.35012
5.23679
5.15977
5.10972
5.07851
5.05964
5.04844
5.04184
5.03792
5.03552
5.03398
5.03291
5.03213
5.03153
5.03105
5.03066
5.03036
5.03013
5.02998
5.02989
5.02986
5.0299
5.02999
5.03014
5.03034
5.03059
5.03089
5.03123
5.03161
5.03203
5.03248
5.03297
5.03348
5.03401
5.03456
5.03512
5.0357
5.03627
5.03685
5.03741
5.03797
5.0385
5.039
5.03947
5.0399
5.04028
5.04059
5.04084
5.04101
5.04109
5.04107
5.04093
5.04068
5.04029
5.03975
5.03905
5.03818
5.03713
5.03587
5.0344
5.03271
5.03077
5.02858
5.02613
5.0234
5.02039
5.01707
5.01345
5.00952
5.00526
5.00067
4.99576
4.99052
4.98495
4.97906
4.97284
4.96632
4.9595
4.95239
4.94501
4.93738
4.92951
4.92142
4.91315
4.90474
4.8961
4.88816
4.87419
4.8286
13.0027
11.4585
10.1649
9.075
8.15587
7.38474
6.7458
6.22672
5.81589
5.50069
5.26706
5.09989
4.98435
4.90719
4.8575
4.82673
4.80846
4.79809
4.79246
4.78956
4.78817
4.78757
4.7874
4.78744
4.7876
4.78783
4.78811
4.78843
4.78878
4.78916
4.78958
4.79003
4.79051
4.79103
4.79158
4.79217
4.7928
4.79346
4.79417
4.79491
4.7957
4.79653
4.7974
4.79832
4.79929
4.80031
4.80138
4.80251
4.80368
4.80492
4.80621
4.80756
4.80897
4.81044
4.81198
4.81358
4.81525
4.81698
4.81879
4.82066
4.8226
4.82462
4.8267
4.82885
4.83107
4.83336
4.83572
4.83814
4.84062
4.84316
4.84576
4.8484
4.8511
4.85383
4.85659
4.85938
4.86218
4.86499
4.86779
4.87057
4.87333
4.87604
4.87869
4.88127
4.88375
4.88613
4.88838
4.89048
4.89242
4.89418
4.89574
4.89708
4.89819
4.89905
4.89965
4.90002
4.89999
4.9005
4.89536
4.885
13.0027
11.4586
10.1647
9.07447
8.15477
7.38284
6.74287
6.22249
5.80998
5.49268
5.25675
5.08755
4.97066
4.89292
4.8432
4.81265
4.79465
4.78447
4.77897
4.77616
4.77481
4.77423
4.77406
4.77408
4.77422
4.77441
4.77463
4.77489
4.77516
4.77546
4.77579
4.77613
4.7765
4.7769
4.77732
4.77777
4.77825
4.77876
4.7793
4.77988
4.78049
4.78113
4.78182
4.78254
4.78331
4.78413
4.78499
4.78589
4.78686
4.78787
4.78894
4.79007
4.79126
4.79252
4.79384
4.79523
4.7967
4.79824
4.79986
4.80156
4.80334
4.8052
4.80716
4.8092
4.81134
4.81357
4.81589
4.81831
4.82082
4.82342
4.82612
4.82891
4.83178
4.83474
4.83777
4.84088
4.84405
4.84728
4.85056
4.85387
4.85721
4.86055
4.86389
4.86721
4.87048
4.87369
4.87682
4.87985
4.88275
4.88551
4.88809
4.89049
4.89267
4.89462
4.89632
4.89777
4.8988
4.90029
4.89742
4.95887
13.0027
11.4585
10.1646
9.07424
8.15443
7.38246
6.74253
6.22231
5.81002
5.49289
5.25692
5.08753
4.9704
4.89247
4.84263
4.81203
4.79401
4.78383
4.77834
4.77553
4.77418
4.77361
4.77344
4.77347
4.7736
4.77378
4.77401
4.77425
4.77453
4.77482
4.77513
4.77547
4.77583
4.77622
4.77663
4.77707
4.77754
4.77804
4.77856
4.77912
4.77972
4.78035
4.78102
4.78173
4.78248
4.78328
4.78412
4.78501
4.78595
4.78695
4.788
4.78911
4.79028
4.79152
4.79282
4.79419
4.79564
4.79716
4.79876
4.80044
4.80221
4.80406
4.806
4.80803
4.81015
4.81237
4.81469
4.8171
4.81961
4.82221
4.82491
4.82771
4.83059
4.83356
4.83662
4.83975
4.84295
4.84621
4.84952
4.85288
4.85626
4.85966
4.86305
4.86643
4.86977
4.87305
4.87626
4.87937
4.88236
4.8852
4.88788
4.89038
4.89266
4.89471
4.89652
4.89807
4.89918
4.90073
4.89922
5.03649
13.0027
11.4585
10.1645
9.07416
8.15434
7.38241
6.74261
6.22261
5.81055
5.49353
5.25748
5.08789
4.97057
4.8925
4.84259
4.81195
4.7939
4.78372
4.77823
4.77542
4.77407
4.7735
4.77333
4.77336
4.77349
4.77368
4.7739
4.77415
4.77442
4.77471
4.77503
4.77537
4.77573
4.77611
4.77652
4.77696
4.77743
4.77792
4.77845
4.77901
4.7796
4.78023
4.7809
4.7816
4.78235
4.78315
4.78399
4.78488
4.78582
4.78681
4.78786
4.78897
4.79014
4.79137
4.79268
4.79405
4.7955
4.79702
4.79862
4.80031
4.80208
4.80394
4.80588
4.80792
4.81006
4.81229
4.81462
4.81705
4.81957
4.8222
4.82492
4.82774
4.83066
4.83366
4.83675
4.83992
4.84316
4.84647
4.84983
4.85324
4.85668
4.86013
4.86358
4.86702
4.87042
4.87377
4.87704
4.88021
4.88326
4.88617
4.88891
4.89146
4.89379
4.89589
4.89774
4.89933
4.90046
4.90203
4.90183
5.1163
13.0027
11.4585
10.1645
9.07413
8.15432
7.38244
6.74279
6.22302
5.81122
5.49433
5.2582
5.0884
4.97086
4.89264
4.84262
4.81192
4.79384
4.78364
4.77814
4.77533
4.77399
4.77342
4.77325
4.77328
4.77341
4.7736
4.77382
4.77407
4.77434
4.77464
4.77495
4.77529
4.77565
4.77603
4.77644
4.77688
4.77734
4.77784
4.77836
4.77892
4.77952
4.78015
4.78081
4.78152
4.78227
4.78306
4.7839
4.78479
4.78573
4.78673
4.78778
4.78889
4.79006
4.7913
4.7926
4.79398
4.79543
4.79695
4.79856
4.80025
4.80203
4.80389
4.80585
4.8079
4.81004
4.81229
4.81463
4.81708
4.81962
4.82227
4.82501
4.82786
4.8308
4.83384
4.83696
4.84017
4.84345
4.8468
4.85021
4.85367
4.85716
4.86067
4.86418
4.86768
4.87115
4.87456
4.8779
4.88114
4.88426
4.88724
4.89004
4.89265
4.89505
4.89721
4.8991
4.90073
4.90189
4.90351
4.90463
5.19793
13.0027
11.4585
10.1645
9.07413
8.15435
7.38256
6.74309
6.22361
5.81212
5.49537
5.25915
5.08908
4.97126
4.89283
4.84269
4.81191
4.79379
4.78357
4.77806
4.77524
4.77389
4.77332
4.77315
4.77319
4.77332
4.77351
4.77373
4.77398
4.77425
4.77455
4.77486
4.7752
4.77556
4.77594
4.77635
4.77679
4.77726
4.77775
4.77828
4.77883
4.77943
4.78006
4.78073
4.78143
4.78218
4.78298
4.78382
4.78471
4.78565
4.78665
4.7877
4.78881
4.78999
4.79123
4.79254
4.79392
4.79537
4.79691
4.79852
4.80022
4.802
4.80388
4.80585
4.80791
4.81007
4.81233
4.81469
4.81716
4.81973
4.8224
4.82517
4.82805
4.83102
4.83409
4.83726
4.84051
4.84384
4.84724
4.8507
4.85421
4.85776
4.86133
4.86491
4.86848
4.87202
4.8755
4.87891
4.88223
4.88542
4.88846
4.89134
4.89401
4.89647
4.89868
4.90062
4.9023
4.90349
4.90516
4.90763
5.28122
13.0027
11.4585
10.1645
9.07416
8.15441
7.38273
6.74348
6.22433
5.81317
5.49659
5.26025
5.08987
4.97174
4.89308
4.84278
4.81192
4.79374
4.78349
4.77797
4.77514
4.77379
4.77322
4.77305
4.77308
4.77322
4.77341
4.77363
4.77388
4.77415
4.77445
4.77476
4.7751
4.77546
4.77584
4.77625
4.77669
4.77716
4.77765
4.77818
4.77874
4.77933
4.77996
4.78063
4.78133
4.78208
4.78288
4.78372
4.78461
4.78556
4.78656
4.78761
4.78873
4.78991
4.79115
4.79246
4.79385
4.79531
4.79685
4.79848
4.80018
4.80198
4.80387
4.80585
4.80793
4.81011
4.81239
4.81477
4.81726
4.81986
4.82256
4.82536
4.82828
4.83129
4.83441
4.83761
4.84091
4.8443
4.84776
4.85128
4.85486
4.85847
4.86212
4.86577
4.86942
4.87303
4.8766
4.88009
4.88349
4.88676
4.88989
4.89284
4.89559
4.89811
4.90039
4.90239
4.90412
4.90534
4.90706
4.91089
5.36619
13.0027
11.4585
10.1646
9.0742
8.1545
7.38296
6.74395
6.22516
5.81439
5.49799
5.26151
5.09079
4.97229
4.89337
4.84291
4.81194
4.7937
4.78341
4.77787
4.77504
4.77368
4.77311
4.77294
4.77297
4.77311
4.7733
4.77352
4.77377
4.77404
4.77434
4.77465
4.77499
4.77535
4.77573
4.77614
4.77658
4.77704
4.77754
4.77806
4.77862
4.77922
4.77985
4.78051
4.78122
4.78198
4.78277
4.78361
4.78451
4.78545
4.78645
4.78751
4.78863
4.78981
4.79106
4.79238
4.79378
4.79525
4.79679
4.79843
4.80015
4.80195
4.80386
4.80585
4.80795
4.81015
4.81245
4.81486
4.81738
4.82
4.82274
4.82558
4.82853
4.83159
4.83475
4.83802
4.84137
4.84482
4.84834
4.85193
4.85559
4.85928
4.86301
4.86675
4.87048
4.87419
4.87785
4.88144
4.88493
4.8883
4.89152
4.89456
4.8974
4.9
4.90235
4.90441
4.9062
4.90746
4.90924
4.91446
5.45288
13.0028
11.4586
10.1646
9.07425
8.15462
7.38322
6.74448
6.2261
5.81575
5.49955
5.26292
5.09181
4.97292
4.8937
4.84305
4.81197
4.79366
4.78334
4.77777
4.77492
4.77356
4.77299
4.77282
4.77285
4.77298
4.77317
4.7734
4.77365
4.77392
4.77421
4.77453
4.77487
4.77523
4.77561
4.77602
4.77646
4.77692
4.77741
4.77794
4.7785
4.77909
4.77972
4.78039
4.7811
4.78185
4.78265
4.7835
4.78439
4.78534
4.78634
4.7874
4.78852
4.78971
4.79097
4.79229
4.79369
4.79517
4.79673
4.79837
4.8001
4.80192
4.80384
4.80585
4.80797
4.81019
4.81252
4.81495
4.8175
4.82016
4.82293
4.82582
4.82882
4.83192
4.83514
4.83846
4.84188
4.8454
4.84899
4.85267
4.8564
4.86019
4.86401
4.86785
4.87168
4.87549
4.87926
4.88296
4.88656
4.89003
4.89336
4.8965
4.89944
4.90214
4.90457
4.90671
4.90857
4.90987
4.91172
4.91834
5.54137
13.0028
11.4586
10.1646
9.07431
8.15476
7.38352
6.74508
6.22714
5.81725
5.50127
5.26447
5.09294
4.97362
4.89408
4.84322
4.812
4.79363
4.78326
4.77767
4.77481
4.77344
4.77286
4.77269
4.77272
4.77285
4.77304
4.77327
4.77352
4.77379
4.77408
4.7744
4.77473
4.77509
4.77548
4.77588
4.77632
4.77679
4.77728
4.77781
4.77836
4.77896
4.77959
4.78026
4.78097
4.78172
4.78252
4.78336
4.78426
4.78521
4.78622
4.78728
4.78841
4.7896
4.79086
4.79219
4.7936
4.79508
4.79665
4.7983
4.80005
4.80189
4.80382
4.80585
4.80799
4.81023
4.81259
4.81505
4.81763
4.82033
4.82314
4.82608
4.82912
4.83229
4.83556
4.83895
4.84244
4.84603
4.84971
4.85347
4.8573
4.86119
4.86512
4.86906
4.87301
4.87695
4.88083
4.88465
4.88838
4.89198
4.89542
4.89869
4.90173
4.90454
4.90707
4.9093
4.91123
4.91259
4.91451
4.92257
5.63175
13.0028
11.4586
10.1647
9.07438
8.15491
7.38385
6.74574
6.22828
5.81888
5.50314
5.26616
5.09417
4.97438
4.89449
4.84341
4.81205
4.79359
4.78317
4.77756
4.77468
4.77331
4.77272
4.77255
4.77258
4.77271
4.7729
4.77313
4.77338
4.77365
4.77394
4.77425
4.77459
4.77495
4.77533
4.77574
4.77618
4.77664
4.77713
4.77766
4.77822
4.77881
4.77944
4.78011
4.78082
4.78157
4.78237
4.78322
4.78412
4.78507
4.78608
4.78715
4.78828
4.78947
4.79074
4.79208
4.79349
4.79499
4.79657
4.79823
4.79999
4.80184
4.80379
4.80585
4.80801
4.81028
4.81266
4.81516
4.81778
4.82052
4.82337
4.82636
4.82946
4.83268
4.83603
4.83948
4.84306
4.84673
4.8505
4.85436
4.8583
4.86229
4.86634
4.87041
4.87449
4.87855
4.88258
4.88654
4.8904
4.89414
4.89772
4.90112
4.9043
4.90722
4.90986
4.91219
4.91421
4.91564
4.91764
4.92715
5.7241
13.0028
11.4586
10.1647
9.07445
8.15508
7.38421
6.74645
6.22951
5.82064
5.50515
5.26798
5.0955
4.97521
4.89494
4.84361
4.81211
4.79356
4.78309
4.77744
4.77455
4.77317
4.77258
4.7724
4.77243
4.77256
4.77275
4.77297
4.77322
4.77349
4.77379
4.7741
4.77444
4.77479
4.77518
4.77558
4.77602
4.77648
4.77698
4.7775
4.77806
4.77865
4.77928
4.77995
4.78066
4.78142
4.78222
4.78307
4.78397
4.78492
4.78593
4.787
4.78814
4.78934
4.79061
4.79196
4.79338
4.79488
4.79647
4.79815
4.79992
4.80179
4.80376
4.80584
4.80803
4.81032
4.81274
4.81527
4.81793
4.82071
4.82362
4.82665
4.82982
4.83311
4.83652
4.84006
4.84372
4.84749
4.85136
4.85533
4.85938
4.8635
4.86767
4.87188
4.87611
4.88032
4.8845
4.88861
4.89263
4.89653
4.90027
4.90382
4.90714
4.9102
4.91297
4.91541
4.91754
4.91904
4.92113
4.93212
5.81854
13.0028
11.4586
10.1647
9.07454
8.15526
7.3846
6.74721
6.23082
5.82252
5.5073
5.26992
5.09693
4.97609
4.89543
4.84384
4.81217
4.79352
4.783
4.77732
4.77441
4.77302
4.77243
4.77225
4.77227
4.7724
4.77259
4.77281
4.77306
4.77333
4.77362
4.77394
4.77427
4.77463
4.77501
4.77542
4.77585
4.77632
4.77681
4.77733
4.77789
4.77848
4.77911
4.77978
4.7805
4.78125
4.78205
4.7829
4.7838
4.78476
4.78577
4.78685
4.78799
4.78919
4.79047
4.79182
4.79326
4.79477
4.79637
4.79806
4.79985
4.80174
4.80373
4.80583
4.80804
4.81037
4.81282
4.81539
4.81809
4.82092
4.82388
4.82697
4.8302
4.83356
4.83706
4.84068
4.84443
4.8483
4.85229
4.85638
4.86056
4.86481
4.86913
4.87349
4.87788
4.88226
4.8866
4.89089
4.89509
4.89917
4.90308
4.9068
4.91029
4.91351
4.91642
4.91899
4.92123
4.92282
4.92501
4.93751
5.91516
13.0028
11.4587
10.1648
9.07463
8.15545
7.38502
6.74803
6.23221
5.82451
5.50958
5.27198
5.09844
4.97703
4.89594
4.84408
4.81224
4.79349
4.78291
4.7772
4.77427
4.77286
4.77227
4.77208
4.77211
4.77224
4.77242
4.77265
4.77289
4.77316
4.77345
4.77376
4.7741
4.77446
4.77484
4.77524
4.77568
4.77614
4.77663
4.77715
4.77771
4.7783
4.77893
4.7796
4.78032
4.78107
4.78187
4.78272
4.78363
4.78459
4.7856
4.78668
4.78782
4.78904
4.79032
4.79168
4.79312
4.79465
4.79626
4.79797
4.79977
4.80168
4.80369
4.80581
4.80805
4.81041
4.8129
4.81551
4.81825
4.82113
4.82415
4.82731
4.83061
4.83405
4.83763
4.84135
4.8452
4.84918
4.85329
4.85751
4.86183
4.86624
4.87071
4.87524
4.8798
4.88437
4.88891
4.89339
4.89779
4.90207
4.90618
4.91009
4.91376
4.91716
4.92023
4.92295
4.92532
4.92701
4.92931
4.94336
6.0141
13.0028
11.4587
10.1648
9.07472
8.15566
7.38546
6.74889
6.23369
5.82662
5.51199
5.27416
5.10004
4.97803
4.89649
4.84434
4.81232
4.79346
4.78282
4.77707
4.77412
4.7727
4.7721
4.77191
4.77193
4.77206
4.77225
4.77247
4.77272
4.77298
4.77327
4.77358
4.77392
4.77427
4.77465
4.77506
4.77549
4.77595
4.77644
4.77697
4.77752
4.77812
4.77874
4.77941
4.78013
4.78088
4.78168
4.78254
4.78344
4.7844
4.78542
4.7865
4.78765
4.78887
4.79016
4.79153
4.79298
4.79451
4.79614
4.79786
4.79968
4.80161
4.80364
4.80579
4.80806
4.81045
4.81298
4.81563
4.81843
4.82136
4.82444
4.82766
4.83104
4.83456
4.83823
4.84205
4.84602
4.85012
4.85436
4.85872
4.8632
4.86777
4.87243
4.87714
4.8819
4.88667
4.89142
4.89612
4.90074
4.90524
4.90958
4.91371
4.91759
4.92118
4.92444
4.92732
4.92984
4.93164
4.93407
4.94969
6.11546
13.0028
11.4587
10.1649
9.07482
8.15588
7.38592
6.74979
6.23524
5.82883
5.51452
5.27645
5.10172
4.97908
4.89707
4.84461
4.81241
4.79343
4.78272
4.77693
4.77396
4.77254
4.77192
4.77173
4.77175
4.77188
4.77206
4.77228
4.77253
4.7728
4.77309
4.77339
4.77373
4.77408
4.77446
4.77486
4.7753
4.77576
4.77625
4.77677
4.77732
4.77792
4.77854
4.77921
4.77992
4.78068
4.78148
4.78234
4.78324
4.78421
4.78523
4.78631
4.78747
4.78869
4.78999
4.79136
4.79282
4.79437
4.79601
4.79774
4.79958
4.80153
4.80359
4.80576
4.80806
4.81049
4.81305
4.81576
4.8186
4.82159
4.82473
4.82803
4.83149
4.8351
4.83887
4.8428
4.84689
4.85112
4.85551
4.86002
4.86467
4.86942
4.87427
4.87919
4.88416
4.88916
4.89415
4.8991
4.90396
4.90871
4.9133
4.91767
4.92179
4.92561
4.92908
4.93215
4.93484
4.93677
4.93934
4.95657
6.2194
13.0028
11.4587
10.1649
9.07493
8.15611
7.38641
6.75074
6.23685
5.83114
5.51716
5.27885
5.10348
4.98018
4.89768
4.8449
4.8125
4.7934
4.78262
4.7768
4.7738
4.77236
4.77174
4.77155
4.77156
4.77169
4.77187
4.77209
4.77234
4.7726
4.77289
4.7732
4.77353
4.77388
4.77426
4.77466
4.77509
4.77555
4.77604
4.77656
4.77712
4.77771
4.77833
4.779
4.77971
4.78047
4.78127
4.78213
4.78304
4.784
4.78502
4.78611
4.78727
4.7885
4.7898
4.79119
4.79265
4.79421
4.79586
4.79762
4.79947
4.80144
4.80352
4.80573
4.80806
4.81053
4.81313
4.81588
4.81878
4.82183
4.82504
4.82842
4.83196
4.83566
4.83954
4.84359
4.84781
4.85219
4.85672
4.86141
4.86624
4.87119
4.87625
4.8814
4.88661
4.89186
4.89711
4.90233
4.90747
4.9125
4.91737
4.92202
4.92641
4.93048
4.93419
4.93748
4.94036
4.94244
4.94516
4.96403
6.32605
13.0029
11.4588
10.165
9.07504
8.15635
7.38692
6.75172
6.23853
5.83354
5.51991
5.28134
5.10532
4.98133
4.89832
4.84521
4.81259
4.79337
4.78252
4.77665
4.77364
4.77218
4.77156
4.77136
4.77137
4.77149
4.77168
4.77189
4.77214
4.7724
4.77269
4.77299
4.77332
4.77367
4.77405
4.77445
4.77488
4.77534
4.77582
4.77634
4.7769
4.77749
4.77811
4.77878
4.77949
4.78025
4.78105
4.78191
4.78282
4.78378
4.78481
4.7859
4.78706
4.7883
4.78961
4.791
4.79247
4.79404
4.79571
4.79748
4.79935
4.80134
4.80345
4.80569
4.80805
4.81055
4.8132
4.816
4.81896
4.82207
4.82536
4.82881
4.83244
4.83625
4.84025
4.84442
4.84877
4.85331
4.85801
4.86288
4.86791
4.87308
4.87837
4.88377
4.88925
4.89477
4.90032
4.90583
4.91129
4.91663
4.92181
4.92678
4.93147
4.93584
4.93982
4.94335
4.94645
4.9487
4.9516
4.97215
6.43555
13.0029
11.4588
10.165
9.07515
8.1566
7.38744
6.75274
6.24028
5.83604
5.52276
5.28393
5.10722
4.98253
4.89899
4.84552
4.81269
4.79335
4.78242
4.77651
4.77346
4.772
4.77136
4.77116
4.77117
4.77129
4.77147
4.77169
4.77193
4.77219
4.77247
4.77278
4.77311
4.77346
4.77383
4.77423
4.77466
4.77511
4.7756
4.77612
4.77667
4.77726
4.77789
4.77855
4.77926
4.78002
4.78082
4.78168
4.78259
4.78355
4.78458
4.78568
4.78684
4.78808
4.7894
4.7908
4.79228
4.79387
4.79554
4.79733
4.79922
4.80123
4.80337
4.80563
4.80803
4.81058
4.81327
4.81612
4.81913
4.82232
4.82568
4.82922
4.83295
4.83687
4.84098
4.84529
4.84979
4.85449
4.85938
4.86445
4.86969
4.8751
4.88064
4.88631
4.89208
4.89791
4.90378
4.90963
4.91544
4.92113
4.92667
4.93199
4.93702
4.94172
4.94601
4.94982
4.95318
4.95562
4.95872
4.98099
6.54809
13.0029
11.4588
10.1651
9.07527
8.15685
7.38799
6.7538
6.24208
5.83861
5.52571
5.2866
5.1092
4.98377
4.89968
4.84586
4.8128
4.79332
4.78231
4.77636
4.77329
4.77181
4.77116
4.77095
4.77096
4.77108
4.77126
4.77147
4.77171
4.77198
4.77226
4.77256
4.77289
4.77323
4.77361
4.77401
4.77443
4.77488
4.77537
4.77589
4.77644
4.77702
4.77765
4.77831
4.77902
4.77978
4.78058
4.78144
4.78235
4.78332
4.78435
4.78544
4.78661
4.78786
4.78918
4.79059
4.79208
4.79367
4.79537
4.79717
4.79908
4.80111
4.80328
4.80557
4.80801
4.81059
4.81333
4.81623
4.81931
4.82256
4.826
4.82964
4.83347
4.8375
4.84174
4.84619
4.85086
4.85573
4.86081
4.8661
4.87158
4.87724
4.88306
4.88903
4.89512
4.90129
4.90752
4.91375
4.91994
4.92603
4.93196
4.93768
4.94311
4.94818
4.95283
4.95696
4.9606
4.96327
4.9666
4.99063
6.66383
13.0029
11.4589
10.1652
9.07539
8.15712
7.38854
6.75488
6.24393
5.84126
5.52875
5.28936
5.11123
4.98505
4.90039
4.8462
4.81292
4.7933
4.7822
4.7762
4.77311
4.77161
4.77096
4.77075
4.77075
4.77087
4.77104
4.77126
4.77149
4.77175
4.77203
4.77234
4.77266
4.77301
4.77338
4.77377
4.7742
4.77465
4.77513
4.77564
4.77619
4.77678
4.7774
4.77807
4.77877
4.77953
4.78033
4.78118
4.7821
4.78307
4.7841
4.7852
4.78637
4.78762
4.78895
4.79036
4.79187
4.79347
4.79518
4.79699
4.79893
4.80098
4.80317
4.8055
4.80797
4.81059
4.81338
4.81634
4.81948
4.82281
4.82633
4.83006
4.83399
4.83815
4.84253
4.84713
4.85196
4.85703
4.86232
4.86784
4.87357
4.87951
4.88564
4.89194
4.89838
4.90493
4.91155
4.9182
4.92482
4.93135
4.93774
4.94391
4.94978
4.95528
4.96033
4.96484
4.96881
4.97175
4.97533
5.00117
6.78295
13.0029
11.4589
10.1652
9.07552
8.15739
7.38912
6.756
6.24583
5.84397
5.53186
5.29219
5.11333
4.98637
4.90113
4.84656
4.81304
4.79327
4.7821
4.77605
4.77293
4.77141
4.77075
4.77053
4.77054
4.77065
4.77082
4.77103
4.77127
4.77153
4.77181
4.77211
4.77243
4.77277
4.77314
4.77353
4.77395
4.7744
4.77488
4.7754
4.77594
4.77653
4.77715
4.77781
4.77852
4.77927
4.78007
4.78092
4.78184
4.78281
4.78384
4.78494
4.78612
4.78737
4.7887
4.79012
4.79164
4.79325
4.79497
4.79681
4.79876
4.80084
4.80305
4.80541
4.80792
4.81059
4.81342
4.81644
4.81965
4.82305
4.82666
4.83048
4.83453
4.83881
4.84333
4.8481
4.85311
4.85838
4.8639
4.86967
4.87568
4.88192
4.88838
4.89503
4.90186
4.90883
4.91589
4.923
4.93011
4.93714
4.94404
4.95072
4.9571
4.9631
4.96861
4.97354
4.9779
4.98114
4.98503
5.01272
6.90567
13.0029
11.4589
10.1653
9.07564
8.15767
7.38971
6.75714
6.24778
5.84676
5.53505
5.2951
5.11547
4.98773
4.90189
4.84693
4.81316
4.79325
4.78199
4.77589
4.77274
4.77121
4.77054
4.77032
4.77031
4.77043
4.7706
4.77081
4.77104
4.7713
4.77157
4.77187
4.77219
4.77253
4.7729
4.77329
4.77371
4.77415
4.77463
4.77514
4.77569
4.77627
4.77689
4.77755
4.77825
4.779
4.7798
4.78066
4.78157
4.78254
4.78357
4.78468
4.78585
4.78711
4.78845
4.78988
4.7914
4.79302
4.79476
4.79661
4.79858
4.80068
4.80292
4.80531
4.80785
4.81057
4.81346
4.81653
4.8198
4.82329
4.82698
4.83091
4.83508
4.83949
4.84416
4.8491
4.85431
4.85979
4.86555
4.87158
4.87789
4.88446
4.89128
4.89833
4.90558
4.913
4.92056
4.92819
4.93584
4.94344
4.95092
4.95818
4.96514
4.97169
4.97775
4.98317
4.98798
4.99158
4.9958
5.02541
7.03217
13.0029
11.459
10.1653
9.07577
8.15795
7.3903
6.7583
6.24976
5.84959
5.53831
5.29807
5.11767
4.98912
4.90267
4.84731
4.8133
4.79323
4.78188
4.77573
4.77255
4.771
4.77033
4.7701
4.77009
4.7702
4.77037
4.77057
4.77081
4.77106
4.77133
4.77163
4.77195
4.77228
4.77265
4.77304
4.77345
4.7739
4.77437
4.77488
4.77542
4.776
4.77662
4.77727
4.77798
4.77873
4.77952
4.78038
4.78129
4.78226
4.78329
4.7844
4.78558
4.78684
4.78818
4.78961
4.79115
4.79278
4.79453
4.79639
4.79838
4.8005
4.80277
4.80519
4.80777
4.81053
4.81347
4.81661
4.81995
4.82351
4.8273
4.83134
4.83562
4.84018
4.84501
4.85012
4.85553
4.86124
4.86726
4.87358
4.88021
4.88714
4.89435
4.90182
4.90954
4.91747
4.92557
4.93378
4.94204
4.95028
4.95841
4.96634
4.97396
4.98117
4.98784
4.99384
4.99917
5.00319
5.00781
5.03939
7.16271
13.003
11.459
10.1654
9.0759
8.15824
7.39091
6.75948
6.25178
5.85248
5.54163
5.30109
5.11992
4.99054
4.90347
4.8477
4.81343
4.79321
4.78177
4.77557
4.77236
4.7708
4.77011
4.76987
4.76986
4.76997
4.77014
4.77034
4.77057
4.77082
4.77109
4.77138
4.7717
4.77204
4.7724
4.77278
4.7732
4.77364
4.77411
4.77461
4.77515
4.77573
4.77634
4.777
4.7777
4.77844
4.77924
4.78009
4.781
4.78197
4.783
4.78411
4.78529
4.78655
4.7879
4.78934
4.79088
4.79252
4.79428
4.79616
4.79817
4.80031
4.80261
4.80506
4.80768
4.81048
4.81347
4.81667
4.82008
4.82373
4.82761
4.83175
4.83617
4.84087
4.84586
4.85117
4.85679
4.86274
4.86903
4.87566
4.88264
4.88995
4.89758
4.90553
4.91376
4.92225
4.93095
4.93981
4.94876
4.95771
4.96659
4.97528
4.98367
4.99162
4.99902
5.00568
5.01162
5.01614
5.02123
5.05483
7.29751
13.003
11.459
10.1655
9.07604
8.15853
7.39153
6.76067
6.25382
5.85541
5.545
5.30417
5.1222
4.99198
4.90429
4.84811
4.81358
4.7932
4.78166
4.77541
4.77217
4.77059
4.76989
4.76964
4.76963
4.76974
4.7699
4.7701
4.77033
4.77058
4.77085
4.77114
4.77145
4.77178
4.77214
4.77252
4.77293
4.77337
4.77384
4.77434
4.77488
4.77545
4.77606
4.77671
4.77741
4.77815
4.77895
4.7798
4.7807
4.78167
4.78271
4.78381
4.78499
4.78626
4.78761
4.78905
4.7906
4.79225
4.79402
4.79591
4.79794
4.80011
4.80243
4.80491
4.80757
4.81041
4.81346
4.81671
4.8202
4.82392
4.82791
4.83216
4.83671
4.84156
4.84672
4.85222
4.85807
4.86428
4.87087
4.87783
4.88517
4.89289
4.90099
4.90945
4.91825
4.92735
4.93672
4.9463
4.95602
4.96579
4.97552
4.98508
4.99434
5.00317
5.0114
5.01886
5.02552
5.03063
5.03626
5.07197
7.43683
13.003
11.459
10.1655
9.07617
8.15882
7.39216
6.76189
6.2559
5.85838
5.54842
5.30729
5.12452
4.99346
4.90512
4.84852
4.81373
4.79319
4.78156
4.77524
4.77197
4.77037
4.76967
4.76942
4.7694
4.7695
4.76966
4.76986
4.77008
4.77033
4.7706
4.77088
4.77119
4.77152
4.77188
4.77226
4.77267
4.7731
4.77357
4.77406
4.7746
4.77516
4.77577
4.77642
4.77711
4.77786
4.77865
4.77949
4.7804
4.78137
4.7824
4.7835
4.78469
4.78595
4.78731
4.78875
4.79031
4.79197
4.79375
4.79565
4.79769
4.79988
4.80223
4.80474
4.80743
4.81032
4.81342
4.81674
4.82029
4.82411
4.82819
4.83256
4.83724
4.84224
4.84759
4.85329
4.85938
4.86586
4.87275
4.88006
4.8878
4.89597
4.90456
4.91358
4.923
4.93278
4.9429
4.95329
4.96387
4.97457
4.98526
4.99582
5.00611
5.01594
5.02517
5.03355
5.04106
5.04688
5.05315
5.09105
7.58096
13.003
11.4591
10.1656
9.07631
8.15912
7.39279
6.76311
6.25799
5.86138
5.55187
5.31045
5.12687
4.99495
4.90597
4.84894
4.81388
4.79318
4.78145
4.77508
4.77178
4.77016
4.76944
4.76919
4.76917
4.76926
4.76942
4.76962
4.76984
4.77008
4.77035
4.77063
4.77094
4.77126
4.77162
4.77199
4.7724
4.77283
4.77329
4.77378
4.77431
4.77488
4.77548
4.77613
4.77682
4.77755
4.77834
4.77918
4.78009
4.78105
4.78208
4.78319
4.78437
4.78563
4.78699
4.78844
4.79
4.79167
4.79346
4.79537
4.79743
4.79964
4.80201
4.80455
4.80728
4.81021
4.81336
4.81674
4.82037
4.82426
4.82845
4.83293
4.83775
4.84291
4.84844
4.85436
4.8607
4.86746
4.87468
4.88236
4.89052
4.89917
4.90831
4.91793
4.92802
4.93856
4.94951
4.9608
4.97236
4.9841
4.9959
5.00762
5.01908
5.0301
5.04049
5.04997
5.05849
5.06517
5.07221
5.1124
7.73017
13.003
11.4591
10.1657
9.07644
8.15942
7.39342
6.76434
6.26009
5.86441
5.55536
5.31364
5.12925
4.99647
4.90683
4.84937
4.81404
4.79317
4.78134
4.77492
4.77158
4.76995
4.76922
4.76896
4.76893
4.76902
4.76918
4.76937
4.76959
4.76983
4.77009
4.77038
4.77068
4.771
4.77135
4.77172
4.77212
4.77255
4.77301
4.7735
4.77402
4.77458
4.77518
4.77582
4.77651
4.77724
4.77803
4.77887
4.77977
4.78073
4.78176
4.78286
4.78404
4.78531
4.78666
4.78812
4.78968
4.79135
4.79315
4.79508
4.79715
4.79938
4.80177
4.80434
4.8071
4.81008
4.81327
4.81671
4.82041
4.8244
4.82868
4.83329
4.83824
4.84357
4.84929
4.85543
4.86202
4.86908
4.87664
4.88471
4.89333
4.90249
4.91221
4.92249
4.93333
4.9447
4.95656
4.96886
4.98153
4.99446
5.00753
5.02057
5.03341
5.04583
5.05758
5.06838
5.07812
5.08582
5.09379
5.13638
7.88478
13.003
11.4591
10.1657
9.07658
8.15972
7.39406
6.76558
6.26221
5.86745
5.55887
5.31686
5.13165
4.998
4.9077
4.84981
4.8142
4.79317
4.78124
4.77476
4.77139
4.76973
4.76899
4.76872
4.76869
4.76878
4.76894
4.76913
4.76935
4.76958
4.76984
4.77012
4.77042
4.77074
4.77108
4.77145
4.77185
4.77227
4.77273
4.77321
4.77373
4.77429
4.77488
4.77552
4.7762
4.77693
4.77771
4.77855
4.77944
4.7804
4.78142
4.78252
4.7837
4.78497
4.78632
4.78778
4.78934
4.79102
4.79283
4.79477
4.79685
4.79909
4.80151
4.8041
4.8069
4.80991
4.81316
4.81666
4.82043
4.8245
4.82888
4.83361
4.8387
4.8442
4.85011
4.85648
4.86334
4.87071
4.87863
4.88712
4.89621
4.90592
4.91627
4.92727
4.93891
4.95119
4.96408
4.97751
4.99142
5.0057
5.02023
5.03481
5.04926
5.06331
5.07671
5.08907
5.10029
5.10925
5.11835
5.16348
8.04513
13.003
11.4592
10.1658
9.07672
8.16002
7.3947
6.76682
6.26434
5.8705
5.56239
5.32009
5.13406
4.99955
4.90859
4.85026
4.81437
4.79317
4.78114
4.7746
4.77119
4.76952
4.76877
4.76849
4.76846
4.76855
4.7687
4.76888
4.7691
4.76933
4.76959
4.76986
4.77016
4.77047
4.77082
4.77118
4.77157
4.77199
4.77244
4.77292
4.77344
4.77399
4.77458
4.77521
4.77589
4.77661
4.77739
4.77822
4.77911
4.78006
4.78108
4.78218
4.78336
4.78462
4.78598
4.78743
4.789
4.79068
4.79249
4.79444
4.79653
4.79879
4.80122
4.80384
4.80667
4.80973
4.81302
4.81658
4.82042
4.82457
4.82905
4.8339
4.83913
4.84479
4.85091
4.85751
4.86464
4.87233
4.88063
4.88955
4.89915
4.90945
4.92047
4.93224
4.94477
4.95805
4.97207
4.98676
5.00208
5.0179
5.0341
5.05048
5.06681
5.0828
5.09815
5.11242
5.12543
5.13594
5.14643
5.19427
8.21154
13.0031
11.4592
10.1658
9.07685
8.16032
7.39534
6.76806
6.26646
5.87355
5.56592
5.32333
5.13649
5.0011
4.90948
4.85071
4.81455
4.79317
4.78104
4.77444
4.771
4.76931
4.76854
4.76826
4.76822
4.76831
4.76845
4.76864
4.76885
4.76908
4.76933
4.7696
4.7699
4.77021
4.77055
4.77091
4.7713
4.77171
4.77216
4.77263
4.77314
4.77369
4.77427
4.7749
4.77557
4.77629
4.77706
4.77788
4.77877
4.77972
4.78074
4.78183
4.783
4.78426
4.78561
4.78707
4.78863
4.79032
4.79213
4.79409
4.79619
4.79846
4.80091
4.80356
4.80642
4.80951
4.81285
4.81646
4.82037
4.8246
4.82918
4.83414
4.83952
4.84535
4.85167
4.85851
4.86592
4.87394
4.88262
4.89201
4.90214
4.91306
4.9248
4.93741
4.9509
4.96528
4.98054
4.99665
5.01355
5.03113
5.04925
5.06771
5.08626
5.10457
5.12227
5.13884
5.15406
5.1665
5.17871
5.22948
8.38439
13.0031
11.4592
10.1659
9.07699
8.16062
7.39598
6.7693
6.26858
5.8766
5.56945
5.32658
5.13893
5.00266
4.91038
4.85117
4.81473
4.79318
4.78095
4.77428
4.77081
4.7691
4.76832
4.76803
4.76799
4.76807
4.76821
4.7684
4.7686
4.76883
4.76908
4.76935
4.76964
4.76995
4.77028
4.77064
4.77102
4.77143
4.77187
4.77234
4.77284
4.77339
4.77396
4.77459
4.77525
4.77596
4.77673
4.77755
4.77843
4.77937
4.78038
4.78147
4.78264
4.78389
4.78524
4.7867
4.78826
4.78995
4.79176
4.79372
4.79583
4.79812
4.80058
4.80325
4.80613
4.80925
4.81264
4.8163
4.82027
4.82458
4.82926
4.83434
4.83986
4.84586
4.85238
4.85946
4.86716
4.87552
4.8846
4.89446
4.90515
4.91673
4.92924
4.94274
4.95727
4.97286
4.9895
5.00719
5.02587
5.04545
5.06579
5.08668
5.10785
5.12891
5.14946
5.16887
5.18681
5.20168
5.21605
5.27004
8.56405
13.0031
11.4593
10.166
9.07713
8.16092
7.39661
6.77053
6.27069
5.87965
5.57298
5.32983
5.14136
5.00423
4.91128
4.85163
4.81491
4.79319
4.78086
4.77413
4.77062
4.76889
4.7681
4.76781
4.76776
4.76783
4.76797
4.76815
4.76836
4.76858
4.76883
4.76909
4.76938
4.76968
4.77001
4.77036
4.77074
4.77115
4.77158
4.77205
4.77255
4.77308
4.77366
4.77427
4.77493
4.77563
4.77639
4.77721
4.77808
4.77901
4.78002
4.7811
4.78226
4.78352
4.78486
4.78631
4.78787
4.78956
4.79137
4.79334
4.79545
4.79775
4.80023
4.80291
4.80582
4.80897
4.81239
4.8161
4.82014
4.82452
4.8293
4.83449
4.84014
4.84631
4.85303
4.86035
4.86834
4.87705
4.88654
4.89689
4.90816
4.92043
4.93376
4.94822
4.96388
4.98077
4.99893
5.01837
5.03906
5.06093
5.08383
5.10756
5.13182
5.1562
5.1802
5.20311
5.22446
5.24241
5.25954
5.31714
8.75092
13.0031
11.4593
10.166
9.07726
8.16122
7.39724
6.77176
6.27279
5.88267
5.57648
5.33306
5.1438
5.0058
4.91219
4.8521
4.8151
4.79321
4.78077
4.77398
4.77044
4.76868
4.76788
4.76758
4.76753
4.7676
4.76774
4.76791
4.76811
4.76834
4.76858
4.76884
4.76912
4.76942
4.76974
4.77009
4.77046
4.77087
4.77129
4.77175
4.77225
4.77278
4.77334
4.77395
4.7746
4.7753
4.77606
4.77686
4.77773
4.77866
4.77965
4.78073
4.78188
4.78313
4.78447
4.78591
4.78747
4.78915
4.79097
4.79293
4.79506
4.79735
4.79984
4.80254
4.80547
4.80865
4.8121
4.81586
4.81995
4.82441
4.82927
4.83457
4.84036
4.84669
4.8536
4.86117
4.86945
4.8785
4.88842
4.89928
4.91115
4.92414
4.93833
4.95381
4.97067
4.98899
5.00882
5.03021
5.05316
5.07762
5.10347
5.13052