/*--------------------------------*- C++ -*----------------------------------*\
| =========                 |                                                 |
| \\      /  F ield         | OpenFOAM: The Open Source CFD Toolbox           |
|  \\    /   O peration     | Version:  4.1                                   |
|   \\  /    A nd           | Web:      www.OpenFOAM.org                      |
|    \\/     M anipulation  |                                                 |
\*---------------------------------------------------------------------------*/
FoamFile
{
    version     2.0;
    format      ascii;
    class       volScalarField;
    location    "0.02";
    object      k;
}
// * * * * * * * * * * * * * * * * * * * * * * * * * * * * * * * * * * * * * //

dimensions      [0 2 -2 0 0 0 0];

internalField   nonuniform List<scalar> 
43750
(
0.384095
0.39292
0.40142
0.409508
0.417063
0.423941
0.429971
0.434992
0.438907
0.441714
0.443498
0.444397
0.444581
0.444223
0.443474
0.442456
0.441264
0.439964
0.438601
0.437201
0.435779
0.434341
0.432892
0.431432
0.429961
0.428479
0.426984
0.425477
0.423955
0.422419
0.420866
0.419297
0.41771
0.416105
0.41448
0.412835
0.411168
0.409478
0.407766
0.406029
0.404267
0.402479
0.400664
0.398821
0.39695
0.395048
0.393116
0.391152
0.389156
0.387127
0.385063
0.382964
0.38083
0.378659
0.376451
0.374205
0.37192
0.369596
0.367232
0.364828
0.362383
0.359896
0.357369
0.354799
0.352188
0.349535
0.346841
0.344104
0.341326
0.338508
0.335649
0.33275
0.329812
0.326836
0.323824
0.320776
0.317694
0.314579
0.311433
0.308259
0.305058
0.301832
0.298584
0.295317
0.292032
0.288733
0.285424
0.282106
0.278783
0.275459
0.272137
0.26882
0.265512
0.262218
0.25894
0.255686
0.252462
0.249284
0.246208
0.244238
0.349407
0.327134
0.30779
0.291022
0.276616
0.264454
0.25444
0.246398
0.240058
0.235115
0.231303
0.22842
0.226306
0.224822
0.223828
0.223191
0.222794
0.222551
0.222402
0.222313
0.222258
0.222225
0.222205
0.222194
0.222189
0.22219
0.222195
0.222203
0.222216
0.222232
0.222252
0.222275
0.222301
0.222331
0.222364
0.2224
0.22244
0.222482
0.222527
0.222575
0.222626
0.222679
0.222735
0.222793
0.222854
0.222916
0.222981
0.223048
0.223116
0.223186
0.223258
0.22333
0.223403
0.223477
0.223551
0.223626
0.2237
0.223773
0.223846
0.223917
0.223987
0.224054
0.224119
0.22418
0.224238
0.224292
0.224341
0.224385
0.224422
0.224454
0.224477
0.224493
0.224501
0.224499
0.224487
0.224465
0.224431
0.224386
0.224328
0.224257
0.224173
0.224074
0.223961
0.223833
0.22369
0.223531
0.223357
0.223168
0.222963
0.222743
0.222508
0.222258
0.221994
0.221717
0.221426
0.221124
0.220806
0.220521
0.2212
0.242979
0.349124
0.326238
0.305996
0.288081
0.272312
0.258613
0.246957
0.237311
0.229585
0.22361
0.21915
0.215926
0.213662
0.212114
0.211088
0.210433
0.210033
0.209801
0.209673
0.209607
0.209576
0.209564
0.209563
0.209568
0.209577
0.209588
0.209601
0.209615
0.209631
0.209648
0.209666
0.209686
0.209707
0.209729
0.209754
0.209779
0.209806
0.209835
0.209866
0.209898
0.209932
0.209968
0.210005
0.210045
0.210087
0.210131
0.210177
0.210225
0.210275
0.210328
0.210383
0.210441
0.210501
0.210564
0.21063
0.210698
0.210769
0.210843
0.21092
0.210999
0.211082
0.211167
0.211255
0.211347
0.211441
0.211538
0.211637
0.211739
0.211844
0.211951
0.212061
0.212172
0.212285
0.212399
0.212515
0.212632
0.212749
0.212866
0.212982
0.213098
0.213212
0.213324
0.213434
0.21354
0.213642
0.213739
0.213831
0.213916
0.213995
0.214066
0.214128
0.214182
0.214225
0.214259
0.214282
0.214294
0.214292
0.214327
0.215569
0.244874
0.349122
0.326231
0.305976
0.28804
0.272239
0.258497
0.246784
0.237064
0.229243
0.223154
0.218576
0.21525
0.212915
0.211331
0.210293
0.20964
0.209245
0.209016
0.20889
0.208825
0.208793
0.20878
0.208777
0.208779
0.208784
0.20879
0.208798
0.208806
0.208816
0.208825
0.208836
0.208848
0.20886
0.208873
0.208887
0.208902
0.208918
0.208935
0.208953
0.208972
0.208992
0.209013
0.209036
0.20906
0.209086
0.209113
0.209141
0.209172
0.209204
0.209237
0.209273
0.209311
0.20935
0.209392
0.209436
0.209483
0.209531
0.209583
0.209637
0.209694
0.209753
0.209815
0.209881
0.209949
0.210021
0.210095
0.210173
0.210254
0.210338
0.210425
0.210515
0.210608
0.210705
0.210804
0.210905
0.21101
0.211116
0.211224
0.211334
0.211445
0.211557
0.211669
0.21178
0.211891
0.212001
0.212108
0.212212
0.212313
0.21241
0.212501
0.212587
0.212666
0.212739
0.212803
0.212858
0.212905
0.212939
0.213011
0.214391
0.247352
0.349122
0.326231
0.305974
0.288036
0.272233
0.25849
0.246778
0.237061
0.229243
0.223154
0.21857
0.215233
0.212888
0.211296
0.210254
0.209598
0.209202
0.208974
0.208848
0.208782
0.20875
0.208737
0.208734
0.208736
0.20874
0.208746
0.208753
0.208761
0.208769
0.208779
0.208788
0.208799
0.20881
0.208822
0.208835
0.208849
0.208864
0.208879
0.208896
0.208913
0.208932
0.208952
0.208973
0.208995
0.209019
0.209044
0.20907
0.209098
0.209128
0.209159
0.209192
0.209227
0.209263
0.209302
0.209343
0.209386
0.209432
0.20948
0.20953
0.209583
0.209638
0.209697
0.209758
0.209822
0.209888
0.209958
0.210031
0.210107
0.210186
0.210269
0.210354
0.210442
0.210533
0.210627
0.210723
0.210822
0.210923
0.211026
0.211131
0.211237
0.211344
0.211452
0.211559
0.211666
0.211772
0.211876
0.211977
0.212076
0.21217
0.21226
0.212345
0.212424
0.212496
0.212561
0.212618
0.212667
0.212702
0.212777
0.214227
0.249946
0.349122
0.326231
0.305973
0.288035
0.272233
0.258491
0.246783
0.237072
0.22926
0.223175
0.218587
0.215244
0.212892
0.211296
0.210251
0.209594
0.209198
0.208969
0.208843
0.208777
0.208746
0.208732
0.208729
0.208731
0.208735
0.208741
0.208748
0.208756
0.208765
0.208774
0.208783
0.208794
0.208805
0.208817
0.20883
0.208844
0.208858
0.208873
0.20889
0.208907
0.208926
0.208945
0.208966
0.208988
0.209011
0.209036
0.209062
0.20909
0.209119
0.20915
0.209183
0.209217
0.209254
0.209292
0.209333
0.209376
0.209421
0.209468
0.209518
0.209571
0.209626
0.209684
0.209745
0.209808
0.209875
0.209944
0.210017
0.210093
0.210171
0.210253
0.210338
0.210426
0.210517
0.210611
0.210707
0.210806
0.210907
0.21101
0.211115
0.211221
0.211329
0.211436
0.211544
0.211651
0.211758
0.211862
0.211964
0.212063
0.212158
0.212249
0.212335
0.212414
0.212487
0.212553
0.21261
0.21266
0.212696
0.212771
0.214283
0.252599
0.349122
0.326231
0.305973
0.288035
0.272233
0.258494
0.246791
0.237087
0.229282
0.2232
0.21861
0.21526
0.212902
0.2113
0.210252
0.209593
0.209196
0.208966
0.20884
0.208774
0.208743
0.20873
0.208726
0.208728
0.208733
0.208739
0.208746
0.208754
0.208762
0.208771
0.208781
0.208791
0.208803
0.208814
0.208827
0.208841
0.208855
0.208871
0.208887
0.208904
0.208923
0.208943
0.208963
0.208985
0.209009
0.209033
0.209059
0.209087
0.209116
0.209147
0.20918
0.209215
0.209251
0.20929
0.20933
0.209373
0.209418
0.209466
0.209516
0.209568
0.209624
0.209682
0.209742
0.209806
0.209873
0.209943
0.210016
0.210092
0.210171
0.210253
0.210339
0.210428
0.210519
0.210614
0.210711
0.210811
0.210913
0.211017
0.211123
0.211231
0.211339
0.211449
0.211558
0.211667
0.211775
0.211881
0.211985
0.212086
0.212183
0.212275
0.212362
0.212444
0.212518
0.212585
0.212644
0.212695
0.212731
0.212809
0.214382
0.255298
0.349123
0.326231
0.305974
0.288035
0.272235
0.258498
0.246801
0.237106
0.22931
0.223232
0.218639
0.215281
0.212914
0.211306
0.210254
0.209593
0.209194
0.208964
0.208837
0.208771
0.20874
0.208727
0.208724
0.208725
0.20873
0.208736
0.208743
0.208751
0.208759
0.208768
0.208778
0.208789
0.2088
0.208812
0.208825
0.208838
0.208853
0.208868
0.208884
0.208902
0.20892
0.20894
0.208961
0.208983
0.209006
0.209031
0.209057
0.209084
0.209114
0.209145
0.209178
0.209212
0.209249
0.209287
0.209328
0.209371
0.209416
0.209464
0.209514
0.209567
0.209623
0.209681
0.209742
0.209806
0.209874
0.209944
0.210018
0.210094
0.210174
0.210257
0.210344
0.210433
0.210526
0.210621
0.21072
0.210821
0.210924
0.21103
0.211138
0.211247
0.211357
0.211468
0.21158
0.211691
0.211801
0.211909
0.212015
0.212118
0.212217
0.212312
0.212401
0.212484
0.212561
0.212629
0.21269
0.212742
0.212779
0.212858
0.214494
0.258039
0.349123
0.326231
0.305974
0.288036
0.272238
0.258504
0.246814
0.237128
0.229343
0.22327
0.218673
0.215306
0.212929
0.211313
0.210257
0.209593
0.209193
0.208962
0.208834
0.208768
0.208737
0.208724
0.20872
0.208722
0.208727
0.208733
0.20874
0.208748
0.208756
0.208765
0.208775
0.208785
0.208797
0.208809
0.208821
0.208835
0.208849
0.208865
0.208881
0.208899
0.208917
0.208937
0.208957
0.208979
0.209003
0.209028
0.209054
0.209082
0.209111
0.209142
0.209175
0.20921
0.209246
0.209285
0.209326
0.209369
0.209414
0.209462
0.209513
0.209566
0.209622
0.209681
0.209742
0.209807
0.209875
0.209946
0.21002
0.210097
0.210178
0.210262
0.210349
0.21044
0.210534
0.210631
0.210731
0.210833
0.210938
0.211046
0.211155
0.211267
0.211379
0.211493
0.211606
0.211719
0.211832
0.211943
0.212051
0.212157
0.212259
0.212356
0.212447
0.212533
0.212611
0.212682
0.212744
0.212798
0.212836
0.212917
0.214615
0.26082
0.349123
0.326231
0.305975
0.288038
0.272241
0.258512
0.246829
0.237154
0.22938
0.223312
0.218711
0.215333
0.212945
0.211322
0.210261
0.209594
0.209191
0.208959
0.208831
0.208765
0.208733
0.20872
0.208717
0.208719
0.208723
0.208729
0.208736
0.208744
0.208753
0.208762
0.208772
0.208782
0.208793
0.208805
0.208818
0.208832
0.208846
0.208861
0.208878
0.208895
0.208914
0.208933
0.208954
0.208976
0.208999
0.209024
0.20905
0.209078
0.209108
0.209139
0.209172
0.209207
0.209243
0.209282
0.209323
0.209367
0.209412
0.209461
0.209511
0.209565
0.209621
0.20968
0.209742
0.209808
0.209876
0.209948
0.210023
0.210101
0.210183
0.210268
0.210356
0.210448
0.210543
0.210641
0.210743
0.210847
0.210954
0.211064
0.211176
0.211289
0.211404
0.21152
0.211636
0.211752
0.211868
0.211981
0.212093
0.212201
0.212306
0.212406
0.212501
0.212589
0.21267
0.212743
0.212807
0.212862
0.212902
0.212985
0.214746
0.263642
0.349123
0.326232
0.305976
0.288039
0.272245
0.25852
0.246845
0.237183
0.229421
0.223359
0.218753
0.215364
0.212964
0.211332
0.210265
0.209594
0.20919
0.208957
0.208828
0.208762
0.20873
0.208716
0.208713
0.208715
0.208719
0.208726
0.208733
0.20874
0.208749
0.208758
0.208768
0.208778
0.208789
0.208801
0.208814
0.208828
0.208842
0.208858
0.208874
0.208891
0.20891
0.208929
0.20895
0.208972
0.208996
0.20902
0.209047
0.209075
0.209104
0.209135
0.209168
0.209203
0.20924
0.209279
0.20932
0.209364
0.20941
0.209458
0.20951
0.209563
0.20962
0.20968
0.209742
0.209808
0.209877
0.20995
0.210026
0.210105
0.210187
0.210274
0.210363
0.210457
0.210553
0.210653
0.210757
0.210863
0.210972
0.211084
0.211198
0.211314
0.211432
0.211551
0.21167
0.211789
0.211908
0.212025
0.21214
0.212252
0.21236
0.212463
0.212561
0.212652
0.212736
0.212811
0.212878
0.212935
0.212976
0.213062
0.214886
0.266508
0.349123
0.326232
0.305976
0.288041
0.272249
0.25853
0.246864
0.237214
0.229466
0.22341
0.2188
0.215398
0.212985
0.211343
0.21027
0.209595
0.209189
0.208954
0.208825
0.208758
0.208726
0.208712
0.208709
0.208711
0.208715
0.208721
0.208728
0.208736
0.208745
0.208754
0.208764
0.208774
0.208785
0.208797
0.20881
0.208824
0.208838
0.208853
0.20887
0.208887
0.208906
0.208925
0.208946
0.208968
0.208991
0.209016
0.209043
0.209071
0.2091
0.209131
0.209165
0.2092
0.209237
0.209276
0.209317
0.209361
0.209407
0.209456
0.209508
0.209562
0.209619
0.209679
0.209742
0.209809
0.209879
0.209952
0.210029
0.210109
0.210193
0.21028
0.210371
0.210466
0.210565
0.210667
0.210772
0.21088
0.210992
0.211106
0.211223
0.211342
0.211463
0.211585
0.211708
0.211831
0.211953
0.212074
0.212192
0.212308
0.21242
0.212527
0.212628
0.212723
0.21281
0.212888
0.212958
0.213018
0.213061
0.213149
0.215037
0.269419
0.349123
0.326233
0.305977
0.288043
0.272254
0.25854
0.246884
0.237249
0.229515
0.223466
0.21885
0.215435
0.213008
0.211356
0.210275
0.209597
0.209187
0.208951
0.208822
0.208754
0.208722
0.208708
0.208705
0.208707
0.208711
0.208717
0.208724
0.208732
0.20874
0.208749
0.208759
0.20877
0.208781
0.208793
0.208805
0.208819
0.208833
0.208849
0.208865
0.208883
0.208901
0.208921
0.208941
0.208964
0.208987
0.209012
0.209038
0.209066
0.209096
0.209127
0.20916
0.209196
0.209233
0.209272
0.209314
0.209358
0.209404
0.209453
0.209505
0.20956
0.209618
0.209678
0.209742
0.209809
0.20988
0.209954
0.210032
0.210113
0.210198
0.210287
0.21038
0.210477
0.210577
0.210681
0.210788
0.210899
0.211014
0.211131
0.211251
0.211373
0.211497
0.211623
0.211749
0.211876
0.212002
0.212127
0.21225
0.21237
0.212487
0.212598
0.212703
0.212802
0.212893
0.212975
0.213047
0.21311
0.213155
0.213246
0.215199
0.272378
0.349124
0.326233
0.305978
0.288045
0.272259
0.258551
0.246906
0.237286
0.229567
0.223526
0.218904
0.215475
0.213033
0.211369
0.210281
0.209598
0.209186
0.208949
0.208818
0.20875
0.208717
0.208704
0.2087
0.208702
0.208706
0.208712
0.208719
0.208727
0.208736
0.208745
0.208754
0.208765
0.208776
0.208788
0.208801
0.208814
0.208829
0.208844
0.20886
0.208878
0.208896
0.208916
0.208937
0.208959
0.208982
0.209007
0.209033
0.209061
0.209091
0.209123
0.209156
0.209191
0.209229
0.209268
0.20931
0.209354
0.209401
0.209451
0.209503
0.209558
0.209616
0.209677
0.209742
0.20981
0.209881
0.209957
0.210035
0.210118
0.210204
0.210295
0.210389
0.210488
0.21059
0.210696
0.210806
0.21092
0.211037
0.211157
0.211281
0.211407
0.211535
0.211664
0.211795
0.211926
0.212057
0.212187
0.212315
0.21244
0.212561
0.212677
0.212787
0.21289
0.212985
0.213071
0.213147
0.213213
0.21326
0.213354
0.215373
0.275387
0.349124
0.326234
0.305979
0.288048
0.272265
0.258564
0.24693
0.237326
0.229623
0.22359
0.218962
0.215517
0.213059
0.211383
0.210288
0.2096
0.209185
0.208946
0.208814
0.208746
0.208713
0.208699
0.208695
0.208697
0.208701
0.208707
0.208714
0.208722
0.208731
0.20874
0.208749
0.20876
0.208771
0.208783
0.208795
0.208809
0.208823
0.208839
0.208855
0.208872
0.208891
0.20891
0.208931
0.208953
0.208977
0.209002
0.209028
0.209056
0.209086
0.209118
0.209151
0.209186
0.209224
0.209264
0.209306
0.20935
0.209398
0.209447
0.2095
0.209556
0.209614
0.209676
0.209742
0.20981
0.209883
0.209959
0.210039
0.210123
0.210211
0.210303
0.210399
0.210499
0.210604
0.210713
0.210825
0.210942
0.211062
0.211186
0.211313
0.211443
0.211575
0.211709
0.211845
0.211981
0.212117
0.212252
0.212385
0.212516
0.212642
0.212764
0.212879
0.212987
0.213087
0.213177
0.213257
0.213327
0.213376
0.213474
0.215559
0.278449
0.349124
0.326234
0.30598
0.28805
0.272271
0.258576
0.246954
0.237368
0.229683
0.223658
0.219024
0.215563
0.213087
0.211398
0.210295
0.209602
0.209184
0.208943
0.20881
0.208741
0.208708
0.208694
0.20869
0.208692
0.208696
0.208702
0.208709
0.208717
0.208725
0.208734
0.208744
0.208754
0.208765
0.208777
0.20879
0.208803
0.208818
0.208833
0.208849
0.208867
0.208885
0.208905
0.208926
0.208948
0.208971
0.208996
0.209023
0.209051
0.209081
0.209112
0.209146
0.209181
0.209219
0.209259
0.209301
0.209346
0.209394
0.209444
0.209497
0.209553
0.209612
0.209675
0.209741
0.209811
0.209884
0.209961
0.210043
0.210128
0.210217
0.210311
0.210409
0.210512
0.210619
0.21073
0.210846
0.210966
0.211089
0.211217
0.211348
0.211482
0.211619
0.211758
0.211899
0.212041
0.212182
0.212323
0.212462
0.212599
0.212732
0.212859
0.212981
0.213095
0.2132
0.213295
0.213379
0.213453
0.213506
0.213607
0.215759
0.281568
0.349124
0.326235
0.305982
0.288053
0.272277
0.25859
0.246981
0.237412
0.229746
0.22373
0.219089
0.21561
0.213117
0.211415
0.210302
0.209604
0.209183
0.20894
0.208806
0.208736
0.208703
0.208689
0.208685
0.208686
0.208691
0.208697
0.208704
0.208711
0.20872
0.208729
0.208738
0.208749
0.20876
0.208772
0.208784
0.208798
0.208812
0.208827
0.208844
0.208861
0.208879
0.208899
0.20892
0.208942
0.208965
0.20899
0.209017
0.209045
0.209075
0.209107
0.20914
0.209176
0.209214
0.209254
0.209297
0.209342
0.209389
0.20944
0.209494
0.20955
0.20961
0.209673
0.20974
0.209811
0.209885
0.209964
0.210046
0.210133
0.210224
0.21032
0.21042
0.210525
0.210635
0.210749
0.210868
0.210991
0.211118
0.21125
0.211386
0.211525
0.211667
0.211811
0.211958
0.212105
0.212253
0.212401
0.212547
0.21269
0.21283
0.212964
0.213092
0.213213
0.213324
0.213425
0.213515
0.213593
0.213649
0.213755
0.215974
0.284745
0.349124
0.326235
0.305983
0.288056
0.272283
0.258604
0.247008
0.237458
0.229812
0.223805
0.219157
0.21566
0.213148
0.211432
0.21031
0.209606
0.209181
0.208937
0.208802
0.208732
0.208698
0.208683
0.208679
0.208681
0.208685
0.208691
0.208698
0.208706
0.208714
0.208723
0.208732
0.208743
0.208754
0.208766
0.208778
0.208792
0.208806
0.208821
0.208837
0.208855
0.208873
0.208893
0.208914
0.208936
0.208959
0.208984
0.209011
0.209039
0.209069
0.209101
0.209134
0.20917
0.209208
0.209249
0.209291
0.209337
0.209385
0.209436
0.20949
0.209547
0.209608
0.209672
0.209739
0.209811
0.209886
0.209966
0.21005
0.210139
0.210232
0.210329
0.210432
0.210539
0.210651
0.210769
0.210891
0.211018
0.211149
0.211285
0.211426
0.21157
0.211718
0.211868
0.212021
0.212175
0.21233
0.212485
0.212639
0.21279
0.212937
0.213079
0.213215
0.213342
0.213461
0.213568
0.213664
0.213747
0.213807
0.213918
0.216205
0.287985
0.349125
0.326236
0.305984
0.288059
0.27229
0.258619
0.247037
0.237507
0.229881
0.223884
0.219228
0.215713
0.213181
0.21145
0.210318
0.209608
0.20918
0.208933
0.208797
0.208726
0.208692
0.208678
0.208674
0.208675
0.208679
0.208685
0.208692
0.2087
0.208708
0.208717
0.208726
0.208737
0.208748
0.208759
0.208772
0.208785
0.2088
0.208815
0.208831
0.208848
0.208867
0.208886
0.208907
0.208929
0.208953
0.208978
0.209004
0.209032
0.209062
0.209094
0.209128
0.209164
0.209202
0.209243
0.209286
0.209332
0.20938
0.209431
0.209486
0.209544
0.209605
0.20967
0.209738
0.209811
0.209887
0.209968
0.210054
0.210144
0.210239
0.210339
0.210444
0.210554
0.210669
0.210789
0.210915
0.211046
0.211182
0.211323
0.211469
0.211618
0.211772
0.211929
0.212089
0.212251
0.212414
0.212577
0.212738
0.212898
0.213054
0.213205
0.213349
0.213485
0.213611
0.213726
0.213828
0.213917
0.213982
0.214097
0.216455
0.291291
0.349125
0.326236
0.305986
0.288062
0.272298
0.258635
0.247067
0.237557
0.229952
0.223965
0.219302
0.215767
0.213215
0.211468
0.210327
0.209611
0.209179
0.20893
0.208793
0.208721
0.208686
0.208672
0.208668
0.208669
0.208673
0.208679
0.208686
0.208693
0.208702
0.20871
0.20872
0.20873
0.208741
0.208753
0.208765
0.208779
0.208793
0.208808
0.208824
0.208841
0.20886
0.208879
0.2089
0.208922
0.208946
0.208971
0.208997
0.209026
0.209056
0.209088
0.209122
0.209158
0.209196
0.209237
0.20928
0.209326
0.209375
0.209427
0.209482
0.20954
0.209602
0.209667
0.209737
0.20981
0.209888
0.209971
0.210058
0.210149
0.210246
0.210348
0.210456
0.210569
0.210687
0.210811
0.210941
0.211076
0.211217
0.211363
0.211514
0.21167
0.211831
0.211995
0.212162
0.212332
0.212504
0.212675
0.212847
0.213016
0.213181
0.213342
0.213496
0.213641
0.213776
0.2139
0.214009
0.214105
0.214175
0.214296
0.216724
0.294666
0.349125
0.326237
0.305987
0.288065
0.272305
0.258651
0.247098
0.23761
0.230026
0.22405
0.219379
0.215824
0.21325
0.211488
0.210336
0.209613
0.209178
0.208927
0.208788
0.208716
0.208681
0.208666
0.208661
0.208663
0.208667
0.208673
0.208679
0.208687
0.208695
0.208704
0.208713
0.208724
0.208734
0.208746
0.208759
0.208772
0.208786
0.208801
0.208817
0.208834
0.208853
0.208872
0.208893
0.208915
0.208939
0.208964
0.20899
0.209018
0.209049
0.209081
0.209115
0.209151
0.209189
0.20923
0.209274
0.20932
0.209369
0.209422
0.209477
0.209536
0.209598
0.209665
0.209735
0.20981
0.209889
0.209973
0.210061
0.210155
0.210254
0.210358
0.210468
0.210584
0.210706
0.210834
0.210968
0.211107
0.211253
0.211405
0.211562
0.211725
0.211893
0.212065
0.212241
0.21242
0.212601
0.212782
0.212964
0.213144
0.21332
0.213492
0.213656
0.213812
0.213958
0.21409
0.214208
0.214312
0.214388
0.214516
0.217014
0.298115
0.349126
0.326238
0.305988
0.288069
0.272313
0.258667
0.24713
0.237664
0.230103
0.224138
0.219459
0.215883
0.213287
0.211508
0.210346
0.209616
0.209177
0.208923
0.208783
0.20871
0.208675
0.20866
0.208655
0.208656
0.20866
0.208666
0.208673
0.20868
0.208688
0.208697
0.208707
0.208717
0.208728
0.208739
0.208752
0.208765
0.208779
0.208794
0.20881
0.208827
0.208845
0.208865
0.208886
0.208908
0.208931
0.208956
0.208983
0.209011
0.209041
0.209073
0.209107
0.209144
0.209182
0.209223
0.209267
0.209314
0.209363
0.209416
0.209472
0.209531
0.209595
0.209662
0.209733
0.209809
0.209889
0.209974
0.210065
0.21016
0.210261
0.210368
0.210481
0.2106
0.210725
0.210857
0.210995
0.21114
0.211292
0.211449
0.211613
0.211783
0.211959
0.21214
0.212325
0.212513
0.212705
0.212898
0.213091
0.213282
0.213471
0.213655
0.213832
0.214
0.214157
0.2143
0.214428
0.214541
0.214624
0.214759
0.217329
0.301641
0.349126
0.326238
0.30599
0.288072
0.272321
0.258684
0.247163
0.237719
0.230181
0.224228
0.219541
0.215943
0.213325
0.211529
0.210356
0.209619
0.209176
0.20892
0.208778
0.208705
0.208669
0.208653
0.208649
0.20865
0.208654
0.208659
0.208666
0.208673
0.208681
0.20869
0.2087
0.20871
0.20872
0.208732
0.208744
0.208757
0.208772
0.208787
0.208803
0.20882
0.208838
0.208857
0.208878
0.2089
0.208923
0.208948
0.208975
0.209003
0.209033
0.209066
0.2091
0.209136
0.209175
0.209216
0.20926
0.209307
0.209357
0.20941
0.209467
0.209527
0.209591
0.209659
0.209731
0.209808
0.209889
0.209976
0.210068
0.210166
0.210269
0.210378
0.210494
0.210616
0.210745
0.210881
0.211024
0.211174
0.211332
0.211496
0.211667
0.211845
0.212029
0.212219
0.212414
0.212614
0.212817
0.213022
0.213228
0.213433
0.213635
0.213833
0.214024
0.214205
0.214375
0.214532
0.214671
0.214794
0.214885
0.215028
0.217671
0.305249
0.349126
0.326239
0.305991
0.288076
0.272329
0.258702
0.247196
0.237776
0.230262
0.22432
0.219625
0.216006
0.213364
0.211551
0.210366
0.209622
0.209175
0.208916
0.208774
0.208699
0.208662
0.208647
0.208642
0.208643
0.208647
0.208652
0.208659
0.208666
0.208674
0.208683
0.208692
0.208702
0.208713
0.208725
0.208737
0.20875
0.208764
0.208779
0.208795
0.208812
0.20883
0.208849
0.20887
0.208892
0.208915
0.20894
0.208967
0.208995
0.209025
0.209057
0.209092
0.209128
0.209167
0.209209
0.209253
0.2093
0.20935
0.209404
0.209461
0.209521
0.209586
0.209655
0.209728
0.209806
0.209889
0.209977
0.210071
0.210171
0.210276
0.210388
0.210507
0.210633
0.210766
0.210906
0.211054
0.21121
0.211373
0.211545
0.211723
0.21191
0.212103
0.212304
0.21251
0.212721
0.212937
0.213156
0.213376
0.213596
0.213814
0.214027
0.214233
0.214431
0.214616
0.214786
0.214939
0.215073
0.215174
0.215326
0.218044
0.308943
0.349126
0.32624
0.305993
0.288079
0.272337
0.25872
0.247231
0.237834
0.230345
0.224415
0.219711
0.216069
0.213404
0.211573
0.210377
0.209626
0.209173
0.208912
0.208768
0.208693
0.208656
0.20864
0.208635
0.208636
0.20864
0.208645
0.208652
0.208659
0.208667
0.208676
0.208685
0.208695
0.208706
0.208717
0.208729
0.208742
0.208756
0.208771
0.208787
0.208804
0.208822
0.208841
0.208862
0.208884
0.208907
0.208932
0.208958
0.208987
0.209017
0.209049
0.209083
0.20912
0.209159
0.209201
0.209245
0.209293
0.209343
0.209397
0.209454
0.209516
0.209581
0.209651
0.209725
0.209804
0.209888
0.209978
0.210074
0.210175
0.210284
0.210398
0.21052
0.21065
0.210787
0.210932
0.211085
0.211247
0.211417
0.211595
0.211782
0.211978
0.212182
0.212393
0.212611
0.212836
0.213066
0.213299
0.213536
0.213772
0.214007
0.214238
0.214463
0.214678
0.21488
0.215067
0.215235
0.215383
0.215495
0.215658
0.21845
0.312729
0.349127
0.326241
0.305995
0.288083
0.272346
0.258738
0.247266
0.237894
0.230429
0.224511
0.219799
0.216135
0.213446
0.211596
0.210388
0.209629
0.209172
0.208909
0.208763
0.208687
0.20865
0.208633
0.208628
0.208629
0.208633
0.208638
0.208645
0.208652
0.20866
0.208668
0.208678
0.208687
0.208698
0.208709
0.208721
0.208734
0.208748
0.208763
0.208779
0.208796
0.208814
0.208833
0.208853
0.208875
0.208898
0.208923
0.20895
0.208978
0.209008
0.20904
0.209075
0.209111
0.209151
0.209192
0.209237
0.209285
0.209335
0.20939
0.209448
0.20951
0.209576
0.209646
0.209721
0.209802
0.209887
0.209979
0.210076
0.21018
0.21029
0.210408
0.210533
0.210667
0.210808
0.210958
0.211117
0.211284
0.211462
0.211648
0.211844
0.21205
0.212264
0.212487
0.212719
0.212958
0.213203
0.213454
0.213708
0.213963
0.214218
0.214469
0.214714
0.214949
0.215172
0.215378
0.215563
0.215727
0.215852
0.216027
0.218896
0.316612
0.349127
0.326241
0.305996
0.288087
0.272354
0.258757
0.247302
0.237954
0.230515
0.22461
0.219889
0.216201
0.213488
0.21162
0.210399
0.209633
0.209172
0.208905
0.208758
0.208681
0.208643
0.208627
0.208621
0.208622
0.208626
0.208631
0.208637
0.208645
0.208652
0.208661
0.20867
0.20868
0.20869
0.208701
0.208713
0.208726
0.20874
0.208755
0.20877
0.208787
0.208805
0.208824
0.208845
0.208866
0.20889
0.208914
0.208941
0.208969
0.208999
0.209031
0.209066
0.209103
0.209142
0.209184
0.209228
0.209276
0.209327
0.209382
0.20944
0.209503
0.20957
0.209641
0.209717
0.209799
0.209886
0.209979
0.210078
0.210184
0.210297
0.210418
0.210546
0.210683
0.210829
0.210984
0.211149
0.211323
0.211508
0.211703
0.211908
0.212124
0.212351
0.212587
0.212833
0.213088
0.213351
0.21362
0.213893
0.21417
0.214446
0.21472
0.214989
0.215247
0.215493
0.215721
0.215926
0.216109
0.216249
0.216439
0.219385
0.320596
0.349127
0.326242
0.305998
0.288091
0.272363
0.258775
0.247338
0.238015
0.230602
0.22471
0.219981
0.216269
0.21353
0.211644
0.21041
0.209637
0.209171
0.208902
0.208753
0.208675
0.208637
0.20862
0.208614
0.208615
0.208618
0.208624
0.20863
0.208637
0.208645
0.208653
0.208662
0.208672
0.208682
0.208693
0.208705
0.208718
0.208732
0.208746
0.208762
0.208779
0.208796
0.208815
0.208836
0.208857
0.208881
0.208905
0.208932
0.20896
0.20899
0.209022
0.209057
0.209093
0.209133
0.209175
0.20922
0.209268
0.209319
0.209374
0.209433
0.209496
0.209563
0.209635
0.209712
0.209795
0.209883
0.209978
0.210079
0.210187
0.210303
0.210427
0.210559
0.2107
0.21085
0.211011
0.211181
0.211363
0.211555
0.211759
0.211975
0.212202
0.212441
0.212692
0.212954
0.213226
0.213507
0.213797
0.214093
0.214393
0.214695
0.214995
0.215289
0.215575
0.215847
0.216101
0.21633
0.216535
0.216693
0.2169
0.219925
0.324689
0.349128
0.326243
0.305999
0.288094
0.272372
0.258794
0.247374
0.238077
0.23069
0.224811
0.220073
0.216338
0.213574
0.211668
0.210422
0.209641
0.20917
0.208898
0.208748
0.208669
0.20863
0.208613
0.208607
0.208608
0.208611
0.208616
0.208623
0.20863
0.208637
0.208646
0.208654
0.208664
0.208674
0.208685
0.208697
0.20871
0.208723
0.208738
0.208753
0.20877
0.208788
0.208807
0.208827
0.208848
0.208871
0.208896
0.208922
0.20895
0.20898
0.209013
0.209047
0.209084
0.209123
0.209165
0.20921
0.209258
0.20931
0.209365
0.209425
0.209488
0.209556
0.209629
0.209707
0.209791
0.209881
0.209977
0.21008
0.21019
0.210309
0.210435
0.210571
0.210716
0.210871
0.211037
0.211214
0.211403
0.211604
0.211817
0.212044
0.212283
0.212536
0.212802
0.213081
0.213372
0.213674
0.213987
0.214308
0.214634
0.214964
0.215294
0.215619
0.215936
0.216239
0.216522
0.21678
0.217011
0.217191
0.217417
0.220523
0.328895
0.349128
0.326243
0.306001
0.288098
0.272381
0.258814
0.247411
0.23814
0.230779
0.224913
0.220167
0.216408
0.213618
0.211693
0.210434
0.209645
0.209169
0.208894
0.208743
0.208663
0.208623
0.208606
0.2086
0.2086
0.208604
0.208609
0.208615
0.208622
0.20863
0.208638
0.208647
0.208656
0.208666
0.208677
0.208689
0.208701
0.208715
0.208729
0.208745
0.208761
0.208779
0.208797
0.208817
0.208839
0.208862
0.208886
0.208913
0.208941
0.208971
0.209003
0.209037
0.209074
0.209113
0.209155
0.209201
0.209249
0.209301
0.209356
0.209416
0.20948
0.209548
0.209622
0.209701
0.209786
0.209877
0.209975
0.21008
0.210192
0.210313
0.210443
0.210582
0.210732
0.210892
0.211064
0.211247
0.211443
0.211653
0.211876
0.212114
0.212367
0.212634
0.212917
0.213215
0.213527
0.213852
0.21419
0.214538
0.214895
0.215257
0.21562
0.215981
0.216333
0.216672
0.216991
0.217283
0.217544
0.21775
0.218
0.221188
0.333222
0.349128
0.326244
0.306003
0.288102
0.27239
0.258833
0.247449
0.238203
0.230869
0.225016
0.220261
0.216478
0.213663
0.211718
0.210447
0.209649
0.209168
0.208891
0.208737
0.208657
0.208617
0.208599
0.208593
0.208593
0.208596
0.208601
0.208607
0.208614
0.208622
0.20863
0.208639
0.208648
0.208658
0.208669
0.208681
0.208693
0.208706
0.208721
0.208736
0.208752
0.20877
0.208788
0.208808
0.208829
0.208852
0.208877
0.208903
0.208931
0.208961
0.208993
0.209027
0.209064
0.209103
0.209145
0.20919
0.209239
0.209291
0.209347
0.209407
0.209471
0.20954
0.209615
0.209694
0.20978
0.209873
0.209972
0.210079
0.210194
0.210317
0.21045
0.210593
0.210747
0.210912
0.211089
0.21128
0.211484
0.211703
0.211937
0.212187
0.212453
0.212737
0.213037
0.213355
0.21369
0.21404
0.214406
0.214786
0.215176
0.215574
0.215976
0.216377
0.216772
0.217153
0.217514
0.217845
0.218144
0.218381
0.218659
0.221932
0.337675
0.349128
0.326245
0.306004
0.288106
0.272399
0.258852
0.247486
0.238266
0.230959
0.22512
0.220357
0.216549
0.213708
0.211744
0.210459
0.209653
0.209168
0.208887
0.208732
0.20865
0.20861
0.208592
0.208586
0.208586
0.208589
0.208594
0.2086
0.208607
0.208614
0.208622
0.208631
0.20864
0.20865
0.208661
0.208672
0.208684
0.208698
0.208712
0.208727
0.208743
0.20876
0.208779
0.208799
0.20882
0.208843
0.208867
0.208893
0.208921
0.20895
0.208982
0.209016
0.209053
0.209092
0.209135
0.20918
0.209228
0.209281
0.209337
0.209397
0.209462
0.209531
0.209606
0.209687
0.209774
0.209868
0.209968
0.210077
0.210194
0.21032
0.210456
0.210603
0.210761
0.210931
0.211115
0.211312
0.211525
0.211753
0.211998
0.212261
0.212542
0.212842
0.213162
0.213502
0.213861
0.21424
0.214637
0.215051
0.215479
0.215918
0.216365
0.216813
0.217256
0.217687
0.218098
0.218477
0.21882
0.219095
0.219407
0.222768
0.342263
0.349129
0.326246
0.306006
0.28811
0.272408
0.258872
0.247524
0.238329
0.231049
0.225224
0.220452
0.216621
0.213754
0.211769
0.210472
0.209658
0.209167
0.208884
0.208727
0.208644
0.208603
0.208585
0.208578
0.208578
0.208581
0.208586
0.208592
0.208599
0.208606
0.208614
0.208623
0.208632
0.208642
0.208652
0.208664
0.208676
0.208689
0.208703
0.208718
0.208734
0.208751
0.208769
0.208789
0.20881
0.208833
0.208857
0.208883
0.20891
0.20894
0.208972
0.209006
0.209042
0.209082
0.209124
0.209169
0.209218
0.20927
0.209326
0.209387
0.209452
0.209522
0.209598
0.209679
0.209767
0.209862
0.209964
0.210074
0.210194
0.210322
0.210461
0.210612
0.210774
0.21095
0.211139
0.211344
0.211565
0.211803
0.212059
0.212335