/*--------------------------------*- C++ -*----------------------------------*\
| =========                 |                                                 |
| \\      /  F ield         | OpenFOAM: The Open Source CFD Toolbox           |
|  \\    /   O peration     | Version:  4.1                                   |
|   \\  /    A nd           | Web:      www.OpenFOAM.org                      |
|    \\/     M anipulation  |                                                 |
\*---------------------------------------------------------------------------*/
FoamFile
{
    version     2.0;
    format      ascii;
    class       volScalarField;
    location    "0.02";
    object      nut;
}
// * * * * * * * * * * * * * * * * * * * * * * * * * * * * * * * * * * * * * //

dimensions      [0 2 -1 0 0 0 0];

internalField   nonuniform List<scalar> 
43750
(
0.00139176
0.00140766
0.00142283
0.00143715
0.00145047
0.00146257
0.0014732
0.00148211
0.00148915
0.0014943
0.00149767
0.00149949
0.00150004
0.00149961
0.00149845
0.00149678
0.00149477
0.00149254
0.00149018
0.00148775
0.00148527
0.00148275
0.00148021
0.00147764
0.00147505
0.00147243
0.00146979
0.00146712
0.00146443
0.0014617
0.00145894
0.00145614
0.00145331
0.00145044
0.00144753
0.00144458
0.00144158
0.00143853
0.00143544
0.0014323
0.00142911
0.00142586
0.00142256
0.00141919
0.00141577
0.00141229
0.00140874
0.00140512
0.00140144
0.00139768
0.00139386
0.00138995
0.00138597
0.00138191
0.00137777
0.00137355
0.00136924
0.00136484
0.00136036
0.00135578
0.00135111
0.00134634
0.00134148
0.00133653
0.00133147
0.00132632
0.00132106
0.0013157
0.00131024
0.00130468
0.00129901
0.00129324
0.00128737
0.0012814
0.00127532
0.00126915
0.00126287
0.0012565
0.00125004
0.00124348
0.00123684
0.00123011
0.0012233
0.00121641
0.00120945
0.00120241
0.00119532
0.00118817
0.00118096
0.00117371
0.00116642
0.0011591
0.00115176
0.0011444
0.00113703
0.00112967
0.00112233
0.00111506
0.00110797
0.00110342
0.00084599
0.000841693
0.000839054
0.000838151
0.000839204
0.000842424
0.00084774
0.000854555
0.000861829
0.000868496
0.000873858
0.000877698
0.000880178
0.000881635
0.000882418
0.000882793
0.000882937
0.000882963
0.000882942
0.000882915
0.000882902
0.00088291
0.000882939
0.000882988
0.000883058
0.000883146
0.000883251
0.000883374
0.000883513
0.000883669
0.000883841
0.00088403
0.000884235
0.000884455
0.000884692
0.000884944
0.000885213
0.000885496
0.000885796
0.00088611
0.00088644
0.000886785
0.000887145
0.00088752
0.000887909
0.000888312
0.000888729
0.00088916
0.000889603
0.000890059
0.000890528
0.000891007
0.000891498
0.000891998
0.000892508
0.000893026
0.000893552
0.000894083
0.000894619
0.000895159
0.000895701
0.000896244
0.000896785
0.000897324
0.000897857
0.000898383
0.0008989
0.000899406
0.000899896
0.00090037
0.000900825
0.000901257
0.000901663
0.00090204
0.000902386
0.000902697
0.000902969
0.0009032
0.000903385
0.000903523
0.00090361
0.000903642
0.000903617
0.000903533
0.000903385
0.000903174
0.000902895
0.000902548
0.000902132
0.000901644
0.000901085
0.000900455
0.000899752
0.000898978
0.000898133
0.000897216
0.000896218
0.000895356
0.00090346
0.00110042
0.000843661
0.000835955
0.000829033
0.000823048
0.000818289
0.000815093
0.000813678
0.000813993
0.000815667
0.000818101
0.000820646
0.000822797
0.000824305
0.000825176
0.000825573
0.000825691
0.000825683
0.000825637
0.000825597
0.000825575
0.000825571
0.000825583
0.000825607
0.000825641
0.000825681
0.000825728
0.00082578
0.000825837
0.0008259
0.000825967
0.00082604
0.000826118
0.000826201
0.00082629
0.000826384
0.000826485
0.000826591
0.000826703
0.000826822
0.000826947
0.00082708
0.000827219
0.000827365
0.000827519
0.00082768
0.000827849
0.000828027
0.000828213
0.000828407
0.000828611
0.000828823
0.000829045
0.000829277
0.000829518
0.00082977
0.000830032
0.000830304
0.000830587
0.00083088
0.000831184
0.0008315
0.000831826
0.000832162
0.00083251
0.000832868
0.000833236
0.000833615
0.000834003
0.0008344
0.000834806
0.000835219
0.00083564
0.000836066
0.000836498
0.000836933
0.000837371
0.00083781
0.000838248
0.000838683
0.000839114
0.000839539
0.000839954
0.000840359
0.00084075
0.000841125
0.000841482
0.000841817
0.000842128
0.000842413
0.000842668
0.000842892
0.000843082
0.000843236
0.000843351
0.000843427
0.000843462
0.000843447
0.000843637
0.000854336
0.00110474
0.000843652
0.000835918
0.000828939
0.000822859
0.000817961
0.00081457
0.00081289
0.000812849
0.000814064
0.000815959
0.000817955
0.000819634
0.000820807
0.000821484
0.00082179
0.000821875
0.000821856
0.000821805
0.000821758
0.000821727
0.000821711
0.000821708
0.000821713
0.000821724
0.00082174
0.000821758
0.000821779
0.000821801
0.000821826
0.000821852
0.000821881
0.000821912
0.000821945
0.00082198
0.000822017
0.000822057
0.0008221
0.000822145
0.000822193
0.000822245
0.000822299
0.000822357
0.000822418
0.000822483
0.000822551
0.000822624
0.000822701
0.000822783
0.000822869
0.00082296
0.000823056
0.000823158
0.000823265
0.000823378
0.000823498
0.000823624
0.000823756
0.000823896
0.000824042
0.000824196
0.000824358
0.000824528
0.000824706
0.000824892
0.000825087
0.000825291
0.000825503
0.000825724
0.000825954
0.000826192
0.000826439
0.000826695
0.000826959
0.00082723
0.000827509
0.000827795
0.000828086
0.000828383
0.000828684
0.000828989
0.000829295
0.000829601
0.000829907
0.000830211
0.00083051
0.000830803
0.000831087
0.000831362
0.000831624
0.000831872
0.000832104
0.000832317
0.000832509
0.00083268
0.000832826
0.000832948
0.000833035
0.000833347
0.000844671
0.00111043
0.000843652
0.000835918
0.000828938
0.000822857
0.000817958
0.000814569
0.000812891
0.00081285
0.000814057
0.000815927
0.000817881
0.000819511
0.00082064
0.000821287
0.000821577
0.000821654
0.000821632
0.00082158
0.000821532
0.000821499
0.000821482
0.000821477
0.00082148
0.000821489
0.000821502
0.000821517
0.000821534
0.000821552
0.000821573
0.000821594
0.000821618
0.000821643
0.00082167
0.000821699
0.000821729
0.000821762
0.000821797
0.000821834
0.000821873
0.000821915
0.000821959
0.000822007
0.000822057
0.00082211
0.000822166
0.000822225
0.000822288
0.000822355
0.000822426
0.0008225
0.000822579
0.000822663
0.000822751
0.000822844
0.000822942
0.000823045
0.000823154
0.000823269
0.00082339
0.000823517
0.000823651
0.000823791
0.000823938
0.000824092
0.000824254
0.000824422
0.000824599
0.000824783
0.000824974
0.000825173
0.00082538
0.000825593
0.000825815
0.000826043
0.000826277
0.000826518
0.000826765
0.000827016
0.000827272
0.000827531
0.000827792
0.000828055
0.000828318
0.000828579
0.000828838
0.000829093
0.000829342
0.000829583
0.000829815
0.000830036
0.000830244
0.000830437
0.000830614
0.000830773
0.000830912
0.000831031
0.00083112
0.000831441
0.00084307
0.00111636
0.000843652
0.000835918
0.000828939
0.000822859
0.000817963
0.000814581
0.000812915
0.00081289
0.00081411
0.000815983
0.000817926
0.000819536
0.000820648
0.000821282
0.000821565
0.000821638
0.000821614
0.000821561
0.000821513
0.00082148
0.000821463
0.000821458
0.000821461
0.00082147
0.000821483
0.000821497
0.000821514
0.000821532
0.000821552
0.000821573
0.000821596
0.000821621
0.000821647
0.000821675
0.000821705
0.000821737
0.000821771
0.000821807
0.000821846
0.000821887
0.00082193
0.000821976
0.000822025
0.000822076
0.000822131
0.000822189
0.000822251
0.000822315
0.000822384
0.000822457
0.000822534
0.000822615
0.000822701
0.000822791
0.000822886
0.000822987
0.000823093
0.000823205
0.000823322
0.000823446
0.000823576
0.000823712
0.000823855
0.000824005
0.000824161
0.000824325
0.000824497
0.000824675
0.000824861
0.000825055
0.000825255
0.000825463
0.000825678
0.000825899
0.000826127
0.000826361
0.000826601
0.000826845
0.000827093
0.000827345
0.0008276
0.000827855
0.000828111
0.000828365
0.000828618
0.000828866
0.000829108
0.000829344
0.00082957
0.000829786
0.000829989
0.000830179
0.000830352
0.000830508
0.000830645
0.000830763
0.000830851
0.000831175
0.000843063
0.0011224
0.000843652
0.000835918
0.00082894
0.000822862
0.00081797
0.000814595
0.000812943
0.000812935
0.000814172
0.00081605
0.000817984
0.000819577
0.000820671
0.000821293
0.000821567
0.000821636
0.000821609
0.000821555
0.000821506
0.000821473
0.000821456
0.000821451
0.000821455
0.000821464
0.000821476
0.000821491
0.000821507
0.000821526
0.000821545
0.000821567
0.00082159
0.000821614
0.00082164
0.000821668
0.000821698
0.00082173
0.000821764
0.0008218
0.000821838
0.000821879
0.000821922
0.000821968
0.000822017
0.000822068
0.000822123
0.000822181
0.000822242
0.000822307
0.000822376
0.000822448
0.000822525
0.000822606
0.000822691
0.000822782
0.000822877
0.000822977
0.000823083
0.000823195
0.000823312
0.000823435
0.000823565
0.000823701
0.000823844
0.000823994
0.000824151
0.000824315
0.000824486
0.000824665
0.000824851
0.000825045
0.000825246
0.000825454
0.000825669
0.000825892
0.00082612
0.000826355
0.000826596
0.000826841
0.000827091
0.000827345
0.0008276
0.000827858
0.000828115
0.000828372
0.000828627
0.000828877
0.000829122
0.00082936
0.000829589
0.000829807
0.000830013
0.000830205
0.000830381
0.000830539
0.000830678
0.000830798
0.000830887
0.000831217
0.00084336
0.00112852
0.000843653
0.000835919
0.000828941
0.000822865
0.000817978
0.000814612
0.000812976
0.000812989
0.000814245
0.000816131
0.000818055
0.000819627
0.0008207
0.000821307
0.000821572
0.000821635
0.000821605
0.000821549
0.000821499
0.000821466
0.000821449
0.000821444
0.000821448
0.000821457
0.000821469
0.000821484
0.000821501
0.000821519
0.000821539
0.00082156
0.000821583
0.000821608
0.000821634
0.000821662
0.000821692
0.000821724
0.000821758
0.000821794
0.000821832
0.000821873
0.000821916
0.000821962
0.00082201
0.000822062
0.000822117
0.000822174
0.000822236
0.000822301
0.000822369
0.000822442
0.000822519
0.0008226
0.000822686
0.000822776
0.000822872
0.000822972
0.000823079
0.00082319
0.000823308
0.000823432
0.000823563
0.000823699
0.000823843
0.000823994
0.000824152
0.000824317
0.000824489
0.000824669
0.000824857
0.000825052
0.000825255
0.000825465
0.000825683
0.000825907
0.000826139
0.000826376
0.00082662
0.000826869
0.000827122
0.000827379
0.000827639
0.0008279
0.000828162
0.000828423
0.000828682
0.000828937
0.000829187
0.000829429
0.000829663
0.000829886
0.000830096
0.000830292
0.000830472
0.000830634
0.000830777
0.0008309
0.00083099
0.000831326
0.000843725
0.00113469
0.000843653
0.000835919
0.000828942
0.000822868
0.000817986
0.000814632
0.000813013
0.000813049
0.000814327
0.000816222
0.000818134
0.000819684
0.000820734
0.000821324
0.000821578
0.000821634
0.000821601
0.000821543
0.000821493
0.000821459
0.000821442
0.000821437
0.00082144
0.000821449
0.000821462
0.000821477
0.000821494
0.000821512
0.000821532
0.000821553
0.000821576
0.000821601
0.000821627
0.000821655
0.000821685
0.000821716
0.00082175
0.000821786
0.000821825
0.000821865
0.000821909
0.000821954
0.000822003
0.000822055
0.000822109
0.000822167
0.000822229
0.000822294
0.000822363
0.000822435
0.000822512
0.000822594
0.00082268
0.00082277
0.000822866
0.000822967
0.000823074
0.000823187
0.000823305
0.00082343
0.000823561
0.000823698
0.000823843
0.000823995
0.000824154
0.000824321
0.000824495
0.000824676
0.000824866
0.000825063
0.000825268
0.000825481
0.000825702
0.000825929
0.000826164
0.000826405
0.000826652
0.000826905
0.000827163
0.000827424
0.000827689
0.000827955
0.000828223
0.000828489
0.000828754
0.000829015
0.00082927
0.000829519
0.000829758
0.000829987
0.000830203
0.000830404
0.000830589
0.000830756
0.000830902
0.000831028
0.000831122
0.000831464
0.000844118
0.00114092
0.000843653
0.00083592
0.000828944
0.000822872
0.000817997
0.000814654
0.000813055
0.000813117
0.000814419
0.000816323
0.000818224
0.000819747
0.000820772
0.000821343
0.000821585
0.000821635
0.000821597
0.000821537
0.000821485
0.000821451
0.000821434
0.000821429
0.000821432
0.000821441
0.000821454
0.000821469
0.000821486
0.000821504
0.000821524
0.000821545
0.000821568
0.000821592
0.000821619
0.000821647
0.000821677
0.000821708
0.000821742
0.000821778
0.000821817
0.000821857
0.0008219
0.000821946
0.000821995
0.000822047
0.000822101
0.000822159
0.000822221
0.000822286
0.000822355
0.000822428
0.000822505
0.000822587
0.000822673
0.000822764
0.00082286
0.000822962
0.000823069
0.000823182
0.000823301
0.000823427
0.000823559
0.000823697
0.000823843
0.000823996
0.000824157
0.000824325
0.000824501
0.000824685
0.000824876
0.000825076
0.000825284
0.0008255
0.000825723
0.000825954
0.000826193
0.000826438
0.00082669
0.000826947
0.00082721
0.000827477
0.000827747
0.000828019
0.000828293
0.000828566
0.000828837
0.000829105
0.000829367
0.000829622
0.000829869
0.000830104
0.000830327
0.000830534
0.000830725
0.000830897
0.000831048
0.000831178
0.000831274
0.000831624
0.000844534
0.00114722
0.000843653
0.000835921
0.000828945
0.000822877
0.000818008
0.000814679
0.000813101
0.000813192
0.00081452
0.000816434
0.000818322
0.000819817
0.000820814
0.000821365
0.000821594
0.000821635
0.000821593
0.000821531
0.000821478
0.000821443
0.000821425
0.00082142
0.000821423
0.000821432
0.000821445
0.00082146
0.000821477
0.000821495
0.000821515
0.000821536
0.000821559
0.000821584
0.00082161
0.000821638
0.000821668
0.000821699
0.000821733
0.000821769
0.000821808
0.000821848
0.000821891
0.000821937
0.000821986
0.000822038
0.000822093
0.000822151
0.000822212
0.000822277
0.000822347
0.00082242
0.000822497
0.000822579
0.000822665
0.000822757
0.000822854
0.000822956
0.000823063
0.000823177
0.000823297
0.000823423
0.000823556
0.000823696
0.000823843
0.000823998
0.00082416
0.00082433
0.000824507
0.000824693
0.000824888
0.00082509
0.000825301
0.00082552
0.000825747
0.000825982
0.000826224
0.000826474
0.000826731
0.000826994
0.000827262
0.000827535
0.000827812
0.000828091
0.000828372
0.000828652
0.000828931
0.000829206
0.000829476
0.00082974
0.000829994
0.000830237
0.000830467
0.000830681
0.000830879
0.000831057
0.000831213
0.000831349
0.000831448
0.000831805
0.000844971
0.00115357
0.000843654
0.000835921
0.000828947
0.000822882
0.00081802
0.000814705
0.000813151
0.000813273
0.00081463
0.000816556
0.000818429
0.000819894
0.00082086
0.000821388
0.000821603
0.000821636
0.000821589
0.000821524
0.00082147
0.000821434
0.000821416
0.000821411
0.000821414
0.000821423
0.000821435
0.00082145
0.000821467
0.000821485
0.000821505
0.000821527
0.000821549
0.000821574
0.0008216
0.000821628
0.000821658
0.00082169
0.000821723
0.000821759
0.000821798
0.000821838
0.000821882
0.000821928
0.000821976
0.000822028
0.000822083
0.000822141
0.000822203
0.000822268
0.000822337
0.000822411
0.000822488
0.00082257
0.000822657
0.000822749
0.000822846
0.000822949
0.000823057
0.000823171
0.000823292
0.000823419
0.000823553
0.000823694
0.000823843
0.000823999
0.000824163
0.000824334
0.000824514
0.000824703
0.0008249
0.000825105
0.000825319
0.000825542
0.000825773
0.000826012
0.000826259
0.000826515
0.000826777
0.000827046
0.00082732
0.0008276
0.000827884
0.000828171
0.000828459
0.000828748
0.000829035
0.000829319
0.000829598
0.000829871
0.000830134
0.000830385
0.000830624
0.000830847
0.000831052
0.000831237
0.000831399
0.000831541
0.000831644
0.000832009
0.000845432
0.00115999
0.000843654
0.000835922
0.00082895
0.000822888
0.000818034
0.000814734
0.000813205
0.00081336
0.000814749
0.000816687
0.000818544
0.000819977
0.00082091
0.000821414
0.000821614
0.000821638
0.000821586
0.000821517
0.000821461
0.000821425
0.000821406
0.000821401
0.000821404
0.000821413
0.000821425
0.00082144
0.000821457
0.000821475
0.000821495
0.000821516
0.000821539
0.000821564
0.00082159
0.000821618
0.000821647
0.000821679
0.000821713
0.000821749
0.000821787
0.000821828
0.000821871
0.000821917
0.000821966
0.000822017
0.000822072
0.000822131
0.000822192
0.000822258
0.000822327
0.000822401
0.000822478
0.000822561
0.000822648
0.00082274
0.000822838
0.000822941
0.00082305
0.000823165
0.000823287
0.000823415
0.00082355
0.000823692
0.000823842
0.000824
0.000824166
0.00082434
0.000824522
0.000824713
0.000824913
0.000825121
0.000825339
0.000825566
0.000825801
0.000826045
0.000826298
0.000826558
0.000826827
0.000827102
0.000827384
0.000827671
0.000827963
0.000828259
0.000828556
0.000828854
0.000829151
0.000829445
0.000829734
0.000830016
0.000830289
0.000830551
0.000830799
0.000831031
0.000831245
0.000831438
0.000831608
0.000831755
0.000831864
0.000832237
0.000845917
0.00116648
0.000843654
0.000835923
0.000828952
0.000822893
0.000818048
0.000814765
0.000813263
0.000813454
0.000814877
0.000816827
0.000818668
0.000820065
0.000820964
0.000821442
0.000821626
0.00082164
0.000821582
0.00082151
0.000821453
0.000821415
0.000821396
0.00082139
0.000821393
0.000821402
0.000821414
0.000821429
0.000821446
0.000821464
0.000821484
0.000821505
0.000821528
0.000821552
0.000821578
0.000821606
0.000821636
0.000821668
0.000821702
0.000821737
0.000821776
0.000821816
0.00082186
0.000821905
0.000821954
0.000822006
0.000822061
0.000822119
0.000822181
0.000822247
0.000822316
0.00082239
0.000822468
0.000822551
0.000822638
0.000822731
0.000822829
0.000822933
0.000823042
0.000823158
0.000823281
0.00082341
0.000823546
0.00082369
0.000823842
0.000824001
0.000824169
0.000824345
0.00082453
0.000824724
0.000824927
0.000825139
0.00082536
0.000825591
0.000825831
0.000826081
0.000826339
0.000826606
0.000826881
0.000827164
0.000827453
0.000827749
0.00082805
0.000828355
0.000828662
0.00082897
0.000829278
0.000829583
0.000829883
0.000830177
0.000830461
0.000830734
0.000830993
0.000831236
0.000831459
0.000831661
0.00083184
0.000831994
0.000832109
0.000832491
0.000846428
0.00117305
0.000843655
0.000835924
0.000828954
0.0008229
0.000818063
0.000814798
0.000813325
0.000813554
0.000815012
0.000816976
0.0008188
0.00082016
0.000821021
0.000821472
0.000821638
0.000821642
0.000821578
0.000821503
0.000821443
0.000821405
0.000821385
0.000821379
0.000821382
0.00082139
0.000821403
0.000821418
0.000821434
0.000821452
0.000821472
0.000821493
0.000821516
0.000821541
0.000821567
0.000821594
0.000821624
0.000821656
0.000821689
0.000821725
0.000821763
0.000821804
0.000821847
0.000821893
0.000821942
0.000821994
0.000822049
0.000822107
0.000822169
0.000822235
0.000822304
0.000822378
0.000822457
0.00082254
0.000822628
0.000822721
0.000822819
0.000822924
0.000823034
0.000823151
0.000823274
0.000823405
0.000823542
0.000823687
0.00082384
0.000824002
0.000824172
0.00082435
0.000824538
0.000824735
0.000824941
0.000825157
0.000825383
0.000825618
0.000825864
0.000826119
0.000826383
0.000826657
0.00082694
0.00082723
0.000827528
0.000827833
0.000828144
0.000828459
0.000828777
0.000829097
0.000829417
0.000829734
0.000830047
0.000830353
0.000830651
0.000830936
0.000831208
0.000831462
0.000831697
0.000831909
0.000832097
0.00083226
0.00083238
0.000832772
0.000846967
0.00117969
0.000843655
0.000835925
0.000828957
0.000822906
0.00081808
0.000814833
0.00081339
0.00081366
0.000815156
0.000817134
0.000818939
0.00082026
0.000821082
0.000821504
0.000821652
0.000821644
0.000821574
0.000821495
0.000821434
0.000821394
0.000821374
0.000821367
0.00082137
0.000821378
0.000821391
0.000821405
0.000821422
0.00082144
0.00082146
0.000821481
0.000821504
0.000821528
0.000821554
0.000821582
0.000821611
0.000821643
0.000821677
0.000821712
0.00082175
0.000821791
0.000821834
0.00082188
0.000821929
0.000821981
0.000822036
0.000822094
0.000822156
0.000822222
0.000822292
0.000822366
0.000822444
0.000822528
0.000822616
0.00082271
0.000822809
0.000822914
0.000823025
0.000823143
0.000823267
0.000823398
0.000823537
0.000823684
0.000823839
0.000824002
0.000824174
0.000824356
0.000824546
0.000824746
0.000824956
0.000825176
0.000825407
0.000825647
0.000825898
0.000826159
0.000826431
0.000826712
0.000827002
0.000827302
0.00082761
0.000827925
0.000828246
0.000828573
0.000828903
0.000829236
0.000829569
0.0008299
0.000830227
0.000830547
0.000830859
0.000831159
0.000831444
0.000831712
0.000831959
0.000832184
0.000832381
0.000832554
0.000832682
0.000833084
0.000847537
0.00118642
0.000843655
0.000835926
0.000828959
0.000822913
0.000818097
0.00081487
0.000813459
0.000813771
0.000815307
0.000817301
0.000819086
0.000820366
0.000821146
0.000821538
0.000821666
0.000821647
0.000821569
0.000821487
0.000821424
0.000821383
0.000821362
0.000821355
0.000821357
0.000821366
0.000821378
0.000821393
0.000821409
0.000821427
0.000821447
0.000821468
0.000821491
0.000821515
0.000821541
0.000821568
0.000821598
0.000821629
0.000821663
0.000821699
0.000821737
0.000821777
0.00082182
0.000821866
0.000821915
0.000821967
0.000822022
0.00082208
0.000822142
0.000822208
0.000822278
0.000822353
0.000822431
0.000822515
0.000822604
0.000822698
0.000822797
0.000822903
0.000823015
0.000823134
0.000823259
0.000823392
0.000823532
0.000823681
0.000823837
0.000824003
0.000824177
0.000824361
0.000824555
0.000824758
0.000824972
0.000825197
0.000825432
0.000825678
0.000825935
0.000826203
0.000826481
0.00082677
0.00082707
0.000827379
0.000827697
0.000828023
0.000828356
0.000828695
0.000829039
0.000829386
0.000829733
0.00083008
0.000830423
0.000830759
0.000831087
0.000831403
0.000831704
0.000831986
0.000832248
0.000832486
0.000832696
0.000832879
0.000833015
0.000833429
0.00084814
0.00119324
0.000843656
0.000835927
0.000828962
0.000822921
0.000818115
0.000814909
0.000813531
0.000813888
0.000815465
0.000817476
0.000819241
0.000820477
0.000821213
0.000821573
0.000821682
0.00082165
0.000821565
0.000821479
0.000821413
0.000821371
0.000821349
0.000821342
0.000821344
0.000821353
0.000821365
0.000821379
0.000821396
0.000821414
0.000821433
0.000821454
0.000821477
0.000821501
0.000821527
0.000821554
0.000821584
0.000821615
0.000821649
0.000821684
0.000821722
0.000821763
0.000821806
0.000821852
0.0008219
0.000821952
0.000822007
0.000822066
0.000822128
0.000822194
0.000822264
0.000822339
0.000822418
0.000822502
0.000822591
0.000822685
0.000822785
0.000822892
0.000823004
0.000823124
0.00082325
0.000823384
0.000823526
0.000823676
0.000823835
0.000824003
0.00082418
0.000824366
0.000824563
0.000824771
0.000824989
0.000825218
0.000825458
0.00082571
0.000825973
0.000826248
0.000826535
0.000826832
0.000827141
0.00082746
0.00082779
0.000828128
0.000828474
0.000828828
0.000829186
0.000829548
0.000829912
0.000830276
0.000830636
0.00083099
0.000831336
0.00083167
0.000831988
0.000832288
0.000832566
0.000832819
0.000833042
0.000833238
0.000833383
0.000833809
0.000848779
0.00120015
0.000843656
0.000835928
0.000828965
0.000822929
0.000818133
0.000814949
0.000813607
0.000814009
0.00081563
0.000817658
0.000819402
0.000820593
0.000821284
0.000821611
0.000821698
0.000821653
0.000821561
0.000821471
0.000821402
0.000821359
0.000821336
0.000821329
0.000821331
0.000821339
0.000821351
0.000821365
0.000821382
0.0008214
0.000821419
0.00082144
0.000821462
0.000821487
0.000821512
0.00082154
0.000821569
0.0008216
0.000821634
0.000821669
0.000821707
0.000821748
0.000821791
0.000821836
0.000821885
0.000821937
0.000821992
0.00082205
0.000822113
0.000822179
0.000822249
0.000822324
0.000822403
0.000822487
0.000822577
0.000822672
0.000822772
0.000822879
0.000822993
0.000823113
0.000823241
0.000823376
0.00082352
0.000823671
0.000823832
0.000824002
0.000824182
0.000824371
0.000824572
0.000824783
0.000825005
0.000825239
0.000825485
0.000825743
0.000826013
0.000826296
0.000826591
0.000826898
0.000827217
0.000827547
0.000827889
0.00082824
0.000828601
0.000828969
0.000829344
0.000829724
0.000830106
0.000830488
0.000830867
0.000831242
0.000831607
0.000831961
0.0008323
0.000832619
0.000832915
0.000833185
0.000833424
0.000833633
0.000833789
0.000834229
0.000849457
0.00120716
0.000843657
0.000835929
0.000828968
0.000822936
0.000818153
0.000814991
0.000813685
0.000814136
0.000815802
0.000817847
0.000819569
0.000820713
0.000821357
0.00082165
0.000821714
0.000821656
0.000821556
0.000821462
0.000821391
0.000821346
0.000821323
0.000821315
0.000821317
0.000821325
0.000821337
0.000821351
0.000821367
0.000821385
0.000821404
0.000821425
0.000821448
0.000821472
0.000821497
0.000821524
0.000821554
0.000821585
0.000821618
0.000821654
0.000821692
0.000821732
0.000821775
0.00082182
0.000821869
0.000821921
0.000821976
0.000822034
0.000822097
0.000822163
0.000822233
0.000822308
0.000822387
0.000822472
0.000822562
0.000822657
0.000822759
0.000822866
0.000822981
0.000823102
0.000823231
0.000823367
0.000823512
0.000823666
0.000823829
0.000824001
0.000824183
0.000824376
0.00082458
0.000824795
0.000825022
0.000825262
0.000825513
0.000825778
0.000826055
0.000826346
0.00082665
0.000826967
0.000827297
0.00082764
0.000827994
0.00082836
0.000828736
0.000829121
0.000829514
0.000829912
0.000830314
0.000830717
0.000831118
0.000831515
0.000831903
0.00083228
0.000832641
0.000832982
0.000833299
0.000833588
0.000833844
0.000834069
0.000834237
0.000834692
0.000850179
0.00121427
0.000843657
0.000835931
0.000828971
0.000822945
0.000818173
0.000815034
0.000813766
0.000814267
0.000815979
0.000818043
0.000819743
0.000820838
0.000821433
0.00082169
0.000821732
0.00082166
0.000821552
0.000821453
0.000821379
0.000821333
0.000821309
0.000821301
0.000821303
0.00082131
0.000821322
0.000821336
0.000821352
0.00082137
0.000821389
0.00082141
0.000821432
0.000821456
0.000821481
0.000821509
0.000821538
0.000821569
0.000821602
0.000821637
0.000821675
0.000821715
0.000821758
0.000821804
0.000821852
0.000821904
0.000821959
0.000822018
0.00082208
0.000822146
0.000822217
0.000822291
0.000822371
0.000822456
0.000822546
0.000822642
0.000822744
0.000822852
0.000822967
0.00082309
0.00082322
0.000823358
0.000823504
0.00082366
0.000823824
0.000823999
0.000824185
0.000824381
0.000824588
0.000824808
0.00082504
0.000825284
0.000825542
0.000825814
0.000826099
0.000826398
0.000826712
0.00082704
0.000827381
0.000827737
0.000828106
0.000828487
0.00082888
0.000829284
0.000829696
0.000830115
0.000830539
0.000830965
0.00083139
0.000831812
0.000832225
0.000832627
0.000833013
0.000833379
0.000833719
0.000834031
0.000834307
0.00083455
0.000834732
0.000835203
0.000850949
0.0012215
0.000843658
0.000835932
0.000828975
0.000822953
0.000818194
0.000815079
0.00081385
0.000814401
0.000816163
0.000818246
0.000819922
0.000820968
0.000821512
0.000821732
0.00082175
0.000821664
0.000821548
0.000821444
0.000821368
0.00082132
0.000821295
0.000821286
0.000821288
0.000821295
0.000821307
0.000821321
0.000821337
0.000821355
0.000821374
0.000821394
0.000821416
0.00082144
0.000821465
0.000821492
0.000821521
0.000821552
0.000821585
0.000821621
0.000821658
0.000821698
0.000821741
0.000821786
0.000821835
0.000821887
0.000821941
0.000822
0.000822062
0.000822129
0.000822199
0.000822274
0.000822354
0.000822439
0.00082253
0.000822626
0.000822728
0.000822837
0.000822953
0.000823077
0.000823208
0.000823347
0.000823495
0.000823652
0.00082382
0.000823997
0.000824185
0.000824385
0.000824596
0.00082482
0.000825057
0.000825307
0.000825571
0.00082585
0.000826144
0.000826452
0.000826776
0.000827115
0.00082747
0.000827839
0.000828224
0.000828622
0.000829033
0.000829457
0.00082989
0.000830332
0.000830781
0.000831232
0.000831684
0.000832133
0.000832575
0.000833006
0.00083342
0.000833814
0.000834181
0.000834518
0.000834817
0.000835081
0.000835279
0.000835768
0.000851772
0.00122885
0.000843658
0.000835933
0.000828978
0.000822962
0.000818215
0.000815124
0.000813935
0.00081454
0.000816351
0.000818454
0.000820107
0.000821101
0.000821594
0.000821775
0.000821769
0.000821668
0.000821543
0.000821434
0.000821356
0.000821307
0.000821281
0.000821272
0.000821273
0.00082128
0.000821291
0.000821305
0.000821321
0.000821339
0.000821358
0.000821378
0.0008214
0.000821423
0.000821449
0.000821476
0.000821505
0.000821535
0.000821568
0.000821603
0.000821641
0.000821681
0.000821723
0.000821769
0.000821817
0.000821868
0.000821923
0.000821982
0.000822044
0.00082211
0.000822181
0.000822256
0.000822336
0.000822421
0.000822512
0.000822609
0.000822712
0.000822822
0.000822938
0.000823063
0.000823195
0.000823336
0.000823485
0.000823644
0.000823814
0.000823994
0.000824185
0.000824388
0.000824603
0.000824832
0.000825074
0.00082533
0.000825601
0.000825888
0.00082619
0.000826508
0.000826843
0.000827194
0.000827562
0.000827947
0.000828348
0.000828764
0.000829196
0.000829641
0.000830098
0.000830565
0.00083104
0.00083152
0.000832002
0.000832482
0.000832955
0.000833418
0.000833865
0.00083429
0.000834688
0.000835053
0.000835379
0.000835667
0.000835884
0.000836393
0.000852654
0.00123632
0.000843659
0.000835934
0.000828981
0.000822971
0.000818237
0.000815171
0.000814023
0.000814682
0.000816544
0.000818668
0.000820296
0.000821238
0.000821677
0.00082182
0.000821788
0.000821672
0.000821539
0.000821425
0.000821343
0.000821293
0.000821266
0.000821256
0.000821257
0.000821264
0.000821275
0.000821289
0.000821305
0.000821322
0.000821341
0.000821361
0.000821383
0.000821407
0.000821432
0.000821458
0.000821487
0.000821518
0.00082155
0.000821585
0.000821623
0.000821662
0.000821705
0.00082175
0.000821798
0.00082185
0.000821904
0.000821963
0.000822025
0.000822091
0.000822162
0.000822237
0.000822318
0.000822403
0.000822494
0.000822591
0.000822695
0.000822805
0.000822922
0.000823048
0.000823181
0.000823323
0.000823474
0.000823636
0.000823807
0.00082399
0.000824184
0.00082439
0.00082461
0.000824843
0.000825091
0.000825353
0.000825631
0.000825926
0.000826237
0.000826565
0.000826912
0.000827276
0.000827659
0.000828059
0.000828478
0.000828914
0.000829367
0.000829836
0.000830318
0.000830813
0.000831318
0.00083183
0.000832345
0.000832859
0.000833368
0.000833867
0.00083435
0.000834812
0.000835245
0.000835643
0.000835999
0.000836314
0.000836553
0.000837085
0.000853603
0.00124393
0.000843659
0.000835936
0.000828985
0.00082298
0.000818259
0.000815219
0.000814113
0.000814828
0.000816742
0.000818887
0.00082049
0.000821378
0.000821763
0.000821866
0.000821809
0.000821677
0.000821534
0.000821415
0.000821331
0.000821279
0.000821251
0.000821241
0.000821241
0.000821248
0.000821259
0.000821273
0.000821288
0.000821306
0.000821324
0.000821344
0.000821366
0.000821389
0.000821414
0.000821441
0.000821469
0.0008215
0.000821532
0.000821567
0.000821604
0.000821644
0.000821686
0.000821731
0.000821779
0.00082183
0.000821885
0.000821943
0.000822005
0.000822072
0.000822142
0.000822218
0.000822298
0.000822384
0.000822475
0.000822573
0.000822676
0.000822787
0.000822906
0.000823032
0.000823166
0.00082331
0.000823462