/*--------------------------------*- C++ -*----------------------------------*\
| =========                 |                                                 |
| \\      /  F ield         | OpenFOAM: The Open Source CFD Toolbox           |
|  \\    /   O peration     | Version:  4.1                                   |
|   \\  /    A nd           | Web:      www.OpenFOAM.org                      |
|    \\/     M anipulation  |                                                 |
\*---------------------------------------------------------------------------*/
FoamFile
{
    version     2.0;
    format      ascii;
    class       surfaceScalarField;
    location    "0.02";
    object      phi;
}
// * * * * * * * * * * * * * * * * * * * * * * * * * * * * * * * * * * * * * //

dimensions      [0 3 -1 0 0 0 0];

internalField   nonuniform List<scalar> 
87025
(
0.0199666
3.34188e-05
0.0199103
5.63241e-05
0.0198421
6.81277e-05
0.0197638
7.83776e-05
0.019675
8.87657e-05
0.0195752
9.98243e-05
0.0194634
0.000111797
0.0193404
0.000122953
0.0192107
0.000129693
0.0190809
0.000129787
0.0189565
0.000124434
0.0188392
0.000117252
0.0187274
0.000111881
0.0186176
0.000109753
0.0185075
0.000110139
0.0183959
0.000111531
0.0182831
0.000112873
0.0181692
0.000113892
0.0180544
0.000114738
0.0179388
0.000115595
0.0178223
0.000116547
0.0177047
0.000117605
0.0175859
0.000118757
0.0174659
0.000119991
0.0173446
0.000121302
0.017222
0.00012269
0.0170978
0.000124157
0.0169721
0.000125703
0.0168448
0.000127327
0.0167157
0.000129031
0.0165849
0.000130814
0.0164522
0.000132678
0.0163176
0.000134622
0.016181
0.000136648
0.0160422
0.000138755
0.0159013
0.000140945
0.0157581
0.000143218
0.0156125
0.000145574
0.0154645
0.000148014
0.0153139
0.000150539
0.0151608
0.000153147
0.0150049
0.000155841
0.0148463
0.000158619
0.0146848
0.000161482
0.0145204
0.00016443
0.0143529
0.000167461
0.0141824
0.000170577
0.0140086
0.000173775
0.0138315
0.000177055
0.0136511
0.000180416
0.0134673
0.000183855
0.0132799
0.000187373
0.0130889
0.000190965
0.0128943
0.00019463
0.0126959
0.000198366
0.0124938
0.000202167
0.0122877
0.000206032
0.0120778
0.000209956
0.0118638
0.000213935
0.0116459
0.000217964
0.0114238
0.000222038
0.0111977
0.00022615
0.0109674
0.000230295
0.0107329
0.000234467
0.0104943
0.000238656
0.0102514
0.000242857
0.0100044
0.000247061
0.0097531
0.000251259
0.00949765
0.000255442
0.00923805
0.000259602
0.00897432
0.000263728
0.00870651
0.000267811
0.00843467
0.000271841
0.00815886
0.000275808
0.00787916
0.000279701
0.00759565
0.000283511
0.00730843
0.000287227
0.00701758
0.000290841
0.00672324
0.000294342
0.00642552
0.000297722
0.00612455
0.000300973
0.00582046
0.000304087
0.0055134
0.000307056
0.00520353
0.000309875
0.00489099
0.000312539
0.00457595
0.000315042
0.00425857
0.000317381
0.00393901
0.000319553
0.00361746
0.000321556
0.00329407
0.000323388
0.00296902
0.000325048
0.00264249
0.000326534
0.00231464
0.000327842
0.00198568
0.000328964
0.0016558
0.000329882
0.00132525
0.00033055
0.000994353
0.000330895
0.0006638
0.000330553
0.000332899
0.000330902
0.000332899
0.020024
9.40359e-06
0.0200543
2.60147e-05
0.020085
3.74036e-05
0.0201166
4.6797e-05
0.0201501
5.52752e-05
0.0201876
6.23911e-05
0.0202288
7.05228e-05
0.0202659
8.58789e-05
0.0202819
0.00011371
0.02026
0.000151664
0.0201944
0.000190079
0.0200928
0.000218827
0.0199712
0.000233446
0.0198444
0.000236538
0.0197205
0.000234075
0.019601
0.00023104
0.0194843
0.000229573
0.0193685
0.000229658
0.0192527
0.00023059
0.0191364
0.000231857
0.0190197
0.000233284
0.0189024
0.000234868
0.0187845
0.000236634
0.0186659
0.000238591
0.0185465
0.000240734
0.0184261
0.000243056
0.0183047
0.000245554
0.0181822
0.000248226
0.0180585
0.000251072
0.0179334
0.000254091
0.0178069
0.000257284
0.017679
0.000260652
0.0175494
0.000264197
0.0174181
0.000267919
0.0172851
0.000271821
0.0171501
0.000275905
0.0170131
0.000280171
0.0168741
0.000284623
0.0167328
0.000289263
0.0165893
0.000294092
0.0164433
0.000299113
0.0162948
0.000304328
0.0161437
0.000309738
0.0159899
0.000315346
0.0158331
0.000321153
0.0156734
0.000327161
0.0155106
0.000333371
0.0153446
0.000339785
0.0151753
0.000346402
0.0150025
0.000353225
0.0148261
0.000360252
0.014646
0.000367483
0.014462
0.000374919
0.0142741
0.000382557
0.0140821
0.000390395
0.0138858
0.000398432
0.0136852
0.000406664
0.01348
0.000415087
0.0132703
0.000423696
0.0130557
0.000432486
0.0128363
0.00044145
0.0126119
0.000450582
0.0123823
0.000459871
0.0121475
0.00046931
0.0119073
0.000478886
0.0116615
0.000488588
0.0114102
0.000498402
0.0111531
0.000508314
0.0108903
0.000518309
0.0106215
0.000528368
0.0103467
0.000538473
0.010066
0.000548604
0.00977906
0.000558741
0.00948601
0.00056886
0.00918677
0.000578937
0.00888133
0.000588949
0.00856969
0.000598869
0.00825186
0.00060867
0.00792788
0.000618324
0.0075978
0.000627804
0.00726169
0.00063708
0.00691965
0.000646123
0.0065718
0.000654904
0.00621829
0.000663394
0.00585926
0.000671563
0.00549492
0.000679382
0.00512548
0.000686825
0.00475117
0.000693864
0.00437225
0.000700472
0.00398902
0.000706624
0.00360177
0.000712295
0.00321084
0.000717462
0.00281658
0.000722101
0.00241936
0.000726184
0.00201956
0.000729684
0.00161755
0.000732557
0.00121368
0.000734772
0.000808149
0.000736081
0.000401555
0.000737496
0.000734453
0.0200006
8.81625e-06
0.020001
2.55782e-05
0.0199984
3.99997e-05
0.0199925
5.27293e-05
0.0199841
6.36405e-05
0.0199746
7.19081e-05
0.0199642
8.09005e-05
0.0199498
0.000100282
0.019924
0.00013957
0.0198775
0.000198148
0.019805
0.000262584
0.0197088
0.000315024
0.0195971
0.000345085
0.0194792
0.000354519
0.0193608
0.000352485
0.0192439
0.000347876
0.0191283
0.000345188
0.019013
0.000344983
0.0188973
0.000346254
0.0187811
0.000348114
0.0186641
0.000350214
0.0185465
0.000352531
0.018428
0.000355109
0.0183086
0.000357969
0.0181882
0.000361108
0.0180668
0.000364516
0.0179441
0.000368188
0.0178203
0.00037212
0.017695
0.000376311
0.0175683
0.000380762
0.0174402
0.000385474
0.0173104
0.000390447
0.0171789
0.000395684
0.0170456
0.000401187
0.0169105
0.000406959
0.0167734
0.000413002
0.0166342
0.000419319
0.0164929
0.000425913
0.0163494
0.000432788
0.0162035
0.000439947
0.0160553
0.000447393
0.0159045
0.000455129
0.015751
0.000463159
0.0155949
0.000471486
0.0154359
0.000480113
0.0152741
0.000489041
0.0151092
0.000498275
0.0149411
0.000507816
0.0147699
0.000517667
0.0145953
0.000527827
0.0144172
0.000538299
0.0142356
0.000549084
0.0140504
0.00056018
0.0138613
0.000571587
0.0136684
0.000583304
0.0134715
0.000595328
0.0132705
0.000607656
0.0130653
0.000620283
0.0128558
0.000633206
0.0126419
0.000646416
0.0124234
0.000659906
0.0122003
0.000673667
0.0119725
0.000687689
0.0117399
0.00070196
0.0115023
0.000716465
0.0112597
0.000731189
0.011012
0.000746115
0.0107591
0.000761223
0.0105009
0.000776493
0.0102374
0.0007919
0.00996841
0.00080742
0.00969399
0.000823025
0.00941405
0.000838684
0.00912854
0.000854366
0.00883745
0.000870036
0.00854074
0.000885658
0.00823841
0.000901193
0.00793048
0.0009166
0.00761697
0.000931837
0.00729791
0.000946859
0.00697338
0.00096162
0.00664343
0.000976071
0.00630817
0.000990165
0.00596771
0.00100385
0.0056222
0.00101708
0.00527178
0.0010298
0.00491665
0.00104195
0.00455702
0.0010535
0.00419311
0.00106439
0.00382517
0.00107456
0.00345348
0.00108398
0.00307835
0.0010926
0.00270008
0.00110037
0.00231902
0.00110725
0.0019355
0.0011132
0.00154987
0.00111819
0.00116243
0.00112221
0.000773333
0.00112518
0.000383168
0.00112766
0.00111762
0.0199998
9.01415e-06
0.0199986
2.68041e-05
0.0199949
4.36792e-05
0.0199881
5.94913e-05
0.0199786
7.31277e-05
0.0199668
8.37353e-05
0.0199515
9.62661e-05
0.0199282
0.00012356
0.01989
0.000177782
0.0198307
0.000257405
0.0197491
0.000344144
0.0196496
0.000414584
0.0195392
0.000455507
0.0194243
0.000469384
0.0193087
0.000468064
0.0191936
0.000462996
0.0190788
0.000460024
0.0189637
0.000460012
0.0188482
0.000461797
0.018732
0.000464315
0.0186151
0.000467151
0.0184973
0.000470274
0.0183787
0.000473741
0.0182591
0.000477578
0.0181384
0.000481781
0.0180166
0.000486339
0.0178935
0.000491247
0.0177691
0.000496499
0.0176434
0.000502097
0.0175161
0.000508041
0.0173872
0.000514331
0.0172567
0.000520969
0.0171244
0.00052796
0.0169903
0.000535304
0.0168543
0.000543007
0.0167162
0.000551071
0.016576
0.000559501
0.0164336
0.000568301
0.0162889
0.000577475
0.0161418
0.000587028
0.0159923
0.000596965
0.0158401
0.000607289
0.0156853
0.000618004
0.0155276
0.000629116
0.0153671
0.000640628
0.0152036
0.000652543
0.015037
0.000664866
0.0148672
0.000677599
0.0146942
0.000690745
0.0145177
0.000704305
0.0143377
0.000718281
0.0141541
0.000732674
0.0139668
0.000747484
0.0137757
0.00076271
0.0135807
0.000778349
0.0133816
0.000794399
0.0131784
0.000810856
0.0129709
0.000827714
0.0127592
0.000844966
0.012543
0.000862603
0.0123223
0.000880616
0.012097
0.000898993
0.0118669
0.00091772
0.0116321
0.00093678
0.0113924
0.000956157
0.0111478
0.000975828
0.0108981
0.000995773
0.0106434
0.00101596
0.0103835
0.00103638
0.0101184
0.00105698
0.00984812
0.00107773
0.00957254
0.0010986
0.00929167
0.00111956
0.00900549
0.00114055
0.00871399
0.00116153
0.0084172
0.00118245
0.00811513
0.00120327
0.00780781
0.00122392
0.00749529
0.00124435
0.00717764
0.00126451
0.00685493
0.00128433
0.00652727
0.00130374
0.00619476
0.00132268
0.00585753
0.00134108
0.00551573
0.00135888
0.00516953
0.001376
0.00481911
0.00139237
0.00446467
0.00140794
0.00410644
0.00142262
0.00374465
0.00143635
0.00337956
0.00144907
0.00301144
0.00146072
0.00264057
0.00147123
0.00226727
0.00148055
0.00189183
0.00148864
0.00151457
0.00149545
0.00113579
0.00150099
0.000755798
0.00150517
0.000375113
0.00150835
0.00149273
0.0199993
9.75889e-06
0.0199968
2.92589e-05
0.019992
4.85207e-05
0.0199842
6.72598e-05
0.0199737
8.36117e-05
0.0199611
9.63133e-05
0.0199458
0.000111642
0.0199235
0.000145799
0.0198872
0.000214063
0.0198302
0.000314477
0.0197503
0.000424047
0.0196515
0.000513343
0.0195413
0.000565692
0.0194266
0.000584081
0.0193114
0.000583261
0.0191969
0.000577523
0.0190827
0.0005742
0.0189683
0.000574428
0.0188533
0.00057681
0.0187375
0.000580058
0.018621
0.000583673
0.0185037
0.000587627
0.0183854
0.000591998
0.0182662
0.000596821
0.0181459
0.000602095
0.0180244
0.000607809
0.0179017
0.000613955
0.0177776
0.00062053
0.0176522
0.000627535
0.0175253
0.00063497
0.0173968
0.000642838
0.0172666
0.000651141
0.0171347
0.000659883
0.0170009
0.000669068
0.0168652
0.000678701
0.0167275
0.000688786
0.0165877
0.000699329
0.0164456
0.000710335
0.0163013
0.00072181
0.0161546
0.000733759
0.0160054
0.000746188
0.0158535
0.000759102
0.015699
0.000772508
0.0155417
0.00078641
0.0153816
0.000800814
0.0152184
0.000815724
0.0150521
0.000831144
0.0148826
0.00084708
0.0147098
0.000863533
0.0145336
0.000880508
0.0143539
0.000898005
0.0141705
0.000916025
0.0139835
0.000934569
0.0137925
0.000953636
0.0135977
0.000973224
0.0133987
0.000993328
0.0131956
0.00101394
0.0129883
0.00103506
0.0127766
0.00105668
0.0125604
0.00107879
0.0123396
0.00110136
0.0121142
0.0011244
0.0118841
0.00114787
0.0116491
0.00117177
0.0114092
0.00119607
0.0111643
0.00122074
0.0109143
0.00124575
0.0106592
0.00127108
0.0103989
0.00129669
0.0101333
0.00132253
0.00986247
0.00134857
0.0095863
0.00137477
0.0093048
0.00140106
0.00901795
0.0014274
0.00872574
0.00145373
0.0084282
0.00147999
0.00812535
0.00150612
0.00781723
0.00153204
0.00750389
0.00155769
0.00718542
0.00158298
0.00686189
0.00160785
0.00653341
0.00163221
0.00620011
0.00165598
0.00586212
0.00167907
0.00551959
0.0017014
0.00517271
0.00172288
0.00482166
0.00174342
0.00446665
0.00176294
0.00410791
0.00178136
0.00374569
0.00179858
0.00338023
0.00181453
0.00301182
0.00182913
0.00264074
0.00184231
0.00226728
0.00185401
0.00189176
0.00186416
0.0015145
0.00187272
0.00113583
0.00187966
0.000756116
0.00188489
0.000375787
0.00188867
0.00186852
0.019999
1.07738e-05
0.0199959
3.23124e-05
0.0199905
5.39555e-05
0.0199823
7.54332e-05
0.0199716
9.43534e-05
0.0199588
0.000109097
0.0199432
0.000127217
0.0199208
0.000168177
0.0198846
0.0002503
0.0198279
0.000371221
0.0197486
0.000503335
0.0196506
0.000611272
0.0195414
0.000674943
0.0194276
0.000697844
0.0193133
0.000697592
0.0191995
0.000691279
0.0190861
0.000687695
0.0189722
0.000688232
0.0188578
0.000691263
0.0187426
0.000695276
0.0186266
0.000699694
0.0185097
0.000704497
0.0183919
0.000709783
0.0182731
0.0007156
0.0181533
0.000721949
0.0180323
0.000728819
0.01791
0.000736203
0.0177864
0.000744098
0.0176615
0.000752506
0.017535
0.000761428
0.017407
0.000770868
0.0172773
0.000780829
0.0171459
0.000791316
0.0170126
0.000802334
0.0168774
0.000813889
0.0167402
0.000825987
0.0166009
0.000838633
0.0164594
0.000851836
0.0163156
0.000865602
0.0161694
0.000879937
0.0160208
0.000894849
0.0158695
0.000910344
0.0157156
0.00092643
0.0155589
0.000943113
0.0153993
0.0009604
0.0152367
0.000978296
0.0150711
0.000996806
0.0149022
0.00101594
0.0147301
0.00103569
0.0145545
0.00105607
0.0143754
0.00107709
0.0141927
0.00109873
0.0140063
0.00112101
0.013816
0.00114391
0.0136218
0.00116745
0.0134235
0.00119161
0.0132211
0.00121639
0.0130143
0.00124178
0.0128033
0.00126777
0.0125877
0.00129435
0.0123675
0.00132151
0.0121427
0.00134922
0.0119131
0.00137747
0.0116787
0.00140623
0.0114393
0.00143548
0.0111948
0.00146518
0.0109453
0.0014953
0.0106905
0.00152581
0.0104306
0.00155666
0.0101653
0.0015878
0.00989468
0.00161919
0.00961868
0.00165077
0.00933727
0.00168247
0.00905043
0.00171424
0.00875815
0.001746
0.00846046
0.00177769
0.00815736
0.00180921
0.0078489
0.0018405
0.00753513
0.00187146
0.00721612
0.001902
0.00689194
0.00193203
0.00656271
0.00196144
0.00622855
0.00199015
0.00588958
0.00201804
0.00554598
0.00204501
0.0051979
0.00207095
0.00484556
0.00209577
0.00448916
0.00211935
0.00412892
0.00214159
0.00376511
0.00216239
0.00339797
0.00218166
0.0030278
0.0021993
0.00265489
0.00221522
0.00227955
0.00222935
0.00190209
0.00224162
0.00152285
0.00225195
0.00114219
0.00226032
0.000760476
0.0022666
0.000378098
0.00227105
0.00224662
0.0199989
1.19027e-05
0.0199955
3.56882e-05
0.0199897
5.97973e-05
0.0199811
8.4004e-05
0.01997
0.000105477
0.0199568
0.000122245
0.019941
0.000143075
0.0199185
0.000190672
0.0198823
0.000286426
0.0198259
0.000427615
0.0197472
0.00058207
0.0196499
0.000708528
0.0195414
0.000783484
0.0194283
0.000810903
0.0193147
0.000811232
0.0192016
0.000804354
0.0190888
0.000800523
0.0189756
0.000801394
0.0188618
0.000805102
0.0187472
0.000809908
0.0186317
0.000815153
0.0185154
0.000820822
0.0183981
0.000827035
0.0182799
0.000833854
0.0181606
0.000841284
0.0180401
0.000849313
0.0179183
0.000857935
0.0177953
0.000867149
0.0176708
0.000876958
0.0175449
0.000887364
0.0174174
0.000898371
0.0172882
0.000909985
0.0171573
0.000922211
0.0170246
0.000935056
0.01689
0.000948526
0.0167533
0.000962628
0.0166146
0.000977372
0.0164737
0.000992763
0.0163305
0.00100881
0.0161849
0.00102553
0.0160368
0.00104291
0.0158862
0.00106098
0.0157329
0.00107974
0.0155768
0.0010992
0.0154178
0.00111936
0.0152559
0.00114023
0.0150909
0.00116183
0.0149226
0.00118415
0.0147511
0.0012072
0.0145762
0.00123098
0.0143978
0.00125551
0.0142158
0.00128077
0.01403
0.00130678
0.0138404
0.00133352
0.0136468
0.00136101
0.0134492
0.00138923
0.0132474
0.00141818
0.0130413
0.00144785
0.0128309
0.00147822
0.0126159
0.00150929
0.0123964
0.00154104
0.0121722
0.00157345
0.0119432
0.00160649
0.0117092
0.00164014
0.0114704
0.00167437
0.0112264
0.00170913
0.0109773
0.0017444
0.010723
0.00178013
0.0104634
0.00181627
0.0101984
0.00185276
0.00992807
0.00188955
0.00965226
0.00192657
0.00937098
0.00196375
0.00908421
0.00200102
0.00879192
0.00203829
0.00849413
0.00207548
0.00819084
0.0021125
0.0078821
0.00214924
0.00756795
0.00218561
0.00724845
0.0022215
0.00692369
0.00225679
0.00659375
0.00229138
0.00625876
0.00232514
0.00591886
0.00235794
0.00557419
0.00238967
0.00522493
0.00242021
0.00487128
0.00244942
0.00451345
0.00247718
0.00415168
0.00250337
0.0037862
0.00252787
0.0034173
0.00255056
0.00304527
0.00257134
0.00267039
0.0025901
0.002293
0.00260674
0.00191343
0.00262119
0.00153202
0.00263336
0.00114914
0.00264321
0.000765153
0.00265058
0.000380457
0.00265575
0.00262708
0.0199988
1.30959e-05
0.0199952
3.92666e-05
0.0199891
6.59193e-05
0.0199803
9.28568e-05
0.0199689
0.000116843
0.0199555
0.000135587
0.0199395
0.000159071
0.019917
0.000213218
0.019881
0.000322475
0.0198248
0.00048377
0.0197465
0.000660401
0.0196498
0.00080524
0.0195419
0.000891379
0.0194295
0.000923254
0.0193166
0.00092414
0.0192043
0.0009167
0.0190921
0.00091264
0.0189797
0.000913868
0.0188665
0.000918277
0.0187525
0.000923897
0.0186377
0.000929984
0.018522
0.000936531
0.0184053
0.000943682
0.0182877
0.000951509
0.0181689
0.000960023
0.018049
0.000969212
0.0179279
0.000979073
0.0178054
0.000989605
0.0176816
0.00100081
0.0175562
0.0010127
0.0174293
0.00102527
0.0173008
0.00103853
0.0171705
0.00105249
0.0170384
0.00106715
0.0169044
0.00108253
0.0167684
0.00109863
0.0166303
0.00111546
0.0164901
0.00113303
0.0163475
0.00115136
0.0162026
0.00117044
0.0160552
0.00119029
0.0159053
0.00121093
0.0157527
0.00123235
0.0155973
0.00125457
0.015439
0.0012776
0.0152778
0.00130145
0.0151135
0.00132612
0.0149461
0.00135163
0.0147753
0.00137797
0.0146011
0.00140515
0.0144234
0.00143319
0.0142421
0.00146207
0.0140571
0.00149181
0.0138682
0.0015224
0.0136754
0.00155384
0.0134785
0.00158613
0.0132774
0.00161925
0.0130721
0.00165321
0.0128623
0.00168798
0.012648
0.00172356
0.0124292
0.00175992
0.0122056
0.00179704
0.0119772
0.00183491
0.0117438
0.00187347
0.0115055
0.00191271
0.011262
0.00195258
0.0110134
0.00199304
0.0107595
0.00203404
0.0105002
0.00207552
0.0102356
0.00211742
0.00996543
0.00215968
0.00968979
0.00220221
0.0094086
0.00224494
0.00912183
0.00228779
0.00882946
0.00233066
0.00853149
0.00237345
0.00822794
0.00241605
0.00791883
0.00245835
0.0076042
0.00250024
0.00728411
0.00254159
0.00695863
0.00258227
0.00662786
0.00262214
0.00629192
0.00266108
0.00595094
0.00269893
0.00560506
0.00273555
0.00525447
0.0027708
0.00489936
0.00280453
0.00453995
0.00283659
0.00417646
0.00286685
0.00380917
0.00289517
0.00343833
0.0029214
0.00306425
0.00294542
0.00268723
0.00296711
0.00230762
0.00298636
0.00192574
0.00300307
0.00154196
0.00301714
0.00115665
0.00302852
0.000770195
0.00303704
0.000382985
0.00304296
0.00301006
0.0199988
1.43294e-05
0.0199951
4.29674e-05
0.0199888
7.22142e-05
0.0199797
0.000101891
0.0199682
0.000128373
0.0199547
0.000149068
0.0199386
0.000175168
0.0199161
0.000235791
0.0198801
0.000358425
0.0198242
0.000539662
0.0197463
0.000738299
0.0196502
0.000901375
0.019543
0.000998602
0.0194313
0.00103489
0.0193192
0.00103631
0.0192075
0.00102831
0.0190962
0.00102403
0.0189844
0.00102562
0.0188719
0.00103074
0.0187587
0.00103718
0.0186445
0.00104412
0.0185295
0.00105156
0.0184135
0.00105965
0.0182965
0.00106849
0.0181785
0.00107809
0.0180592
0.00108844
0.0179388
0.00109954
0.017817
0.00111138
0.0176938
0.00112398
0.0175692
0.00113734
0.017443
0.00115147
0.0173151
0.00116637
0.0171856
0.00118205
0.0170542
0.00119853
0.0169209
0.00121581
0.0167856
0.0012339
0.0166483
0.00125281
0.0165088
0.00127255
0.016367
0.00129314
0.0162229
0.00131458
0.0160763
0.00133689
0.0159271
0.00136008
0.0157753
0.00138416
0.0156207
0.00140914
0.0154633
0.00143503
0.0153029
0.00146184
0.0151394
0.00148958
0.0149728
0.00151827
0.0148029
0.00154789
0.0146296
0.00157848
0.0144527
0.00161002
0.0142723
0.00164252
0.0140881
0.00167599
0.0139001
0.00171042
0.0137081
0.00174582
0.013512
0.00178218
0.0133118
0.0018195
0.0131072
0.00185775
0.0128983
0.00189694
0.0126848
0.00193704
0.0124667
0.00197804
0.0122438
0.00201991
0.0120161
0.00206262
0.0117834
0.00210614
0.0115457
0.00215044
0.0113028
0.00219546
0.0110547
0.00224116
0.0108013
0.00228748
0.0105424
0.00233436
0.0102781
0.00238174
0.0100083
0.00242953
0.00973282
0.00247766
0.00945172
0.00252604
0.00916496
0.00257456
0.00887249
0.00262312
0.00857432
0.00267161
0.00827046
0.00271992
0.00796091
0.0027679
0.00764572
0.00281543
0.00732494
0.00286237
0.00699864
0.00290857
0.00666691
0.00295387
0.00632986
0.00299812
0.00598763
0.00304116
0.00564037
0.00308281
0.00528824
0.00312292
0.00493145
0.00316132
0.00457021
0.00319783
0.00420477
0.0032323
0.00383538
0.00326456
0.00346232
0.00329445
0.0030859
0.00332184
0.00270644
0.00334657
0.00232427
0.00336852
0.00193976
0.00338758
0.00155327
0.00340362
0.00116519
0.0034166
0.000775919
0.00342631
0.000385845
0.00343303
0.00339591
0.0199987
1.55868e-05
0.019995
4.67406e-05
0.0199886
7.86144e-05
0.0199794
0.000111038
0.0199678
0.000140006
0.0199542
0.000162631
0.0199381
0.000191311
0.0199155
0.000258342
0.0198797
0.000394238
0.0198241
0.000595257
0.0197467
0.00081573
0.0196512
0.000996905
0.0195446
0.00110513
0.0194337
0.00114578
0.0193223
0.00114773
0.0192115
0.00113915
0.0191009
0.00113464
0.0189899
0.0011366
0.0188782
0.00114244
0.0187656
0.00114971
0.0186523
0.00115751
0.018538
0.00116584
0.0184228
0.00117487
0.0183065
0.00118473
0.0181892
0.00119541
0.0180707
0.00120692
0.017951
0.00121925
0.01783
0.00123241
0.0177076
0.00124639
0.0175837
0.00126122
0.0174583
0.0012769
0.0173312
0.00129343
0.0172024
0.00131083
0.0170719
0.00132911
0.0169394
0.00134827
0.016805
0.00136834
0.0166685
0.00138932
0.0165298
0.00141122
0.0163889
0.00143406
0.0162456
0.00145785
0.0160999
0.00148261
0.0159516
0.00150834
0.0158007
0.00153507
0.015647
0.00156279
0.0154905
0.00159153
0.0153311
0.0016213
0.0151686
0.0016521
0.0150029
0.00168395
0.0148339
0.00171686
0.0146616
0.00175084
0.0144857
0.00178588
0.0143062
0.001822
0.014123
0.0018592
0.0139359
0.00189748
0.0137449
0.00193685
0.0135498
0.00197729
0.0133505
0.00201879
0.0131469
0.00206136
0.0129389
0.00210498
0.0127263
0.00214963
0.012509
0.00219529
0.012287
0.00224193
0.0120601
0.00228953
0.0118282
0.00233804
0.0115912
0.00238744
0.011349
0.00243766
0.0111015
0.00248865
0.0108486
0.00254036
0.0105902
0.00259272
0.0103263
0.00264565
0.0100568
0.00269907
0.00978158
0.00275288
0.00950062
0.002807
0.00921388
0.0028613
0.00892133
0.00291567
0.00862296
0.00296999
0.00831875
0.00302412
0.00800873
0.00307792
0.00769293
0.00313124
0.00737139
0.00318391
0.00704417
0.00323578
0.00671137
0.00328667
0.00637309
0.0033364
0.00602945
0.00338479
0.00568062
0.00343165
0.00532675
0.00347679
0.00496806
0.00352001
0.00460475
0.00356114
0.00423708
0.00359997
0.0038653
0.00363633
0.00348972
0.00367004
0.00311063
0.00370093
0.00272838
0.00372883
0.0023433
0.0037536
0.00195578
0.0037751
0.0015662
0.00379321
0.00117495
0.00380785
0.000782447
0.00381881
0.000389102
0.00382638
0.00378501
0.0199987
1.68576e-05
0.0199949
5.05546e-05
0.0199885
8.50732e-05
0.0199792
0.000120248
0.0199676
0.000151689
0.019954
0.000176227
0.0199378
0.000207457
0.0199153
0.000280832
0.0198797
0.000429873
0.0198244
0.000650515
0.0197475
0.000892656
0.0196526
0.00109179
0.0195468
0.00121093
0.0194367
0.0012559
0.0193261
0.00125835
0.019216
0.00124919
0.0191062
0.00124445
0.0189961
0.00124677
0.0188852
0.00125332
0.0187735
0.00126143
0.0186609
0.00127008
0.0185474
0.0012793
0.018433
0.00128928
0.0183176
0.00130015
0.0182011
0.00131191
0.0180834
0.00132458
0.0179646
0.00133814
0.0178444
0.00135259
0.0177228
0.00136796
0.0175998
0.00138425
0.0174752
0.00140146
0.017349
0.00141962
0.0172211
0.00143872
0.0170914
0.00145879
0.0169599
0.00147983
0.0168264
0.00150186
0.0166908
0.0015249
0.016553
0.00154895
0.0164131
0.00157403
0.0162708
0.00160016
0.016126
0.00162735
0.0159788
0.00165561
0.0158289
0.00168497
0.0156762
0.00171543
0.0155208
0.00174701
0.0153623
0.00177972
0.0152009
0.00181357
0.0150362
0.00184858
0.0148683
0.00188476
0.0146971
0.00192212
0.0145223
0.00196066
0.0143439
0.0020004
0.0141618
0.00204133
0.0139758
0.00208346
0.0137858
0.00212679
0.0135918
0.00217132
0.0133936
0.00221703
0.013191
0.00226393
0.012984
0.00231199
0.0127724
0.00236121
0.0125561
0.00241156
0.0123351
0.002463
0.0121091
0.00251552
0.0118781
0.00256907
0.0116419
0.00262361
0.0114005
0.00267908
0.0111537
0.00273544
0.0109014
0.00279261
0.0106436
0.00285052
0.0103802
0.00290908
0.0101111
0.00296822
0.00983613
0.00302782
0.00955535
0.00308778
0.00926867
0.00314798
0.00897605
0.00320829
0.00867747
0.00326857
0.00837292
0.00332867
0.0080624
0.00338844
0.00774594
0.0034477
0.00742357
0.00350629
0.00709535
0.003564
0.00676137
0.00362066
0.00642172
0.00367605
0.00607653
0.00372998
0.00572595
0.00378223
0.00537015
0.00383258
0.00500933
0.00388083
0.00464372
0.00392676
0.00427354
0.00397014
0.0038991
0.00401078
0.00352067
0.00404847
0.00313858
0.00408301
0.00275317
0.00411423
0.00236482
0.00414195
0.00197389
0.00416602
0.00158081
0.00418629
0.00118598
0.00420268
0.000789825
0.00421496
0.000392782
0.00422342
0.00417779
0.0199987
1.81343e-05
0.0199949
5.43866e-05
0.0199884
9.1556e-05
0.0199792
0.000129477
0.0199675
0.000163381
0.0199539
0.000189813
0.0199378
0.000223563
0.0199154
0.00030322
0.01988
0.00046529
0.0198251
0.000705392
0.0197487
0.000969028
0.0196545
0.00118599
0.0195495
0.00131595
0.0194402
0.0013652
0.0193304
0.00136814
0.0192212
0.00135839
0.0191123
0.00135341
0.019003
0.00135608
0.018893
0.00136334
0.0187821
0.00137227
0.0186704
0.00138178
0.0185578
0.00139189
0.0184443
0.00140281
0.0183298
0.00141468
0.0182142
0.00142753
0.0180974
0.00144134
0.0179794
0.00145612
0.0178601
0.00147187
0.0177395
0.00148861
0.0176174
0.00150635
0.0174938
0.00152509
0.0173685
0.00154485
0.0172416
0.00156565
0.0171129
0.00158749
0.0169823
0.0016104
0.0168498
0.00163438
0.0167153
0.00165946
0.0165786
0.00168564
0.0164396
0.00171295
0.0162984
0.0017414
0.0161547
0.001771
0.0160086
0.00180179
0.0158598
0.00183376
0.0157083
0.00186694
0.0155539
0.00190134
0.0153967
0.00193698
0.0152364
0.00197388
0.0150729
0.00201204
0.0149062
0.00205148
0.0147361
0.00209222
0.0145625
0.00213425
0.0143853
0.0021776
0.0142044
0.00222226
0.0140196
0.00226823
0.0138309
0.00231553
0.013638
0.00236415
0.013441
0.00241409
0.0132396
0.00246532
0.0130337
0.00251785
0.0128233
0.00257166
0.0126081
0.00262672
0.0123881
0.002683
0.0121631
0.00274048
0.0119331
0.00279911
0.0116979
0.00285885
0.0114573
0.00291963
0.0112113
0.00298141
0.0109598
0.00304411
0.0107027
0.00310766
0.0104398
0.00317195
0.0101711
0.0032369
0.00989655
0.0033024
0.009616
0.00336833
0.00932942
0.00343456
0.00903676
0.00350095
0.00873799
0.00356734
0.00843308
0.00363357
0.00812204
0.00369948
0.00780488
0.00376487
0.00748162
0.00382954
0.00715233
0.0038933
0.00681706
0.00395592
0.00647592
0.00401719
0.00612903
0.00407687
0.00577654
0.00413472
0.00541861
0.00419052
0.00505544
0.004244
0.00468726
0.00429494
0.00431432
0.00434308
0.00393689
0.0043882
0.0035553
0.00443007
0.00316986
0.00446845
0.00278094
0.00450315
0.00238891
0.00453398
0.00199419
0.00456075
0.00159718
0.0045833
0.00119833
0.00460153
0.000798092
0.0046152
0.000396907
0.0046246
0.0045747
0.0199987
1.94115e-05
0.0199949
5.822e-05
0.0199884
9.80368e-05
0.0199792
0.000138693
0.0199675
0.000175044
0.019954
0.000203354
0.019938
0.000239597
0.0199157
0.000325472
0.0198805
0.000500451
0.0198261
0.000759844
0.0197503
0.0010448
0.0196569
0.00127944
0.0195527
0.00142014
0.0194443
0.00147363
0.0193353
0.00147704
0.019227
0.0014667
0.019119
0.00146146
0.0190106
0.00146448
0.0189015
0.00147243
0.0187916
0.00148218
0.0186808
0.00149255
0.0185692
0.00150353
0.0184566
0.00151539
0.018343
0.00152826
0.0182284
0.00154218
0.0181126
0.00155713
0.0179956
0.00157312
0.0178773
0.00159016
0.0177576
0.00160826
0.0176365
0.00162743
0.0175139
0.00164769
0.0173897
0.00166905
0.0172639
0.00169152
0.0171362
0.00171513
0.0170067
0.00173988
0.0168753
0.0017658
0.0167419
0.0017929
0.0166063
0.0018212
0.0164685
0.00185072
0.0163285
0.00188147
0.016186
0.00191348
0.016041
0.00194676
0.0158934
0.00198134
0.0157431
0.00201722
0.0155901
0.00205443
0.015434
0.00209299
0.015275
0.00213291
0.0151128
0.00217421
0.0149474
0.00221691
0.0147786
0.00226101
0.0146063
0.00230653
0.0144305
0.00235347
0.0142509
0.00240186
0.0140674
0.00245168
0.01388
0.00250296
0.0136885
0.00255567
0.0134927
0.00260983
0.0132926
0.00266542
0.0130881
0.00272244
0.0128789
0.00278085
0.0126649
0.00284065
0.0124461
0.00290181
0.0122223
0.00296429
0.0119934
0.00302804
0.0117592
0.00309303
0.0115196
0.0031592
0.0112746
0.00322647
0.0110239
0.00329478
0.0107675
0.00336405
0.0105053
0.00343417
0.0102371
0.00350505
0.00996297
0.00357657
0.0096827
0.0036486
0.00939627
0.00372099
0.0091036
0.00379361
0.00880466
0.00386628
0.00849941
0.00393882
0.00818784
0.00401105
0.00786995
0.00408276
0.00754575
0.00415374
0.0072153
0.00422375
0.00687865
0.00429257
0.0065359
0.00435994
0.00618717
0.00442561
0.00583258
0.00448931
0.00547232
0.00455078
0.00510658
0.00460975
0.00473558
0.00466593
0.00435959
0.00471908
0.00397888
0.00476891
0.00359379
0.00481516
0.00320464
0.0048576
0.00281182
0.00489597
0.00241573
0.00493007
0.00201677
0.0049597
0.00161541
0.00498466
0.00121209
0.00500485
0.000807297
0.00502
0.000401502
0.0050304
0.0049762
0.0199987
2.06849e-05
0.0199949
6.2042e-05
0.0199884
0.000104495
0.0199793
0.000147872
0.0199677
0.000186651
0.0199542
0.000216819
0.0199383
0.000255525
0.0199162
0.000347552
0.0198813
0.000535316
0.0198273
0.000813823
0.0197522
0.00111991
0.0196596
0.00137208
0.0195563
0.00152344
0.0194488
0.00158114
0.0193408
0.00158501
0.0192334
0.00157406
0.0191263
0.00156856
0.0190189
0.00157191
0.0189108
0.00158055
0.0188019
0.00159111
0.0186921
0.00160232
0.0185815
0.00161418
0.0184699
0.00162696
0.0183573
0.00164083
0.0182437
0.0016558
0.018129
0.00167188
0.018013
0.00168907
0.0178958
0.00170738
0.0177772
0.00172683
0.0176572
0.00174743
0.0175357
0.00176919
0.0174126
0.00179213
0.0172879
0.00181627
0.0171614
0.00184162
0.0170331
0.0018682
0.0169029
0.00189604
0.0167706
0.00192515
0.0166363
0.00195554
0.0164998
0.00198725
0.0163609
0.00202029
0.0162197
0.00205468
0.0160761
0.00209044
0.0159298
0.0021276
0.0157808
0.00216617
0.0156291
0.00220618
0.0154745
0.00224763
0.0153168
0.00229057
0.015156
0.00233499
0.014992
0.00238092
0.0148247
0.00242837
0.0146538
0.00247737
0.0144794
0.00252791
0.0143012
0.00258001
0.0141192
0.00263368
0.0139333
0.00268893
0.0137432
0.00274575
0.0135489
0.00280414
0.0133502
0.0028641
0.013147
0.00292561
0.0129392
0.00298866