# vtk DataFile Version 2.0
sampleSurface
ASCII
DATASET POLYDATA
POINTS 652 double
0 0 0
0.02 0 0
0.02 0 0.1
0 0 0.1
0.04 0 0
0.04 0 0.1
0.06 0 0
0.06 0 0.1
0.08 0 0
0.08 0 0.1
0.1 0 0
0.1 0 0.1
0.12 0 0
0.12 0 0.1
0.14 0 0
0.14 0 0.1
0.16 0 0
0.16 0 0.1
0.18 0 0
0.18 0 0.1
0.2 0 0
0.2 0 0.1
0.22 0 0
0.22 0 0.1
0.24 0 0
0.24 0 0.1
0.26 0 0
0.26 0 0.1
0.28 0 0
0.28 0 0.1
0.3 0 0
0.3 0 0.1
0.32 0 0
0.32 0 0.1
0.34 0 0
0.34 0 0.1
0.36 0 0
0.36 0 0.1
0.38 0 0
0.38 0 0.1
0.4 0 0
0.4 0 0.1
0.42 0 0
0.42 0 0.1
0.44 0 0
0.44 0 0.1
0.46 0 0
0.46 0 0.1
0.48 0 0
0.48 0 0.1
0.5 0 0
0.5 0 0.1
0.52 0 0
0.52 0 0.1
0.54 0 0
0.54 0 0.1
0.56 0 0
0.56 0 0.1
0.58 0 0
0.58 0 0.1
0.6 0 0
0.6 0 0.1
0.62 0 0
0.62 0 0.1
0.64 0 0
0.64 0 0.1
0.66 0 0
0.66 0 0.1
0.68 0 0
0.68 0 0.1
0.7 0 0
0.7 0 0.1
0.72 0 0
0.72 0 0.1
0.74 0 0
0.74 0 0.1
0.76 0 0
0.76 0 0.1
0.78 0 0
0.78 0 0.1
0.8 0 0
0.8 0 0.1
0.82 0 0
0.82 0 0.1
0.84 0 0
0.84 0 0.1
0.86 0 0
0.86 0 0.1
0.88 0 0
0.88 0 0.1
0.9 0 0
0.9 0 0.1
0.92 0 0
0.92 0 0.1
0.94 0 0
0.94 0 0.1
0.96 0 0
0.96 0 0.1
0.98 0 0
0.98 0 0.1
1 0 0
1 0 0.1
1.02 0 0
1.02 0 0.1
1.04 0 0
1.04 0 0.1
1.06 0 0
1.06 0 0.1
1.08 0 0
1.08 0 0.1
1.1 0 0
1.1 0 0.1
1.12 0 0
1.12 0 0.1
1.14 0 0
1.14 0 0.1
1.16 0 0
1.16 0 0.1
1.18 0 0
1.18 0 0.1
1.2 0 0
1.2 0 0.1
1.22 0 0
1.22 0 0.1
1.24 0 0
1.24 0 0.1
1.26 0 0
1.26 0 0.1
1.28 0 0
1.28 0 0.1
1.3 0 0
1.3 0 0.1
1.32 0 0
1.32 0 0.1
1.34 0 0
1.34 0 0.1
1.36 0 0
1.36 0 0.1
1.38 0 0
1.38 0 0.1
1.4 0 0
1.4 0 0.1
1.42 0 0
1.42 0 0.1
1.44 0 0
1.44 0 0.1
1.46 0 0
1.46 0 0.1
1.48 0 0
1.48 0 0.1
1.5 0 0
1.5 0 0.1
1.52 0 0
1.52 0 0.1
1.54 0 0
1.54 0 0.1
1.56 0 0
1.56 0 0.1
1.58 0 0
1.58 0 0.1
1.6 0 0
1.6 0 0.1
1.62 0 0
1.62 0 0.1
1.64 0 0
1.64 0 0.1
1.66 0 0
1.66 0 0.1
1.68 0 0
1.68 0 0.1
1.7 0 0
1.7 0 0.1
1.72 0 0
1.72 0 0.1
1.74 0 0
1.74 0 0.1
1.76 0 0
1.76 0 0.1
1.78 0 0
1.78 0 0.1
1.8 0 0
1.8 0 0.1
1.82 0 0
1.82 0 0.1
1.84 0 0
1.84 0 0.1
1.86 0 0
1.86 0 0.1
1.88 0 0
1.88 0 0.1
1.9 0 0
1.9 0 0.1
1.92 0 0
1.92 0 0.1
1.94 0 0
1.94 0 0.1
1.96 0 0
1.96 0 0.1
1.98 0 0
1.98 0 0.1
2 0 0
2 0 0.1
2 0.02 0
2 0.02 0.1
2 0.04 0
2 0.04 0.1
2 0.06 0
2 0.06 0.1
2 0.08 0
2 0.08 0.1
2 0.1 0
2 0.1 0.1
2 0.12 0
2 0.12 0.1
2 0.14 0
2 0.14 0.1
2 0.16 0
2 0.16 0.1
2 0.18 0
2 0.18 0.1
2 0.2 0
2 0.2 0.1
2 0.22 0
2 0.22 0.1
2 0.24 0
2 0.24 0.1
2 0.26 0
2 0.26 0.1
2 0.28 0
2 0.28 0.1
2 0.3 0
2 0.3 0.1
2 0.32 0
2 0.32 0.1
2 0.34 0
2 0.34 0.1
2 0.36 0
2 0.36 0.1
2 0.38 0
2 0.38 0.1
2 0.4 0
2 0.4 0.1
2 0.42 0
2 0.42 0.1
2 0.44 0
2 0.44 0.1
2 0.46 0
2 0.46 0.1
2 0.48 0
2 0.48 0.1
2 0.5 0
2 0.5 0.1
2 0.52 0
2 0.52 0.1
2 0.54 0
2 0.54 0.1
2 0.56 0
2 0.56 0.1
2 0.58 0
2 0.58 0.1
2 0.6 0
2 0.6 0.1
2 0.62 0
2 0.62 0.1
2 0.64 0
2 0.64 0.1
2 0.66 0
2 0.66 0.1
2 0.68 0
2 0.68 0.1
2 0.7 0
2 0.7 0.1
2 0.72 0
2 0.72 0.1
2 0.74 0
2 0.74 0.1
2 0.76 0
2 0.76 0.1
2 0.78 0
2 0.78 0.1
2 0.8 0
2 0.8 0.1
2 0.82 0
2 0.82 0.1
2 0.84 0
2 0.84 0.1
2 0.86 0
2 0.86 0.1
2 0.88 0
2 0.88 0.1
2 0.9 0
2 0.9 0.1
2 0.92 0
2 0.92 0.1
2 0.94 0
2 0.94 0.1
2 0.96 0
2 0.96 0.1
2 0.98 0
2 0.98 0.1
2 1 0
2 1 0.1
2.02 1 0
2.02 1 0.1
2.04 1 0
2.04 1 0.1
2.06 1 0
2.06 1 0.1
2.08 1 0
2.08 1 0.1
2.1 1 0
2.1 1 0.1
2.12 1 0
2.12 1 0.1
2.14 1 0
2.14 1 0.1
2.16 1 0
2.16 1 0.1
2.18 1 0
2.18 1 0.1
2.2 1 0
2.2 1 0.1
2.22 1 0
2.22 1 0.1
2.24 1 0
2.24 1 0.1
2.26 1 0
2.26 1 0.1
2.28 1 0
2.28 1 0.1
2.3 1 0
2.3 1 0.1
2.32 1 0
2.32 1 0.1
2.34 1 0
2.34 1 0.1
2.36 1 0
2.36 1 0.1
2.38 1 0
2.38 1 0.1
2.4 1 0
2.4 1 0.1
2.42 1 0
2.42 1 0.1
2.44 1 0
2.44 1 0.1
2.46 1 0
2.46 1 0.1
2.48 1 0
2.48 1 0.1
2.5 1 0
2.5 1 0.1
2.5 0 0
2.5 0 0.1
2.5 0.02 0.1
2.5 0.02 0
2.5 0.04 0.1
2.5 0.04 0
2.5 0.06 0.1
2.5 0.06 0
2.5 0.08 0.1
2.5 0.08 0
2.5 0.1 0.1
2.5 0.1 0
2.5 0.12 0.1
2.5 0.12 0
2.5 0.14 0.1
2.5 0.14 0
2.5 0.16 0.1
2.5 0.16 0
2.5 0.18 0.1
2.5 0.18 0
2.5 0.2 0.1
2.5 0.2 0
2.5 0.22 0.1
2.5 0.22 0
2.5 0.24 0.1
2.5 0.24 0
2.5 0.26 0.1
2.5 0.26 0
2.5 0.28 0.1
2.5 0.28 0
2.5 0.3 0.1
2.5 0.3 0
2.5 0.32 0.1
2.5 0.32 0
2.5 0.34 0.1
2.5 0.34 0
2.5 0.36 0.1
2.5 0.36 0
2.5 0.38 0.1
2.5 0.38 0
2.5 0.4 0.1
2.5 0.4 0
2.5 0.42 0.1
2.5 0.42 0
2.5 0.44 0.1
2.5 0.44 0
2.5 0.46 0.1
2.5 0.46 0
2.5 0.48 0.1
2.5 0.48 0
2.5 0.5 0.1
2.5 0.5 0
2.5 0.52 0.1
2.5 0.52 0
2.5 0.54 0.1
2.5 0.54 0
2.5 0.56 0.1
2.5 0.56 0
2.5 0.58 0.1
2.5 0.58 0
2.5 0.6 0.1
2.5 0.6 0
2.5 0.62 0.1
2.5 0.62 0
2.5 0.64 0.1
2.5 0.64 0
2.5 0.66 0.1
2.5 0.66 0
2.5 0.68 0.1
2.5 0.68 0
2.5 0.7 0.1
2.5 0.7 0
2.5 0.72 0.1
2.5 0.72 0
2.5 0.74 0.1
2.5 0.74 0
2.5 0.76 0.1
2.5 0.76 0
2.5 0.78 0.1
2.5 0.78 0
2.5 0.8 0.1
2.5 0.8 0
2.5 0.82 0.1
2.5 0.82 0
2.5 0.84 0.1
2.5 0.84 0
2.5 0.86 0.1
2.5 0.86 0
2.5 0.88 0.1
2.5 0.88 0
2.5 0.9 0.1
2.5 0.9 0
2.5 0.92 0.1
2.5 0.92 0
2.5 0.94 0.1
2.5 0.94 0
2.5 0.96 0.1
2.5 0.96 0
2.5 0.98 0.1
2.5 0.98 0
2.52 0 0
2.52 0 0.1
2.54 0 0
2.54 0 0.1
2.56 0 0
2.56 0 0.1
2.58 0 0
2.58 0 0.1
2.6 0 0
2.6 0 0.1
2.62 0 0
2.62 0 0.1
2.64 0 0
2.64 0 0.1
2.66 0 0
2.66 0 0.1
2.68 0 0
2.68 0 0.1
2.7 0 0
2.7 0 0.1
2.72 0 0
2.72 0 0.1
2.74 0 0
2.74 0 0.1
2.76 0 0
2.76 0 0.1
2.78 0 0
2.78 0 0.1
2.8 0 0
2.8 0 0.1
2.82 0 0
2.82 0 0.1
2.84 0 0
2.84 0 0.1
2.86 0 0
2.86 0 0.1
2.88 0 0
2.88 0 0.1
2.9 0 0
2.9 0 0.1
2.92 0 0
2.92 0 0.1
2.94 0 0
2.94 0 0.1
2.96 0 0
2.96 0 0.1
2.98 0 0
2.98 0 0.1
3 0 0
3 0 0.1
3.02 0 0
3.02 0 0.1
3.04 0 0
3.04 0 0.1
3.06 0 0
3.06 0 0.1
3.08 0 0
3.08 0 0.1
3.1 0 0
3.1 0 0.1
3.12 0 0
3.12 0 0.1
3.14 0 0
3.14 0 0.1
3.16 0 0
3.16 0 0.1
3.18 0 0
3.18 0 0.1
3.2 0 0
3.2 0 0.1
3.22 0 0
3.22 0 0.1
3.24 0 0
3.24 0 0.1
3.26 0 0
3.26 0 0.1
3.28 0 0
3.28 0 0.1
3.3 0 0
3.3 0 0.1
3.32 0 0
3.32 0 0.1
3.34 0 0
3.34 0 0.1
3.36 0 0
3.36 0 0.1
3.38 0 0
3.38 0 0.1
3.4 0 0
3.4 0 0.1
3.42 0 0
3.42 0 0.1
3.44 0 0
3.44 0 0.1
3.46 0 0
3.46 0 0.1
3.48 0 0
3.48 0 0.1
3.5 0 0
3.5 0 0.1
3.52 0 0
3.52 0 0.1
3.54 0 0
3.54 0 0.1
3.56 0 0
3.56 0 0.1
3.58 0 0
3.58 0 0.1
3.6 0 0
3.6 0 0.1
3.62 0 0
3.62 0 0.1
3.64 0 0
3.64 0 0.1
3.66 0 0
3.66 0 0.1
3.68 0 0
3.68 0 0.1
3.7 0 0
3.7 0 0.1
3.72 0 0
3.72 0 0.1
3.74 0 0
3.74 0 0.1
3.76 0 0
3.76 0 0.1
3.78 0 0
3.78 0 0.1
3.8 0 0
3.8 0 0.1
3.82 0 0
3.82 0 0.1
3.84 0 0
3.84 0 0.1
3.86 0 0
3.86 0 0.1
3.88 0 0
3.88 0 0.1
3.9 0 0
3.9 0 0.1
3.92 0 0
3.92 0 0.1
3.94 0 0
3.94 0 0.1
3.96 0 0
3.96 0 0.1
3.98 0 0
3.98 0 0.1
4 0 0
4 0 0.1
4.02 0 0
4.02 0 0.1
4.04 0 0
4.04 0 0.1
4.06 0 0
4.06 0 0.1
4.08 0 0
4.08 0 0.1
4.1 0 0
4.1 0 0.1
4.12 0 0
4.12 0 0.1
4.14 0 0
4.14 0 0.1
4.16 0 0
4.16 0 0.1
4.18 0 0
4.18 0 0.1
4.2 0 0
4.2 0 0.1
4.22 0 0
4.22 0 0.1
4.24 0 0
4.24 0 0.1
4.26 0 0
4.26 0 0.1
4.28 0 0
4.28 0 0.1
4.3 0 0
4.3 0 0.1
4.32 0 0
4.32 0 0.1
4.34 0 0
4.34 0 0.1
4.36 0 0
4.36 0 0.1
4.38 0 0
4.38 0 0.1
4.4 0 0
4.4 0 0.1
4.42 0 0
4.42 0 0.1
4.44 0 0
4.44 0 0.1
4.46 0 0
4.46 0 0.1
4.48 0 0
4.48 0 0.1
4.5 0 0
4.5 0 0.1

POLYGONS 325 1625
4 0 1 2 3
4 1 4 5 2
4 4 6 7 5
4 6 8 9 7
4 8 10 11 9
4 10 12 13 11
4 12 14 15 13
4 14 16 17 15
4 16 18 19 17
4 18 20 21 19
4 20 22 23 21
4 22 24 25 23
4 24 26 27 25
4 26 28 29 27
4 28 30 31 29
4 30 32 33 31
4 32 34 35 33
4 34 36 37 35
4 36 38 39 37
4 38 40 41 39
4 40 42 43 41
4 42 44 45 43
4 44 46 47 45
4 46 48 49 47
4 48 50 51 49
4 50 52 53 51
4 52 54 55 53
4 54 56 57 55
4 56 58 59 57
4 58 60 61 59
4 60 62 63 61
4 62 64 65 63
4 64 66 67 65
4 66 68 69 67
4 68 70 71 69
4 70 72 73 71
4 72 74 75 73
4 74 76 77 75
4 76 78 79 77
4 78 80 81 79
4 80 82 83 81
4 82 84 85 83
4 84 86 87 85
4 86 88 89 87
4 88 90 91 89
4 90 92 93 91
4 92 94 95 93
4 94 96 97 95
4 96 98 99 97
4 98 100 101 99
4 100 102 103 101
4 102 104 105 103
4 104 106 107 105
4 106 108 109 107
4 108 110 111 109
4 110 112 113 111
4 112 114 115 113
4 114 116 117 115
4 116 118 119 117
4 118 120 121 119
4 120 122 123 121
4 122 124 125 123
4 124 126 127 125
4 126 128 129 127
4 128 130 131 129
4 130 132 133 131
4 132 134 135 133
4 134 136 137 135
4 136 138 139 137
4 138 140 141 139
4 140 142 143 141
4 142 144 145 143
4 144 146 147 145
4 146 148 149 147
4 148 150 151 149
4 150 152 153 151
4 152 154 155 153
4 154 156 157 155
4 156 158 159 157
4 158 160 161 159
4 160 162 163 161
4 162 164 165 163
4 164 166 167 165
4 166 168 169 167
4 168 170 171 169
4 170 172 173 171
4 172 174 175 173
4 174 176 177 175
4 176 178 179 177
4 178 180 181 179
4 180 182 183 181
4 182 184 185 183
4 184 186 187 185
4 186 188 189 187
4 188 190 191 189
4 190 192 193 191
4 192 194 195 193
4 194 196 197 195
4 196 198 199 197
4 198 200 201 199
4 200 202 203 201
4 202 204 205 203
4 204 206 207 205
4 206 208 209 207
4 208 210 211 209
4 210 212 213 211
4 212 214 215 213
4 214 216 217 215
4 216 218 219 217
4 218 220 221 219
4 220 222 223 221
4 222 224 225 223
4 224 226 227 225
4 226 228 229 227
4 228 230 231 229
4 230 232 233 231
4 232 234 235 233
4 234 236 237 235
4 236 238 239 237
4 238 240 241 239
4 240 242 243 241
4 242 244 245 243
4 244 246 247 245
4 246 248 249 247
4 248 250 251 249
4 250 252 253 251
4 252 254 255 253
4 254 256 257 255
4 256 258 259 257
4 258 260 261 259
4 260 262 263 261
4 262 264 265 263
4 264 266 267 265
4 266 268 269 267
4 268 270 271 269
4 270 272 273 271
4 272 274 275 273
4 274 276 277 275
4 276 278 279 277
4 278 280 281 279
4 280 282 283 281
4 282 284 285 283
4 284 286 287 285
4 286 288 289 287
4 288 290 291 289
4 290 292 293 291
4 292 294 295 293
4 294 296 297 295
4 296 298 299 297
4 298 300 301 299
4 300 302 303 301
4 302 304 305 303
4 304 306 307 305
4 306 308 309 307
4 308 310 311 309
4 310 312 313 311
4 312 314 315 313
4 314 316 317 315
4 316 318 319 317
4 318 320 321 319
4 320 322 323 321
4 322 324 325 323
4 324 326 327 325
4 326 328 329 327
4 328 330 331 329
4 330 332 333 331
4 332 334 335 333
4 334 336 337 335
4 336 338 339 337
4 338 340 341 339
4 340 342 343 341
4 342 344 345 343
4 344 346 347 345
4 346 348 349 347
4 348 350 351 349
4 352 353 354 355
4 355 354 356 357
4 357 356 358 359
4 359 358 360 361
4 361 360 362 363
4 363 362 364 365
4 365 364 366 367
4 367 366 368 369
4 369 368 370 371
4 371 370 372 373
4 373 372 374 375
4 375 374 376 377
4 377 376 378 379
4 379 378 380 381
4 381 380 382 383
4 383 382 384 385
4 385 384 386 387
4 387 386 388 389
4 389 388 390 391
4 391 390 392 393
4 393 392 394 395
4 395 394 396 397
4 397 396 398 399
4 399 398 400 401
4 401 400 402 403
4 403 402 404 405
4 405 404 406 407
4 407 406 408 409
4 409 408 410 411
4 411 410 412 413
4 413 412 414 415
4 415 414 416 417
4 417 416 418 419
4 419 418 420 421
4 421 420 422 423
4 423 422 424 425
4 425 424 426 427
4 427 426 428 429
4 429 428 430 431
4 431 430 432 433
4 433 432 434 435
4 435 434 436 437
4 437 436 438 439
4 439 438 440 441
4 441 440 442 443
4 443 442 444 445
4 445 444 446 447
4 447 446 448 449
4 449 448 450 451
4 451 450 351 350
4 352 452 453 353
4 452 454 455 453
4 454 456 457 455
4 456 458 459 457
4 458 460 461 459
4 460 462 463 461
4 462 464 465 463
4 464 466 467 465
4 466 468 469 467
4 468 470 471 469
4 470 472 473 471
4 472 474 475 473
4 474 476 477 475
4 476 478 479 477
4 478 480 481 479
4 480 482 483 481
4 482 484 485 483
4 484 486 487 485
4 486 488 489 487
4 488 490 491 489
4 490 492 493 491
4 492 494 495 493
4 494 496 497 495
4 496 498 499 497
4 498 500 501 499
4 500 502 503 501
4 502 504 505 503
4 504 506 507 505
4 506 508 509 507
4 508 510 511 509
4 510 512 513 511
4 512 514 515 513
4 514 516 517 515
4 516 518 519 517
4 518 520 521 519
4 520 522 523 521
4 522 524 525 523
4 524 526 527 525
4 526 528 529 527
4 528 530 531 529
4 530 532 533 531
4 532 534 535 533
4 534 536 537 535
4 536 538 539 537
4 538 540 541 539
4 540 542 543 541
4 542 544 545 543
4 544 546 547 545
4 546 548 549 547
4 548 550 551 549
4 550 552 553 551
4 552 554 555 553
4 554 556 557 555
4 556 558 559 557
4 558 560 561 559
4 560 562 563 561
4 562 564 565 563
4 564 566 567 565
4 566 568 569 567
4 568 570 571 569
4 570 572 573 571
4 572 574 575 573
4 574 576 577 575
4 576 578 579 577
4 578 580 581 579
4 580 582 583 581
4 582 584 585 583
4 584 586 587 585
4 586 588 589 587
4 588 590 591 589
4 590 592 593 591
4 592 594 595 593
4 594 596 597 595
4 596 598 599 597
4 598 600 601 599
4 600 602 603 601
4 602 604 605 603
4 604 606 607 605
4 606 608 609 607
4 608 610 611 609
4 610 612 613 611
4 612 614 615 613
4 614 616 617 615
4 616 618 619 617
4 618 620 621 619
4 620 622 623 621
4 622 624 625 623
4 624 626 627 625
4 626 628 629 627
4 628 630 631 629
4 630 632 633 631
4 632 634 635 633
4 634 636 637 635
4 636 638 639 637
4 638 640 641 639
4 640 642 643 641
4 642 644 645 643
4 644 646 647 645
4 646 648 649 647
4 648 650 651 649
POINT_DATA 652
FIELD attributes 1
U 3 652 float
2.59139 -0.0170254 -0.0052302
1.2962 -0.00851017 -0.0026151
1.2962 -0.00851017 -0.0026151
2.59139 -0.0170254 -0.0052302
0.00100814 3.40103e-06 0
0.00100814 3.40103e-06 0
0.0010019 5.91452e-07 0
0.0010019 5.91452e-07 0
0.00100018 -5.76631e-07 0
0.00100018 -5.76631e-07 0
0.00100023 2.07772e-07 0
0.00100023 2.07772e-07 0
0.00100014 1.45967e-06 0
0.00100014 1.45967e-06 0
0.000999592 1.65975e-06 0
0.000999592 1.65975e-06 0
0.00099844 8.5666e-07 0
0.00099844 8.5666e-07 0
0.000996317 -2.27242e-08 0
0.000996317 -2.27242e-08 0
0.000993112 -3.15391e-07 0
0.000993112 -3.15391e-07 0
0.000989403 3.86551e-08 0
0.000989403 3.86551e-08 0
0.000986202 7.11503e-07 0
0.000986202 7.11503e-07 0
0.000984123 1.35206e-06 0
0.000984123 1.35206e-06 0
0.000982784 1.82941e-06 0
0.000982784 1.82941e-06 0
0.000981047 2.15631e-06 0
0.000981047 2.15631e-06 0
0.000977956 2.25776e-06 0
0.000977956 2.25776e-06 0
0.000973573 1.9527e-06 0
0.000973573 1.9527e-06 0
0.000968874 1.21049e-06 0
0.000968874 1.21049e-06 0
0.000964768 3.80908e-07 0
0.000964768 3.80908e-07 0
0.000961303 -3.63789e-09 0
0.000961303 -3.63789e-09 0
0.000957829 2.42639e-07 0
0.000957829 2.42639e-07 0
0.000953821 7.55723e-07 0
0.000953821 7.55723e-07 0
0.000949428 1.05338e-06 0
0.000949428 1.05338e-06 0
0.000945196 1.14039e-06 0
0.000945196 1.14039e-06 0
0.000941372 1.55682e-06 0
0.000941372 1.55682e-06 0
0.00093759 2.71958e-06 0
0.00093759 2.71958e-06 0
0.000933248 4.28714e-06 0
0.000933248 4.28714e-06 0
0.000928142 5.32446e-06 0
0.000928142 5.32446e-06 0
0.000922661 5.1763e-06 0
0.000922661 5.1763e-06 0
0.000917326 4.18253e-06 0
0.000917326 4.18253e-06 0
0.000912202 3.46887e-06 0
0.000912202 3.46887e-06 0
0.000906783 3.95158e-06 0
0.000906783 3.95158e-06 0
0.000900465 5.49664e-06 0
0.000900465 5.49664e-06 0
0.000893153 7.02152e-06 0
0.000893153 7.02152e-06 0
0.0008854 7.42347e-06 0
0.0008854 7.42347e-06 0
0.000877958 6.50157e-06 0
0.000877958 6.50157e-06 0
0.000871141 5.09891e-06 0
0.000871141 5.09891e-06 0
0.000864526 4.41103e-06 0
0.000864526 4.41103e-06 0
0.000857164 5.10282e-06 0
0.000857164 5.10282e-06 0
0.000848128 6.91141e-06 0
0.000848128 6.91141e-06 0
0.000837037 8.9269e-06 0
0.000837037 8.9269e-06 0
0.000824233 1.02386e-05 0
0.000824233 1.02386e-05 0
0.000810538 1.04429e-05 0
0.000810538 1.04429e-05 0
0.00079682 9.71909e-06 0
0.00079682 9.71909e-06 0
0.000783651 8.55829e-06 0
0.000783651 8.55829e-06 0
0.000771212 7.43028e-06 0
0.000771212 7.43028e-06 0
0.000759387 6.59958e-06 0
0.000759387 6.59958e-06 0
0.000747935 6.11958e-06 0
0.000747935 6.11958e-06 0
0.000736614 5.91939e-06 0
0.000736614 5.91939e-06 0
0.000725252 5.89442e-06 0
0.000725252 5.89442e-06 0
0.000713748 5.95921e-06 0
0.000713748 5.95921e-06 0
0.000702055 6.06182e-06 0
0.000702055 6.06182e-06 0
0.000690157 6.17741e-06 0
0.000690157 6.17741e-06 0
0.000678046 6.29667e-06 0
0.000678046 6.29667e-06 0
0.000665722 6.41704e-06 0
0.000665722 6.41704e-06 0
0.000653183 6.53806e-06 0
0.000653183 6.53806e-06 0
0.000640427 6.65962e-06 0
0.000640427 6.65962e-06 0
0.000627451 6.7815e-06 0
0.000627451 6.7815e-06 0
0.000614253 6.90341e-06 0
0.000614253 6.90341e-06 0
0.000600831 7.02499e-06 0
0.000600831 7.02499e-06 0
0.000587184 7.14589e-06 0
0.000587184 7.14589e-06 0
0.000573311 7.26572e-06 0
0.000573311 7.26572e-06 0
0.000559211 7.38382e-06 0
0.000559211 7.38382e-06 0
0.000544885 7.49915e-06 0
0.000544885 7.49915e-06 0
0.000530334 7.61045e-06 0
0.000530334 7.61045e-06 0
0.00051556 7.71652e-06 0
0.00051556 7.71652e-06 0
0.000500566 7.81623e-06 0
0.000500566 7.81623e-06 0
0.000485355 7.90842e-06 0
0.000485355 7.90842e-06 0
0.000469935 7.99187e-06 0
0.000469935 7.99187e-06 0
0.000454312 8.06527e-06 0
0.000454312 8.06527e-06 0
0.000438495 8.12718e-06 0
0.000438495 8.12718e-06 0
0.000422495 8.17607e-06 0
0.000422495 8.17607e-06 0
0.000406327 8.21025e-06 0
0.000406327 8.21025e-06 0
0.000390004 8.22794e-06 0
0.000390004 8.22794e-06 0
0.000373546 8.2273e-06 0
0.000373546 8.2273e-06 0
0.000356974 8.20641e-06 0
0.000356974 8.20641e-06 0
0.000340309 8.16334e-06 0
0.000340309 8.16334e-06 0
0.00032358 8.09621e-06 0
0.00032358 8.09621e-06 0
0.000306814 8.00329e-06 0
0.000306814 8.00329e-06 0
0.000290044 7.88309e-06 0
0.000290044 7.88309e-06 0
0.000273304 7.73441e-06 0
0.000273304 7.73441e-06 0
0.00025663 7.55642e-06 0
0.00025663 7.55642e-06 0
0.000240062 7.34885e-06 0
0.000240062 7.34885e-06 0
0.000223637 7.11207e-06 0
0.000223637 7.11207e-06 0
0.000207396 6.84733e-06 0
0.000207396 6.84733e-06 0
0.000191378 6.55678e-06 0
0.000191378 6.55678e-06 0
0.000175619 6.24356e-06 0
0.000175619 6.24356e-06 0
0.000160154 5.91184e-06 0
0.000160154 5.91184e-06 0
0.000145011 5.56683e-06 0
0.000145011 5.56683e-06 0
0.000130214 5.2147e-06 0
0.000130214 5.2147e-06 0
0.000115779 4.86248e-06 0
0.000115779 4.86248e-06 0
0.000101713 4.51786e-06 0
0.000101713 4.51786e-06 0
8.80137e-05 4.18895e-06 0
8.80137e-05 4.18895e-06 0
7.46674e-05 3.88399e-06 0
7.46674e-05 3.88399e-06 0
6.16507e-05 3.61085e-06 0
6.16507e-05 3.61085e-06 0
4.89293e-05 3.37682e-06 0
4.89293e-05 3.37682e-06 0
3.64578e-05 3.18716e-06 0
3.64578e-05 3.18716e-06 0
2.41867e-05 3.04234e-06 0
2.41867e-05 3.04234e-06 0
1.20519e-05 2.95766e-06 0
1.20519e-05 2.95766e-06 0
6.00836e-06 2.93449e-06 0
6.00836e-06 2.93449e-06 0
8.37747e-06 1.21563e-05 0
8.37747e-06 1.21563e-05 0
1.09834e-05 3.34826e-05 0
1.09834e-05 3.34826e-05 0
1.09488e-05 5.62012e-05 0
1.09488e-05 5.62012e-05 0
1.04293e-05 7.73702e-05 0
1.04293e-05 7.73702e-05 0
1.0046e-05 9.79443e-05 0
1.0046e-05 9.79443e-05 0
9.86335e-06 0.000117813 0
9.86335e-06 0.000117813 0
9.8181e-06 0.000137499 0
9.8181e-06 0.000137499 0
9.84699e-06 0.000157208 0
9.84699e-06 0.000157208 0
9.91122e-06 0.00017702 0
9.91122e-06 0.00017702 0
9.99208e-06 0.000196978 0
9.99208e-06 0.000196978 0
1.00823e-05 0.000217108 0
1.00823e-05 0.000217108 0
1.01801e-05 0.000237426 0
1.01801e-05 0.000237426 0
1.02857e-05 0.000257946 0
1.02857e-05 0.000257946 0
1.04001e-05 0.000278686 0
1.04001e-05 0.000278686 0
1.05242e-05 0.000299664 0
1.05242e-05 0.000299664 0
1.06592e-05 0.0003209 0
1.06592e-05 0.0003209 0
1.08061e-05 0.000342417 0
1.08061e-05 0.000342417 0
1.09661e-05 0.00036424 0
1.09661e-05 0.00036424 0
1.11403e-05 0.000386396 0
1.11403e-05 0.000386396 0
1.133e-05 0.000408915 0
1.133e-05 0.000408915 0
1.15365e-05 0.000431829 0
1.15365e-05 0.000431829 0
1.17622e-05 0.000455174 0
1.17622e-05 0.000455174 0
1.20078e-05 0.000478988 0
1.20078e-05 0.000478988 0
1.22766e-05 0.000503316 0
1.22766e-05 0.000503316 0
1.25699e-05 0.000528203 0
1.25699e-05 0.000528203 0
1.2893e-05 0.000553706 0
1.2893e-05 0.000553706 0
1.32447e-05 0.000579878 0
1.32447e-05 0.000579878 0
1.36357e-05 0.000606794 0
1.36357e-05 0.000606794 0
1.40615e-05 0.000634519 0
1.40615e-05 0.000634519 0
1.4541e-05 0.000663153 0
1.4541e-05 0.000663153 0
1.50616e-05 0.000692772 0
1.50616e-05 0.000692772 0
1.56613e-05 0.000723518 0
1.56613e-05 0.000723518 0
1.63004e-05 0.000755479 0
1.63004e-05 0.000755479 0
1.70714e-05 0.000788869 0
1.70714e-05 0.000788869 0
1.7871e-05 0.000823779 0
1.7871e-05 0.000823779 0
1.88958e-05 0.000860556 0
1.88958e-05 0.000860556 0
1.9898e-05 0.000899252 0
1.9898e-05 0.000899252 0
2.13422e-05 0.000940503 0
2.13422e-05 0.000940503 0
2.25936e-05 0.000984208 0
2.25936e-05 0.000984208 0
2.48111e-05 0.00103162 0
2.48111e-05 0.00103162 0
2.63055e-05 0.00108222 0
2.63055e-05 0.00108222 0
3.01206e-05 0.00113859 0
3.01206e-05 0.00113859 0
3.1718e-05 0.00119929 0
3.1718e-05 0.00119929 0
3.91661e-05 0.0012697 0
3.91661e-05 0.0012697 0
4.07273e-05 0.00134707 0
4.07273e-05 0.00134707 0
5.7783e-05 0.00144253 0
5.7783e-05 0.00144253 0
6.11638e-05 0.00155454 0
6.11638e-05 0.00155454 0
0.000109837 0.00170355 0
0.000109837 0.00170355 0
0.00013262 0.00190275 0
0.00013262 0.00190275 0
0.000139773 0.00122009 0
0.000139773 0.00122009 0
-0.00031198 0.000204783 0
-0.00031198 0.000204783 0
-0.00046914 -5.89937e-05 0
-0.00046914 -5.89937e-05 0
-0.000188177 -0.000128069 0
-0.000188177 -0.000128069 0
0.000233026 -0.000295514 0
0.000233026 -0.000295514 0
0.000900147 -0.000265019 0
0.000900147 -0.000265019 0
0.000991061 4.09665e-05 0
0.000991061 4.09665e-05 0
0.000702278 0.000145903 0
0.000702278 0.000145903 0
0.000332336 0.000139737 0
0.000332336 0.000139737 0
-0.000254402 0.000307964 0
-0.000254402 0.000307964 0
-0.00108595 0.000441953 0
-0.00108595 0.000441953 0
-0.0018392 0.000401229 0
-0.0018392 0.000401229 0
-0.00245832 0.000321562 0
-0.00245832 0.000321562 0
-0.00293878 0.00023677 0
-0.00293878 0.00023677 0
-0.00327164 0.000152729 0
-0.00327164 0.000152729 0
-0.00345864 7.35895e-05 0
-0.00345864 7.35895e-05 0
-0.00350561 1.61097e-06 0
-0.00350561 1.61097e-06 0
-0.00343047 -6.02098e-05 0
-0.00343047 -6.02098e-05 0
-0.00325185 -0.000110704 0
-0.00325185 -0.000110704 0
-0.00298926 -0.000149934 0
-0.00298926 -0.000149934 0
-0.00266442 -0.000178511 0
-0.00266442 -0.000178511 0
-0.00229714 -0.000197845 0
-0.00229714 -0.000197845 0
-0.00190298 -0.000210073 0
-0.00190298 -0.000210073 0
-0.00149584 -0.000215071 0
-0.00149584 -0.000215071 0
-0.00109201 -0.000202252 0
-0.00109201 -0.000202252 0
-0.00044417 1.38331e-05 0
-0.00044417 1.38331e-05 0
-6.7916e-06 6.07526e-06 0
-6.7916e-06 6.07526e-06 0
-6.88422e-06 1.22683e-05 0
-6.88422e-06 1.22683e-05 0
-6.97646e-06 2.47586e-05 0
-6.97646e-06 2.47586e-05 0
-7.02485e-06 3.73945e-05 0
-7.02485e-06 3.73945e-05 0
-7.1434e-06 5.02116e-05 0
-7.1434e-06 5.02116e-05 0
-7.30008e-06 6.33452e-05 0
-7.30008e-06 6.33452e-05 0
-7.49162e-06 7.68703e-05 0
-7.49162e-06 7.68703e-05 0
-7.71761e-06 9.08643e-05 0
-7.71761e-06 9.08643e-05 0
-7.97765e-06 0.000105405 0
-7.97765e-06 0.000105405 0
-8.2712e-06 0.000120569 0
-8.2712e-06 0.000120569 0
-8.59678e-06 0.000136431 0
-8.59678e-06 0.000136431 0
-8.95307e-06 0.000153063 0
-8.95307e-06 0.000153063 0
-9.33761e-06 0.000170534 0
-9.33761e-06 0.000170534 0
-9.74691e-06 0.000188904 0
-9.74691e-06 0.000188904 0
-1.01765e-05 0.000208227 0
-1.01765e-05 0.000208227 0
-1.06203e-05 0.000228545 0
-1.06203e-05 0.000228545 0
-1.10699e-05 0.000249884 0
-1.10699e-05 0.000249884 0
-1.15158e-05 0.000272248 0
-1.15158e-05 0.000272248 0
-1.19433e-05 0.000295623 0
-1.19433e-05 0.000295623 0
-1.23387e-05 0.000319949 0
-1.23387e-05 0.000319949 0
-1.26769e-05 0.00034515 0
-1.26769e-05 0.00034515 0
-1.29409e-05 0.000371086 0
-1.29409e-05 0.000371086 0
-1.31004e-05 0.000397583 0
-1.31004e-05 0.000397583 0
-1.31153e-05 0.000424404 0
-1.31153e-05 0.000424404 0
-1.29678e-05 0.000451223 0
-1.29678e-05 0.000451223 0
-1.26197e-05 0.00047768 0
-1.26197e-05 0.00047768 0
-1.20158e-05 0.000503317 0
-1.20158e-05 0.000503317 0
-1.11283e-05 0.000527551 0
-1.11283e-05 0.000527551 0
-9.94925e-06 0.000549797 0
-9.94925e-06 0.000549797 0
-8.43912e-06 0.000569383 0
-8.43912e-06 0.000569383 0
-6.53613e-06 0.000585594 0
-6.53613e-06 0.000585594 0
-4.21298e-06 0.000597571 0
-4.21298e-06 0.000597571 0
-1.48618e-06 0.000604588 0
-1.48618e-06 0.000604588 0
1.68372e-06 0.000605841 0
1.68372e-06 0.000605841 0
5.38827e-06 0.000600632 0
5.38827e-06 0.000600632 0
9.59348e-06 0.000588008 0
9.59348e-06 0.000588008 0
1.42238e-05 0.000567677 0
1.42238e-05 0.000567677 0
1.91835e-05 0.000538727 0
1.91835e-05 0.000538727 0
2.45162e-05 0.000501146 0
2.45162e-05 0.000501146 0
3.03292e-05 0.000454014 0
3.03292e-05 0.000454014 0
3.72271e-05 0.000397324 0
3.72271e-05 0.000397324 0
4.47402e-05 0.000329001 0
4.47402e-05 0.000329001 0
5.36956e-05 0.000248664 0
5.36956e-05 0.000248664 0
6.314e-05 0.000155847 0
6.314e-05 0.000155847 0
7.3051e-05 4.75699e-05 0
7.3051e-05 4.75699e-05 0
5.78674e-05 -6.50791e-05 0
5.78674e-05 -6.50791e-05 0
-2.09108e-05 -0.000152291 0
-2.09108e-05 -0.000152291 0
-0.00013491 -0.000114839 0
-0.00013491 -0.000114839 0
-0.000199235 -3.14827e-06 0
-0.000199235 -3.14827e-06 0
-0.000101439 0.00012784 0
-0.000101439 0.00012784 0
-1.22654e-05 5.77706e-06 0
-1.22654e-05 5.77706e-06 0
-2.32614e-05 5.54468e-06 0
-2.32614e-05 5.54468e-06 0
-3.45515e-05 5.58305e-06 0
-3.45515e-05 5.58305e-06 0
-4.57461e-05 5.48058e-06 0
-4.57461e-05 5.48058e-06 0
-5.65783e-05 5.30836e-06 0
-5.65783e-05 5.30836e-06 0
-6.70365e-05 5.09254e-06 0
-6.70365e-05 5.09254e-06 0
-7.69649e-05 4.83446e-06 0
-7.69649e-05 4.83446e-06 0
-8.63471e-05 4.53284e-06 0
-8.63471e-05 4.53284e-06 0
-9.50436e-05 4.18829e-06 0
-9.50436e-05 4.18829e-06 0
-0.000103009 3.80192e-06 0
-0.000103009 3.80192e-06 0
-0.000110134 3.37304e-06 0
-0.000110134 3.37304e-06 0
-0.000116353 2.90244e-06 0
-0.000116353 2.90244e-06 0
-0.000121581 2.39113e-06 0
-0.000121581 2.39113e-06 0
-0.00012575 1.84175e-06 0
-0.00012575 1.84175e-06 0
-0.000128793 1.25855e-06 0
-0.000128793 1.25855e-06 0
-0.000130653 6.48175e-07 0
-0.000130653 6.48175e-07 0
-0.00013128 1.99967e-08 0
-0.00013128 1.99967e-08 0
-0.000130647 -6.16166e-07 0
-0.000130647 -6.16166e-07 0
-0.00012874 -1.25535e-06 0
-0.00012874 -1.25535e-06 0
-0.000125549 -1.89607e-06 0
-0.000125549 -1.89607e-06 0
-0.000121074 -2.53377e-06 0
-0.000121074 -2.53377e-06 0
-0.000115324 -3.16348e-06 0
-0.000115324 -3.16348e-06 0
-0.000108323 -3.78027e-06 0
-0.000108323 -3.78027e-06 0
-0.000100103 -4.37808e-06 0
-0.000100103 -4.37808e-06 0
-9.07056e-05 -4.95252e-06 0
-9.07056e-05 -4.95252e-06 0
-8.01826e-05 -5.49908e-06 0
-8.01826e-05 -5.49908e-06 0
-6.85953e-05 -6.01377e-06 0
-6.85953e-05 -6.01377e-06 0
-5.60124e-05 -6.4935e-06 0
-5.60124e-05 -6.4935e-06 0
-4.25066e-05 -6.93538e-06 0
-4.25066e-05 -6.93538e-06 0
-2.81575e-05 -7.33784e-06 0
-2.81575e-05 -7.33784e-06 0
-1.30365e-05 -7.69919e-06 0
-1.30365e-05 -7.69919e-06 0
2.78569e-06 -8.01921e-06 0
2.78569e-06 -8.01921e-06 0
1.92103e-05 -8.29792e-06 0
1.92103e-05 -8.29792e-06 0
3.61419e-05 -8.53507e-06 0
3.61419e-05 -8.53507e-06 0
5.35016e-05 -8.73197e-06 0
5.35016e-05 -8.73197e-06 0
7.12106e-05 -8.89007e-06 0
7.12106e-05 -8.89007e-06 0
8.91934e-05 -9.01109e-06 0
8.91934e-05 -9.01109e-06 0
0.000107379 -9.09698e-06 0
0.000107379 -9.09698e-06 0
0.000125701 -9.1499e-06 0
0.000125701 -9.1499e-06 0
0.000144098 -9.17218e-06 0
0.000144098 -9.17218e-06 0
0.000162511 -9.16624e-06 0
0.000162511 -9.16624e-06 0
0.000180887 -9.13459e-06 0
0.000180887 -9.13459e-06 0
0.000199175 -9.07967e-06 0
0.000199175 -9.07967e-06 0
0.000217331 -9.0039e-06 0
0.000217331 -9.0039e-06 0
0.000235316 -8.90962e-06 0
0.000235316 -8.90962e-06 0
0.000253095 -8.79907e-06 0
0.000253095 -8.79907e-06 0
0.000270638 -8.67437e-06 0
0.000270638 -8.67437e-06 0
0.000287918 -8.53751e-06 0
0.000287918 -8.53751e-06 0
0.000304912 -8.39036e-06 0
0.000304912 -8.39036e-06 0
0.000321602 -8.23462e-06 0
0.000321602 -8.23462e-06 0
0.000337973 -8.07189e-06 0
0.000337973 -8.07189e-06 0
0.000354011 -7.90359e-06 0
0.000354011 -7.90359e-06 0
0.000369708 -7.73103e-06 0
0.000369708 -7.73103e-06 0
0.000385054 -7.55537e-06 0
0.000385054 -7.55537e-06 0
0.000400047 -7.37766e-06 0
0.000400047 -7.37766e-06 0
0.000414682 -7.19883e-06 0
0.000414682 -7.19883e-06 0
0.000428957 -7.01969e-06 0
0.000428957 -7.01969e-06 0
0.000442874 -6.84097e-06 0
0.000442874 -6.84097e-06 0
0.000456434 -6.6633e-06 0
0.000456434 -6.6633e-06 0
0.000469638 -6.4872e-06 0
0.000469638 -6.4872e-06 0
0.000482492 -6.31315e-06 0
0.000482492 -6.31315e-06 0
0.000494999 -6.14153e-06 0
0.000494999 -6.14153e-06 0
0.000507165 -5.97267e-06 0
0.000507165 -5.97267e-06 0
0.000518995 -5.80686e-06 0
0.000518995 -5.80686e-06 0
0.000530496 -5.6443e-06 0
0.000530496 -5.6443e-06 0
0.000541674 -5.48519e-06 0
0.000541674 -5.48519e-06 0
0.000552537 -5.32964e-06 0
0.000552537 -5.32964e-06 0
0.000563092 -5.17778e-06 0
0.000563092 -5.17778e-06 0
0.000573346 -5.02968e-06 0
0.000573346 -5.02968e-06 0
0.000583306 -4.88537e-06 0
0.000583306 -4.88537e-06 0
0.000592982 -4.74489e-06 0
0.000592982 -4.74489e-06 0
0.000602379 -4.60824e-06 0
0.000602379 -4.60824e-06 0
0.000611506 -4.4754e-06 0
0.000611506 -4.4754e-06 0
0.00062037 -4.34635e-06 0
0.00062037 -4.34635e-06 0
0.00062898 -4.22104e-06 0
0.00062898 -4.22104e-06 0
0.000637341 -4.09943e-06 0
0.000637341 -4.09943e-06 0
0.000645463 -3.98145e-06 0
0.000645463 -3.98145e-06 0
0.000653351 -3.86704e-06 0
0.000653351 -3.86704e-06 0
0.000661013 -3.75613e-06 0
0.000661013 -3.75613e-06 0
0.000668456 -3.64864e-06 0
0.000668456 -3.64864e-06 0
0.000675687 -3.54448e-06 0
0.000675687 -3.54448e-06 0
0.000682712 -3.44358e-06 0
0.000682712 -3.44358e-06 0
0.000689538 -3.34584e-06 0
0.000689538 -3.34584e-06 0
0.00069617 -3.25121e-06 0
0.00069617 -3.25121e-06 0
0.000702617 -3.15953e-06 0
0.000702617 -3.15953e-06 0
0.00070888 -3.07082e-06 0
0.00070888 -3.07082e-06 0
0.000714973 -2.98484e-06 0
0.000714973 -2.98484e-06 0
0.000720887 -2.90172e-06 0
0.000720887 -2.90172e-06 0
0.00072665 -2.82105e-06 0
0.00072665 -2.82105e-06 0
0.000732234 -2.74325e-06 0
0.000732234 -2.74325e-06 0
0.000737695 -2.66746e-06 0
0.000737695 -2.66746e-06 0
0.000742957 -2.59476e-06 0
0.000742957 -2.59476e-06 0
0.000748152 -2.5233e-06 0
0.000748152 -2.5233e-06 0
0.000753088 -2.4557e-06 0
0.000753088 -2.4557e-06 0
0.000758071 -2.38778e-06 0
0.000758071 -2.38778e-06 0
0.00076264 -2.32568e-06 0
0.00076264 -2.32568e-06 0
0.000767514 -2.25988e-06 0
0.000767514 -2.25988e-06 0
0.000771594 -2.20465e-06 0
0.000771594 -2.20465e-06 0
0.976228 -0.00260941 0
0.976228 -0.00260941 0
1.95168 -0.00521663 0
1.95168 -0.00521663 0
