# vtk DataFile Version 2.0
sampleSurface
ASCII
DATASET POLYDATA
POINTS 652 double
0 0 0
0.02 0 0
0.02 0 0.1
0 0 0.1
0.04 0 0
0.04 0 0.1
0.06 0 0
0.06 0 0.1
0.08 0 0
0.08 0 0.1
0.1 0 0
0.1 0 0.1
0.12 0 0
0.12 0 0.1
0.14 0 0
0.14 0 0.1
0.16 0 0
0.16 0 0.1
0.18 0 0
0.18 0 0.1
0.2 0 0
0.2 0 0.1
0.22 0 0
0.22 0 0.1
0.24 0 0
0.24 0 0.1
0.26 0 0
0.26 0 0.1
0.28 0 0
0.28 0 0.1
0.3 0 0
0.3 0 0.1
0.32 0 0
0.32 0 0.1
0.34 0 0
0.34 0 0.1
0.36 0 0
0.36 0 0.1
0.38 0 0
0.38 0 0.1
0.4 0 0
0.4 0 0.1
0.42 0 0
0.42 0 0.1
0.44 0 0
0.44 0 0.1
0.46 0 0
0.46 0 0.1
0.48 0 0
0.48 0 0.1
0.5 0 0
0.5 0 0.1
0.52 0 0
0.52 0 0.1
0.54 0 0
0.54 0 0.1
0.56 0 0
0.56 0 0.1
0.58 0 0
0.58 0 0.1
0.6 0 0
0.6 0 0.1
0.62 0 0
0.62 0 0.1
0.64 0 0
0.64 0 0.1
0.66 0 0
0.66 0 0.1
0.68 0 0
0.68 0 0.1
0.7 0 0
0.7 0 0.1
0.72 0 0
0.72 0 0.1
0.74 0 0
0.74 0 0.1
0.76 0 0
0.76 0 0.1
0.78 0 0
0.78 0 0.1
0.8 0 0
0.8 0 0.1
0.82 0 0
0.82 0 0.1
0.84 0 0
0.84 0 0.1
0.86 0 0
0.86 0 0.1
0.88 0 0
0.88 0 0.1
0.9 0 0
0.9 0 0.1
0.92 0 0
0.92 0 0.1
0.94 0 0
0.94 0 0.1
0.96 0 0
0.96 0 0.1
0.98 0 0
0.98 0 0.1
1 0 0
1 0 0.1
1.02 0 0
1.02 0 0.1
1.04 0 0
1.04 0 0.1
1.06 0 0
1.06 0 0.1
1.08 0 0
1.08 0 0.1
1.1 0 0
1.1 0 0.1
1.12 0 0
1.12 0 0.1
1.14 0 0
1.14 0 0.1
1.16 0 0
1.16 0 0.1
1.18 0 0
1.18 0 0.1
1.2 0 0
1.2 0 0.1
1.22 0 0
1.22 0 0.1
1.24 0 0
1.24 0 0.1
1.26 0 0
1.26 0 0.1
1.28 0 0
1.28 0 0.1
1.3 0 0
1.3 0 0.1
1.32 0 0
1.32 0 0.1
1.34 0 0
1.34 0 0.1
1.36 0 0
1.36 0 0.1
1.38 0 0
1.38 0 0.1
1.4 0 0
1.4 0 0.1
1.42 0 0
1.42 0 0.1
1.44 0 0
1.44 0 0.1
1.46 0 0
1.46 0 0.1
1.48 0 0
1.48 0 0.1
1.5 0 0
1.5 0 0.1
1.52 0 0
1.52 0 0.1
1.54 0 0
1.54 0 0.1
1.56 0 0
1.56 0 0.1
1.58 0 0
1.58 0 0.1
1.6 0 0
1.6 0 0.1
1.62 0 0
1.62 0 0.1
1.64 0 0
1.64 0 0.1
1.66 0 0
1.66 0 0.1
1.68 0 0
1.68 0 0.1
1.7 0 0
1.7 0 0.1
1.72 0 0
1.72 0 0.1
1.74 0 0
1.74 0 0.1
1.76 0 0
1.76 0 0.1
1.78 0 0
1.78 0 0.1
1.8 0 0
1.8 0 0.1
1.82 0 0
1.82 0 0.1
1.84 0 0
1.84 0 0.1
1.86 0 0
1.86 0 0.1
1.88 0 0
1.88 0 0.1
1.9 0 0
1.9 0 0.1
1.92 0 0
1.92 0 0.1
1.94 0 0
1.94 0 0.1
1.96 0 0
1.96 0 0.1
1.98 0 0
1.98 0 0.1
2 0 0
2 0 0.1
2 0.02 0
2 0.02 0.1
2 0.04 0
2 0.04 0.1
2 0.06 0
2 0.06 0.1
2 0.08 0
2 0.08 0.1
2 0.1 0
2 0.1 0.1
2 0.12 0
2 0.12 0.1
2 0.14 0
2 0.14 0.1
2 0.16 0
2 0.16 0.1
2 0.18 0
2 0.18 0.1
2 0.2 0
2 0.2 0.1
2 0.22 0
2 0.22 0.1
2 0.24 0
2 0.24 0.1
2 0.26 0
2 0.26 0.1
2 0.28 0
2 0.28 0.1
2 0.3 0
2 0.3 0.1
2 0.32 0
2 0.32 0.1
2 0.34 0
2 0.34 0.1
2 0.36 0
2 0.36 0.1
2 0.38 0
2 0.38 0.1
2 0.4 0
2 0.4 0.1
2 0.42 0
2 0.42 0.1
2 0.44 0
2 0.44 0.1
2 0.46 0
2 0.46 0.1
2 0.48 0
2 0.48 0.1
2 0.5 0
2 0.5 0.1
2 0.52 0
2 0.52 0.1
2 0.54 0
2 0.54 0.1
2 0.56 0
2 0.56 0.1
2 0.58 0
2 0.58 0.1
2 0.6 0
2 0.6 0.1
2 0.62 0
2 0.62 0.1
2 0.64 0
2 0.64 0.1
2 0.66 0
2 0.66 0.1
2 0.68 0
2 0.68 0.1
2 0.7 0
2 0.7 0.1
2 0.72 0
2 0.72 0.1
2 0.74 0
2 0.74 0.1
2 0.76 0
2 0.76 0.1
2 0.78 0
2 0.78 0.1
2 0.8 0
2 0.8 0.1
2 0.82 0
2 0.82 0.1
2 0.84 0
2 0.84 0.1
2 0.86 0
2 0.86 0.1
2 0.88 0
2 0.88 0.1
2 0.9 0
2 0.9 0.1
2 0.92 0
2 0.92 0.1
2 0.94 0
2 0.94 0.1
2 0.96 0
2 0.96 0.1
2 0.98 0
2 0.98 0.1
2 1 0
2 1 0.1
2.02 1 0
2.02 1 0.1
2.04 1 0
2.04 1 0.1
2.06 1 0
2.06 1 0.1
2.08 1 0
2.08 1 0.1
2.1 1 0
2.1 1 0.1
2.12 1 0
2.12 1 0.1
2.14 1 0
2.14 1 0.1
2.16 1 0
2.16 1 0.1
2.18 1 0
2.18 1 0.1
2.2 1 0
2.2 1 0.1
2.22 1 0
2.22 1 0.1
2.24 1 0
2.24 1 0.1
2.26 1 0
2.26 1 0.1
2.28 1 0
2.28 1 0.1
2.3 1 0
2.3 1 0.1
2.32 1 0
2.32 1 0.1
2.34 1 0
2.34 1 0.1
2.36 1 0
2.36 1 0.1
2.38 1 0
2.38 1 0.1
2.4 1 0
2.4 1 0.1
2.42 1 0
2.42 1 0.1
2.44 1 0
2.44 1 0.1
2.46 1 0
2.46 1 0.1
2.48 1 0
2.48 1 0.1
2.5 1 0
2.5 1 0.1
2.5 0 0
2.5 0 0.1
2.5 0.02 0.1
2.5 0.02 0
2.5 0.04 0.1
2.5 0.04 0
2.5 0.06 0.1
2.5 0.06 0
2.5 0.08 0.1
2.5 0.08 0
2.5 0.1 0.1
2.5 0.1 0
2.5 0.12 0.1
2.5 0.12 0
2.5 0.14 0.1
2.5 0.14 0
2.5 0.16 0.1
2.5 0.16 0
2.5 0.18 0.1
2.5 0.18 0
2.5 0.2 0.1
2.5 0.2 0
2.5 0.22 0.1
2.5 0.22 0
2.5 0.24 0.1
2.5 0.24 0
2.5 0.26 0.1
2.5 0.26 0
2.5 0.28 0.1
2.5 0.28 0
2.5 0.3 0.1
2.5 0.3 0
2.5 0.32 0.1
2.5 0.32 0
2.5 0.34 0.1
2.5 0.34 0
2.5 0.36 0.1
2.5 0.36 0
2.5 0.38 0.1
2.5 0.38 0
2.5 0.4 0.1
2.5 0.4 0
2.5 0.42 0.1
2.5 0.42 0
2.5 0.44 0.1
2.5 0.44 0
2.5 0.46 0.1
2.5 0.46 0
2.5 0.48 0.1
2.5 0.48 0
2.5 0.5 0.1
2.5 0.5 0
2.5 0.52 0.1
2.5 0.52 0
2.5 0.54 0.1
2.5 0.54 0
2.5 0.56 0.1
2.5 0.56 0
2.5 0.58 0.1
2.5 0.58 0
2.5 0.6 0.1
2.5 0.6 0
2.5 0.62 0.1
2.5 0.62 0
2.5 0.64 0.1
2.5 0.64 0
2.5 0.66 0.1
2.5 0.66 0
2.5 0.68 0.1
2.5 0.68 0
2.5 0.7 0.1
2.5 0.7 0
2.5 0.72 0.1
2.5 0.72 0
2.5 0.74 0.1
2.5 0.74 0
2.5 0.76 0.1
2.5 0.76 0
2.5 0.78 0.1
2.5 0.78 0
2.5 0.8 0.1
2.5 0.8 0
2.5 0.82 0.1
2.5 0.82 0
2.5 0.84 0.1
2.5 0.84 0
2.5 0.86 0.1
2.5 0.86 0
2.5 0.88 0.1
2.5 0.88 0
2.5 0.9 0.1
2.5 0.9 0
2.5 0.92 0.1
2.5 0.92 0
2.5 0.94 0.1
2.5 0.94 0
2.5 0.96 0.1
2.5 0.96 0
2.5 0.98 0.1
2.5 0.98 0
2.52 0 0
2.52 0 0.1
2.54 0 0
2.54 0 0.1
2.56 0 0
2.56 0 0.1
2.58 0 0
2.58 0 0.1
2.6 0 0
2.6 0 0.1
2.62 0 0
2.62 0 0.1
2.64 0 0
2.64 0 0.1
2.66 0 0
2.66 0 0.1
2.68 0 0
2.68 0 0.1
2.7 0 0
2.7 0 0.1
2.72 0 0
2.72 0 0.1
2.74 0 0
2.74 0 0.1
2.76 0 0
2.76 0 0.1
2.78 0 0
2.78 0 0.1
2.8 0 0
2.8 0 0.1
2.82 0 0
2.82 0 0.1
2.84 0 0
2.84 0 0.1
2.86 0 0
2.86 0 0.1
2.88 0 0
2.88 0 0.1
2.9 0 0
2.9 0 0.1
2.92 0 0
2.92 0 0.1
2.94 0 0
2.94 0 0.1
2.96 0 0
2.96 0 0.1
2.98 0 0
2.98 0 0.1
3 0 0
3 0 0.1
3.02 0 0
3.02 0 0.1
3.04 0 0
3.04 0 0.1
3.06 0 0
3.06 0 0.1
3.08 0 0
3.08 0 0.1
3.1 0 0
3.1 0 0.1
3.12 0 0
3.12 0 0.1
3.14 0 0
3.14 0 0.1
3.16 0 0
3.16 0 0.1
3.18 0 0
3.18 0 0.1
3.2 0 0
3.2 0 0.1
3.22 0 0
3.22 0 0.1
3.24 0 0
3.24 0 0.1
3.26 0 0
3.26 0 0.1
3.28 0 0
3.28 0 0.1
3.3 0 0
3.3 0 0.1
3.32 0 0
3.32 0 0.1
3.34 0 0
3.34 0 0.1
3.36 0 0
3.36 0 0.1
3.38 0 0
3.38 0 0.1
3.4 0 0
3.4 0 0.1
3.42 0 0
3.42 0 0.1
3.44 0 0
3.44 0 0.1
3.46 0 0
3.46 0 0.1
3.48 0 0
3.48 0 0.1
3.5 0 0
3.5 0 0.1
3.52 0 0
3.52 0 0.1
3.54 0 0
3.54 0 0.1
3.56 0 0
3.56 0 0.1
3.58 0 0
3.58 0 0.1
3.6 0 0
3.6 0 0.1
3.62 0 0
3.62 0 0.1
3.64 0 0
3.64 0 0.1
3.66 0 0
3.66 0 0.1
3.68 0 0
3.68 0 0.1
3.7 0 0
3.7 0 0.1
3.72 0 0
3.72 0 0.1
3.74 0 0
3.74 0 0.1
3.76 0 0
3.76 0 0.1
3.78 0 0
3.78 0 0.1
3.8 0 0
3.8 0 0.1
3.82 0 0
3.82 0 0.1
3.84 0 0
3.84 0 0.1
3.86 0 0
3.86 0 0.1
3.88 0 0
3.88 0 0.1
3.9 0 0
3.9 0 0.1
3.92 0 0
3.92 0 0.1
3.94 0 0
3.94 0 0.1
3.96 0 0
3.96 0 0.1
3.98 0 0
3.98 0 0.1
4 0 0
4 0 0.1
4.02 0 0
4.02 0 0.1
4.04 0 0
4.04 0 0.1
4.06 0 0
4.06 0 0.1
4.08 0 0
4.08 0 0.1
4.1 0 0
4.1 0 0.1
4.12 0 0
4.12 0 0.1
4.14 0 0
4.14 0 0.1
4.16 0 0
4.16 0 0.1
4.18 0 0
4.18 0 0.1
4.2 0 0
4.2 0 0.1
4.22 0 0
4.22 0 0.1
4.24 0 0
4.24 0 0.1
4.26 0 0
4.26 0 0.1
4.28 0 0
4.28 0 0.1
4.3 0 0
4.3 0 0.1
4.32 0 0
4.32 0 0.1
4.34 0 0
4.34 0 0.1
4.36 0 0
4.36 0 0.1
4.38 0 0
4.38 0 0.1
4.4 0 0
4.4 0 0.1
4.42 0 0
4.42 0 0.1
4.44 0 0
4.44 0 0.1
4.46 0 0
4.46 0 0.1
4.48 0 0
4.48 0 0.1
4.5 0 0
4.5 0 0.1

POLYGONS 325 1625
4 0 1 2 3
4 1 4 5 2
4 4 6 7 5
4 6 8 9 7
4 8 10 11 9
4 10 12 13 11
4 12 14 15 13
4 14 16 17 15
4 16 18 19 17
4 18 20 21 19
4 20 22 23 21
4 22 24 25 23
4 24 26 27 25
4 26 28 29 27
4 28 30 31 29
4 30 32 33 31
4 32 34 35 33
4 34 36 37 35
4 36 38 39 37
4 38 40 41 39
4 40 42 43 41
4 42 44 45 43
4 44 46 47 45
4 46 48 49 47
4 48 50 51 49
4 50 52 53 51
4 52 54 55 53
4 54 56 57 55
4 56 58 59 57
4 58 60 61 59
4 60 62 63 61
4 62 64 65 63
4 64 66 67 65
4 66 68 69 67
4 68 70 71 69
4 70 72 73 71
4 72 74 75 73
4 74 76 77 75
4 76 78 79 77
4 78 80 81 79
4 80 82 83 81
4 82 84 85 83
4 84 86 87 85
4 86 88 89 87
4 88 90 91 89
4 90 92 93 91
4 92 94 95 93
4 94 96 97 95
4 96 98 99 97
4 98 100 101 99
4 100 102 103 101
4 102 104 105 103
4 104 106 107 105
4 106 108 109 107
4 108 110 111 109
4 110 112 113 111
4 112 114 115 113
4 114 116 117 115
4 116 118 119 117
4 118 120 121 119
4 120 122 123 121
4 122 124 125 123
4 124 126 127 125
4 126 128 129 127
4 128 130 131 129
4 130 132 133 131
4 132 134 135 133
4 134 136 137 135
4 136 138 139 137
4 138 140 141 139
4 140 142 143 141
4 142 144 145 143
4 144 146 147 145
4 146 148 149 147
4 148 150 151 149
4 150 152 153 151
4 152 154 155 153
4 154 156 157 155
4 156 158 159 157
4 158 160 161 159
4 160 162 163 161
4 162 164 165 163
4 164 166 167 165
4 166 168 169 167
4 168 170 171 169
4 170 172 173 171
4 172 174 175 173
4 174 176 177 175
4 176 178 179 177
4 178 180 181 179
4 180 182 183 181
4 182 184 185 183
4 184 186 187 185
4 186 188 189 187
4 188 190 191 189
4 190 192 193 191
4 192 194 195 193
4 194 196 197 195
4 196 198 199 197
4 198 200 201 199
4 200 202 203 201
4 202 204 205 203
4 204 206 207 205
4 206 208 209 207
4 208 210 211 209
4 210 212 213 211
4 212 214 215 213
4 214 216 217 215
4 216 218 219 217
4 218 220 221 219
4 220 222 223 221
4 222 224 225 223
4 224 226 227 225
4 226 228 229 227
4 228 230 231 229
4 230 232 233 231
4 232 234 235 233
4 234 236 237 235
4 236 238 239 237
4 238 240 241 239
4 240 242 243 241
4 242 244 245 243
4 244 246 247 245
4 246 248 249 247
4 248 250 251 249
4 250 252 253 251
4 252 254 255 253
4 254 256 257 255
4 256 258 259 257
4 258 260 261 259
4 260 262 263 261
4 262 264 265 263
4 264 266 267 265
4 266 268 269 267
4 268 270 271 269
4 270 272 273 271
4 272 274 275 273
4 274 276 277 275
4 276 278 279 277
4 278 280 281 279
4 280 282 283 281
4 282 284 285 283
4 284 286 287 285
4 286 288 289 287
4 288 290 291 289
4 290 292 293 291
4 292 294 295 293
4 294 296 297 295
4 296 298 299 297
4 298 300 301 299
4 300 302 303 301
4 302 304 305 303
4 304 306 307 305
4 306 308 309 307
4 308 310 311 309
4 310 312 313 311
4 312 314 315 313
4 314 316 317 315
4 316 318 319 317
4 318 320 321 319
4 320 322 323 321
4 322 324 325 323
4 324 326 327 325
4 326 328 329 327
4 328 330 331 329
4 330 332 333 331
4 332 334 335 333
4 334 336 337 335
4 336 338 339 337
4 338 340 341 339
4 340 342 343 341
4 342 344 345 343
4 344 346 347 345
4 346 348 349 347
4 348 350 351 349
4 352 353 354 355
4 355 354 356 357
4 357 356 358 359
4 359 358 360 361
4 361 360 362 363
4 363 362 364 365
4 365 364 366 367
4 367 366 368 369
4 369 368 370 371
4 371 370 372 373
4 373 372 374 375
4 375 374 376 377
4 377 376 378 379
4 379 378 380 381
4 381 380 382 383
4 383 382 384 385
4 385 384 386 387
4 387 386 388 389
4 389 388 390 391
4 391 390 392 393
4 393 392 394 395
4 395 394 396 397
4 397 396 398 399
4 399 398 400 401
4 401 400 402 403
4 403 402 404 405
4 405 404 406 407
4 407 406 408 409
4 409 408 410 411
4 411 410 412 413
4 413 412 414 415
4 415 414 416 417
4 417 416 418 419
4 419 418 420 421
4 421 420 422 423
4 423 422 424 425
4 425 424 426 427
4 427 426 428 429
4 429 428 430 431
4 431 430 432 433
4 433 432 434 435
4 435 434 436 437
4 437 436 438 439
4 439 438 440 441
4 441 440 442 443
4 443 442 444 445
4 445 444 446 447
4 447 446 448 449
4 449 448 450 451
4 451 450 351 350
4 352 452 453 353
4 452 454 455 453
4 454 456 457 455
4 456 458 459 457
4 458 460 461 459
4 460 462 463 461
4 462 464 465 463
4 464 466 467 465
4 466 468 469 467
4 468 470 471 469
4 470 472 473 471
4 472 474 475 473
4 474 476 477 475
4 476 478 479 477
4 478 480 481 479
4 480 482 483 481
4 482 484 485 483
4 484 486 487 485
4 486 488 489 487
4 488 490 491 489
4 490 492 493 491
4 492 494 495 493
4 494 496 497 495
4 496 498 499 497
4 498 500 501 499
4 500 502 503 501
4 502 504 505 503
4 504 506 507 505
4 506 508 509 507
4 508 510 511 509
4 510 512 513 511
4 512 514 515 513
4 514 516 517 515
4 516 518 519 517
4 518 520 521 519
4 520 522 523 521
4 522 524 525 523
4 524 526 527 525
4 526 528 529 527
4 528 530 531 529
4 530 532 533 531
4 532 534 535 533
4 534 536 537 535
4 536 538 539 537
4 538 540 541 539
4 540 542 543 541
4 542 544 545 543
4 544 546 547 545
4 546 548 549 547
4 548 550 551 549
4 550 552 553 551
4 552 554 555 553
4 554 556 557 555
4 556 558 559 557
4 558 560 561 559
4 560 562 563 561
4 562 564 565 563
4 564 566 567 565
4 566 568 569 567
4 568 570 571 569
4 570 572 573 571
4 572 574 575 573
4 574 576 577 575
4 576 578 579 577
4 578 580 581 579
4 580 582 583 581
4 582 584 585 583
4 584 586 587 585
4 586 588 589 587
4 588 590 591 589
4 590 592 593 591
4 592 594 595 593
4 594 596 597 595
4 596 598 599 597
4 598 600 601 599
4 600 602 603 601
4 602 604 605 603
4 604 606 607 605
4 606 608 609 607
4 608 610 611 609
4 610 612 613 611
4 612 614 615 613
4 614 616 617 615
4 616 618 619 617
4 618 620 621 619
4 620 622 623 621
4 622 624 625 623
4 624 626 627 625
4 626 628 629 627
4 628 630 631 629
4 630 632 633 631
4 632 634 635 633
4 634 636 637 635
4 636 638 639 637
4 638 640 641 639
4 640 642 643 641
4 642 644 645 643
4 644 646 647 645
4 646 648 649 647
4 648 650 651 649
POINT_DATA 652
FIELD attributes 1
U 3 652 float
2.5933 -0.0226046 0.0305559
1.29716 -0.0112989 0.0152779
1.29716 -0.0112989 0.0152779
2.5933 -0.0226046 0.0305559
0.00101047 4.23948e-06 0
0.00101047 4.23948e-06 0
0.00100432 7.33102e-07 0
0.00100432 7.33102e-07 0
0.000999275 2.77658e-07 0
0.000999275 2.77658e-07 0
0.000994414 1.0812e-06 0
0.000994414 1.0812e-06 0
0.00099104 6.17262e-07 0
0.00099104 6.17262e-07 0
0.000989558 -8.67085e-07 0
0.000989558 -8.67085e-07 0
0.000988889 -1.5237e-06 0
0.000988889 -1.5237e-06 0
0.000987616 -5.10769e-07 0
0.000987616 -5.10769e-07 0
0.000985247 1.20558e-06 0
0.000985247 1.20558e-06 0
0.00098254 2.15337e-06 0
0.00098254 2.15337e-06 0
0.000980541 2.03074e-06 0
0.000980541 2.03074e-06 0
0.000979384 1.83008e-06 0
0.000979384 1.83008e-06 0
0.000978172 2.42858e-06 0
0.000978172 2.42858e-06 0
0.000975991 3.47015e-06 0
0.000975991 3.47015e-06 0
0.000972838 3.82593e-06 0
0.000972838 3.82593e-06 0
0.000969503 2.98264e-06 0
0.000969503 2.98264e-06 0
0.000966675 1.76421e-06 0
0.000966675 1.76421e-06 0
0.000964268 1.58042e-06 0
0.000964268 1.58042e-06 0
0.000961542 2.97716e-06 0
0.000961542 2.97716e-06 0
0.00095782 5.02542e-06 0
0.00095782 5.02542e-06 0
0.000953126 6.12436e-06 0
0.000953126 6.12436e-06 0
0.000948152 5.37519e-06 0
0.000948152 5.37519e-06 0
0.000943642 3.30478e-06 0
0.000943642 3.30478e-06 0
0.000939814 1.39812e-06 0
0.000939814 1.39812e-06 0
0.000936199 9.36998e-07 0
0.000936199 9.36998e-07 0
0.000931919 2.17444e-06 0
0.000931919 2.17444e-06 0
0.000926193 4.36823e-06 0
0.000926193 4.36823e-06 0
0.000918757 6.42037e-06 0
0.000918757 6.42037e-06 0
0.000909927 7.5594e-06 0
0.000909927 7.5594e-06 0
0.00090034 7.63912e-06 0
0.00090034 7.63912e-06 0
0.000890604 6.99703e-06 0
0.000890604 6.99703e-06 0
0.000881088 6.11357e-06 0
0.000881088 6.11357e-06 0
0.000871896 5.34376e-06 0
0.000871896 5.34376e-06 0
0.00086296 4.83345e-06 0
0.00086296 4.83345e-06 0
0.00085415 4.57268e-06 0
0.00085415 4.57268e-06 0
0.000845353 4.48574e-06 0
0.000845353 4.48574e-06 0
0.000836493 4.49541e-06 0
0.000836493 4.49541e-06 0
0.000827532 4.54905e-06 0
0.000827532 4.54905e-06 0
0.000818451 4.61918e-06 0
0.000818451 4.61918e-06 0
0.000809243 4.6946e-06 0
0.000809243 4.6946e-06 0
0.000799905 4.77199e-06 0
0.000799905 4.77199e-06 0
0.000790431 4.85088e-06 0
0.000790431 4.85088e-06 0
0.000780819 4.93144e-06 0
0.000780819 4.93144e-06 0
0.000771065 5.01386e-06 0
0.000771065 5.01386e-06 0
0.000761163 5.0982e-06 0
0.000761163 5.0982e-06 0
0.000751111 5.18443e-06 0
0.000751111 5.18443e-06 0
0.000740903 5.27254e-06 0
0.000740903 5.27254e-06 0
0.000730536 5.36244e-06 0
0.000730536 5.36244e-06 0
0.000720004 5.45407e-06 0
0.000720004 5.45407e-06 0
0.000709304 5.54735e-06 0
0.000709304 5.54735e-06 0
0.000698431 5.64219e-06 0
0.000698431 5.64219e-06 0
0.000687382 5.73848e-06 0
0.000687382 5.73848e-06 0
0.000676153 5.83608e-06 0
0.000676153 5.83608e-06 0
0.000664739 5.93485e-06 0
0.000664739 5.93485e-06 0
0.000653137 6.03463e-06 0
0.000653137 6.03463e-06 0
0.000641345 6.1352e-06 0
0.000641345 6.1352e-06 0
0.000629357 6.23635e-06 0
0.000629357 6.23635e-06 0
0.000617173 6.33783e-06 0
0.000617173 6.33783e-06 0
0.000604789 6.43934e-06 0
0.000604789 6.43934e-06 0
0.000592203 6.54061e-06 0
0.000592203 6.54061e-06 0
0.000579414 6.64131e-06 0
0.000579414 6.64131e-06 0
0.00056642 6.74115e-06 0
0.00056642 6.74115e-06 0
0.000553221 6.83987e-06 0
0.000553221 6.83987e-06 0
0.000539816 6.9372e-06 0
0.000539816 6.9372e-06 0
0.000526207 7.03284e-06 0
0.000526207 7.03284e-06 0
0.000512395 7.12577e-06 0
0.000512395 7.12577e-06 0
0.000498383 7.21445e-06 0
0.000498383 7.21445e-06 0
0.000484173 7.29772e-06 0
0.000484173 7.29772e-06 0
0.000469769 7.37466e-06 0
0.000469769 7.37466e-06 0
0.000455175 7.4445e-06 0
0.000455175 7.4445e-06 0
0.000440397 7.50656e-06 0
0.000440397 7.50656e-06 0
0.000425442 7.56017e-06 0
0.000425442 7.56017e-06 0
0.000410319 7.60461e-06 0
0.000410319 7.60461e-06 0
0.000395035 7.63914e-06 0
0.000395035 7.63914e-06 0
0.000379603 7.66303e-06 0
0.000379603 7.66303e-06 0
0.000364033 7.67557e-06 0
0.000364033 7.67557e-06 0
0.000348339 7.67611e-06 0
0.000348339 7.67611e-06 0
0.000332533 7.66408e-06 0
0.000332533 7.66408e-06 0
0.000316631 7.63906e-06 0
0.000316631 7.63906e-06 0
0.000300649 7.60078e-06 0
0.000300649 7.60078e-06 0
0.000284604 7.54919e-06 0
0.000284604 7.54919e-06 0
0.000268511 7.48448e-06 0
0.000268511 7.48448e-06 0
0.000252389 7.40711e-06 0
0.000252389 7.40711e-06 0
0.000236255 7.31782e-06 0
0.000236255 7.31782e-06 0
0.000220125 7.2177e-06 0
0.000220125 7.2177e-06 0
0.000204015 7.10816e-06 0
0.000204015 7.10816e-06 0
0.00018794 6.99097e-06 0
0.00018794 6.99097e-06 0
0.000171913 6.86822e-06 0
0.000171913 6.86822e-06 0
0.000155945 6.74233e-06 0
0.000155945 6.74233e-06 0
0.000140045 6.61595e-06 0
0.000140045 6.61595e-06 0
0.000124219 6.49194e-06 0
0.000124219 6.49194e-06 0
0.000108469 6.37328e-06 0
0.000108469 6.37328e-06 0
9.27962e-05 6.26298e-06 0
9.27962e-05 6.26298e-06 0
7.71966e-05 6.16393e-06 0
7.71966e-05 6.16393e-06 0
6.1664e-05 6.07889e-06 0
6.1664e-05 6.07889e-06 0
4.61889e-05 6.00964e-06 0
4.61889e-05 6.00964e-06 0
3.07611e-05 5.95635e-06 0
3.07611e-05 5.95635e-06 0
1.5365e-05 5.92599e-06 0
1.5365e-05 5.92599e-06 0
7.67192e-06 5.91833e-06 0
7.67192e-06 5.91833e-06 0
8.99344e-06 1.5466e-05 0
8.99344e-06 1.5466e-05 0
1.01987e-05 3.59018e-05 0
1.01987e-05 3.59018e-05 0
9.89361e-06 5.63431e-05 0
9.89361e-06 5.63431e-05 0
9.62566e-06 7.55938e-05 0
9.62566e-06 7.55938e-05 0
9.53602e-06 9.48431e-05 0
9.53602e-06 9.48431e-05 0
9.54268e-06 0.000113943 0
9.54268e-06 0.000113943 0
9.58706e-06 0.000133096 0
9.58706e-06 0.000133096 0
9.64615e-06 0.000152366 0
9.64615e-06 0.000152366 0
9.71384e-06 0.000171767 0
9.71384e-06 0.000171767 0
9.78946e-06 0.000191309 0
9.78946e-06 0.000191309 0
9.87359e-06 0.00021101 0
9.87359e-06 0.00021101 0
9.96695e-06 0.000230889 0
9.96695e-06 0.000230889 0
1.00702e-05 0.000250964 0
1.00702e-05 0.000250964 0
1.0184e-05 0.000271255 0
1.0184e-05 0.000271255 0
1.03091e-05 0.000291785 0
1.03091e-05 0.000291785 0
1.04462e-05 0.000312576 0
1.04462e-05 0.000312576 0
1.05962e-05 0.000333654 0
1.05962e-05 0.000333654 0
1.07602e-05 0.000355045 0
1.07602e-05 0.000355045 0
1.09394e-05 0.000376779 0
1.09394e-05 0.000376779 0
1.11349e-05 0.000398887 0
1.11349e-05 0.000398887 0
1.1348e-05 0.000421402 0
1.1348e-05 0.000421402 0
1.15816e-05 0.000444363 0
1.15816e-05 0.000444363 0
1.18351e-05 0.000467808 0
1.18351e-05 0.000467808 0
1.21136e-05 0.000491787 0
1.21136e-05 0.000491787 0
1.24186e-05 0.000516344 0
1.24186e-05 0.000516344 0
1.27519e-05 0.000541539 0
1.27519e-05 0.000541539 0
1.31164e-05 0.00056743 0
1.31164e-05 0.00056743 0
1.35252e-05 0.000594094 0
1.35252e-05 0.000594094 0
1.3964e-05 0.000621592 0
1.3964e-05 0.000621592 0
1.44626e-05 0.000650041 0
1.44626e-05 0.000650041 0
1.50027e-05 0.000679508 0
1.50027e-05 0.000679508 0
1.5631e-05 0.000710156 0
1.5631e-05 0.000710156 0
1.62869e-05 0.000742044 0
1.62869e-05 0.000742044 0
1.70946e-05 0.000775453 0
1.70946e-05 0.000775453 0
1.79234e-05 0.000810396 0
1.79234e-05 0.000810396 0
1.901e-05 0.000847351 0
1.901e-05 0.000847351 0
1.99942e-05 0.000886198 0
1.99942e-05 0.000886198 0
2.15764e-05 0.000927813 0
2.15764e-05 0.000927813 0
2.27919e-05 0.000971872 0
2.27919e-05 0.000971872 0
2.52266e-05 0.00101989 0
2.52266e-05 0.00101989 0
2.66503e-05 0.00107116 0
2.66503e-05 0.00107116 0
3.06503e-05 0.00112839 0
3.06503e-05 0.00112839 0
3.2324e-05 0.0011902 0
3.2324e-05 0.0011902 0
3.9911e-05 0.00126193 0
3.9911e-05 0.00126193 0
4.18391e-05 0.00134129 0
4.18391e-05 0.00134129 0
5.88169e-05 0.00143877 0
5.88169e-05 0.00143877 0
6.34557e-05 0.00155425 0
6.34557e-05 0.00155425 0
0.000110276 0.0017067 0
0.000110276 0.0017067 0
0.000137807 0.00191161 0
0.000137807 0.00191161 0
8.33932e-05 0.0011361 0
8.33932e-05 0.0011361 0
-0.000374928 -8.19654e-05 0
-0.000374928 -8.19654e-05 0
-0.000214988 -0.000513739 0
-0.000214988 -0.000513739 0
0.000456753 -0.000457689 0
0.000456753 -0.000457689 0
0.000561675 -0.000227956 0
0.000561675 -0.000227956 0
0.000374239 6.27959e-05 0
0.000374239 6.27959e-05 0
-0.000345018 0.000414685 0
-0.000345018 0.000414685 0
-0.00128619 0.000515393 0
-0.00128619 0.000515393 0
-0.00209606 0.000429903 0
-0.00209606 0.000429903 0
-0.00273878 0.000325282 0
-0.00273878 0.000325282 0
-0.0031965 0.000213502 0
-0.0031965 0.000213502 0
-0.00345366 0.000104119 0
-0.00345366 0.000104119 0
-0.00351783 3.09486e-06 0
-0.00351783 3.09486e-06 0
-0.00341262 -8.28101e-05 0
-0.00341262 -8.28101e-05 0
-0.00316859 -0.000149891 0
-0.00316859 -0.000149891 0
-0.00281726 -0.000197273 0
-0.00281726 -0.000197273 0
-0.00239453 -0.000226366 0
-0.00239453 -0.000226366 0
-0.00193327 -0.000239101 0
-0.00193327 -0.000239101 0
-0.0014616 -0.00023841 0
-0.0014616 -0.00023841 0
-0.000999628 -0.000227907 0
-0.000999628 -0.000227907 0
-0.000564238 -0.000212347 0
-0.000564238 -0.000212347 0
-0.00016479 -0.000194155 0
-0.00016479 -0.000194155 0
0.00018353 -0.000163875 0
0.00018353 -0.000163875 0
0.000490018 -0.000156091 0
0.000490018 -0.000156091 0
0.000763048 -0.000137206 0
0.000763048 -0.000137206 0
0.000537943 -7.89878e-05 0
0.000537943 -7.89878e-05 0
-2.12467e-06 1.39143e-06 0
-2.12467e-06 1.39143e-06 0
-2.1435e-06 2.78766e-06 0
-2.1435e-06 2.78766e-06 0
-2.19733e-06 5.6377e-06 0
-2.19733e-06 5.6377e-06 0
-2.2876e-06 8.643e-06 0
-2.2876e-06 8.643e-06 0
-2.41798e-06 1.18826e-05 0
-2.41798e-06 1.18826e-05 0
-2.58819e-06 1.54385e-05 0
-2.58819e-06 1.54385e-05 0
-2.80053e-06 1.9397e-05 0
-2.80053e-06 1.9397e-05 0
-3.05667e-06 2.38474e-05 0
-3.05667e-06 2.38474e-05 0
-3.35954e-06 2.88842e-05 0
-3.35954e-06 2.88842e-05 0
-3.71131e-06 3.46083e-05 0
-3.71131e-06 3.46083e-05 0
-4.11453e-06 4.11297e-05 0
-4.11453e-06 4.11297e-05 0
-4.57393e-06 4.8565e-05 0
-4.57393e-06 4.8565e-05 0
-5.09311e-06 5.70416e-05 0
-5.09311e-06 5.70416e-05 0
-5.67768e-06 6.66995e-05 0
-5.67768e-06 6.66995e-05 0
-6.3339e-06 7.76888e-05 0
-6.3339e-06 7.76888e-05 0
-7.06798e-06 9.01749e-05 0
-7.06798e-06 9.01749e-05 0
-7.88754e-06 0.000104338 0
-7.88754e-06 0.000104338 0
-8.79953e-06 0.000120372 0
-8.79953e-06 0.000120372 0
-9.81146e-06 0.00013849 0
-9.81146e-06 0.00013849 0
-1.09308e-05 0.000158916 0
-1.09308e-05 0.000158916 0
-1.21629e-05 0.000181893 0
-1.21629e-05 0.000181893 0
-1.3511e-05 0.000207656 0
-1.3511e-05 0.000207656 0
-1.49732e-05 0.000236475 0
-1.49732e-05 0.000236475 0
-1.65456e-05 0.000268548 0
-1.65456e-05 0.000268548 0
-1.82061e-05 0.000304151 0
-1.82061e-05 0.000304151 0
-1.99461e-05 0.000343357 0
-1.99461e-05 0.000343357 0
-2.16771e-05 0.000386374 0
-2.16771e-05 0.000386374 0
-2.34217e-05 0.000433023 0
-2.34217e-05 0.000433023 0
-2.49846e-05 0.000483283 0
-2.49846e-05 0.000483283 0
-2.62419e-05 0.000536603 0
-2.62419e-05 0.000536603 0
-2.72656e-05 0.000592291 0
-2.72656e-05 0.000592291 0
-2.76564e-05 0.000649729 0
-2.76564e-05 0.000649729 0
-2.70727e-05 0.000707393 0
-2.70727e-05 0.000707393 0
-2.5585e-05 0.000763192 0
-2.5585e-05 0.000763192 0
-2.31369e-05 0.000815404 0
-2.31369e-05 0.000815404 0
-1.93088e-05 0.000861187 0
-1.93088e-05 0.000861187 0
-1.36939e-05 0.000897709 0
-1.36939e-05 0.000897709 0
-6.13448e-06 0.00092104 0
-6.13448e-06 0.00092104 0
3.39429e-06 0.000928801 0
3.39429e-06 0.000928801 0
1.44408e-05 0.000916394 0
1.44408e-05 0.000916394 0
2.67438e-05 0.000884114 0
2.67438e-05 0.000884114 0
3.95843e-05 0.000826213 0
3.95843e-05 0.000826213 0
5.40736e-05 0.00074817 0
5.40736e-05 0.00074817 0
6.78774e-05 0.000638371 0
6.78774e-05 0.000638371 0
8.26544e-05 0.000519051 0
8.26544e-05 0.000519051 0
8.85217e-05 0.00035677 0
8.85217e-05 0.00035677 0
9.67443e-05 0.000221476 0
9.67443e-05 0.000221476 0
8.42918e-06 2.41174e-05 0
8.42918e-06 2.41174e-05 0
-0.000113734 2.37776e-05 0
-0.000113734 2.37776e-05 0
2.59896e-05 7.32064e-05 0
2.59896e-05 7.32064e-05 0
-2.77991e-06 9.90501e-07 0
-2.77991e-06 9.90501e-07 0
-3.96315e-06 6.55401e-07 0
-3.96315e-06 6.55401e-07 0
-5.37564e-06 7.09541e-07 0
-5.37564e-06 7.09541e-07 0
-6.7863e-06 6.25217e-07 0
-6.7863e-06 6.25217e-07 0
-7.85738e-06 4.55929e-07 0
-7.85738e-06 4.55929e-07 0
-8.58889e-06 2.42514e-07 0
-8.58889e-06 2.42514e-07 0
-8.80859e-06 -4.42886e-09 0
-8.80859e-06 -4.42886e-09 0
-8.5411e-06 -2.80612e-07 0
-8.5411e-06 -2.80612e-07 0
-7.66301e-06 -5.84003e-07 0
-7.66301e-06 -5.84003e-07 0
-6.16609e-06 -9.10588e-07 0
-6.16609e-06 -9.10588e-07 0
-3.98538e-06 -1.25753e-06 0
-3.98538e-06 -1.25753e-06 0
-1.08991e-06 -1.62011e-06 0
-1.08991e-06 -1.62011e-06 0
2.55691e-06 -1.99573e-06 0
2.55691e-06 -1.99573e-06 0
6.96686e-06 -2.38007e-06 0
6.96686e-06 -2.38007e-06 0
1.21514e-05 -2.76816e-06 0
1.21514e-05 -2.76816e-06 0
1.81159e-05 -3.15634e-06 0
1.81159e-05 -3.15634e-06 0
2.48565e-05 -3.54082e-06 0
2.48565e-05 -3.54082e-06 0
3.23621e-05 -3.91801e-06 0
3.23621e-05 -3.91801e-06 0
4.06141e-05 -4.28459e-06 0
4.06141e-05 -4.28459e-06 0
4.9588e-05 -4.63749e-06 0
4.9588e-05 -4.63749e-06 0
5.92533e-05 -4.974e-06 0
5.92533e-05 -4.974e-06 0
6.95743e-05 -5.29178e-06 0
6.95743e-05 -5.29178e-06 0
8.05111e-05 -5.58885e-06 0
8.05111e-05 -5.58885e-06 0
9.20204e-05 -5.86363e-06 0
9.20204e-05 -5.86363e-06 0
0.000104056 -6.11493e-06 0
0.000104056 -6.11493e-06 0
0.00011657 -6.34191e-06 0
0.00011657 -6.34191e-06 0
0.000129512 -6.54409e-06 0
0.000129512 -6.54409e-06 0
0.000142833 -6.72133e-06 0
0.000142833 -6.72133e-06 0
0.000156482 -6.87376e-06 0
0.000156482 -6.87376e-06 0
0.000170412 -7.00179e-06 0
0.000170412 -7.00179e-06 0
0.000184572 -7.10603e-06 0
0.000184572 -7.10603e-06 0
0.000198918 -7.18732e-06 0
0.000198918 -7.18732e-06 0
0.000213403 -7.24664e-06 0
0.000213403 -7.24664e-06 0
0.000227985 -7.28509e-06 0
0.000227985 -7.28509e-06 0
0.000242624 -7.30388e-06 0
0.000242624 -7.30388e-06 0
0.000257281 -7.30427e-06 0
0.000257281 -7.30427e-06 0
0.000271922 -7.28761e-06 0
0.000271922 -7.28761e-06 0
0.000286514 -7.25522e-06 0
0.000286514 -7.25522e-06 0
0.000301026 -7.20844e-06 0
0.000301026 -7.20844e-06 0
0.00031543 -7.14861e-06 0
0.00031543 -7.14861e-06 0
0.000329702 -7.077e-06 0
0.000329702 -7.077e-06 0
0.00034382 -6.99487e-06 0
0.00034382 -6.99487e-06 0
0.000357763 -6.9034e-06 0
0.000357763 -6.9034e-06 0
0.000371514 -6.80374e-06 0
0.000371514 -6.80374e-06 0
0.000385057 -6.69696e-06 0
0.000385057 -6.69696e-06 0
0.00039838 -6.58407e-06 0
0.00039838 -6.58407e-06 0
0.000411471 -6.46599e-06 0
0.000411471 -6.46599e-06 0
0.000424321 -6.34361e-06 0
0.000424321 -6.34361e-06 0
0.000436921 -6.21773e-06 0
0.000436921 -6.21773e-06 0
0.000449266 -6.08907e-06 0
0.000449266 -6.08907e-06 0
0.000461351 -5.95831e-06 0
0.000461351 -5.95831e-06 0
0.000473171 -5.82606e-06 0
0.000473171 -5.82606e-06 0
0.000484726 -5.69287e-06 0
0.000484726 -5.69287e-06 0
0.000496012 -5.55923e-06 0
0.000496012 -5.55923e-06 0
0.000507031 -5.42557e-06 0
0.000507031 -5.42557e-06 0
0.000517782 -5.29229e-06 0
0.000517782 -5.29229e-06 0
0.000528266 -5.15974e-06 0
0.000528266 -5.15974e-06 0
0.000538486 -5.02822e-06 0
0.000538486 -5.02822e-06 0
0.000548443 -4.89798e-06 0
0.000548443 -4.89798e-06 0
0.00055814 -4.76927e-06 0
0.00055814 -4.76927e-06 0
0.000567581 -4.64226e-06 0
0.000567581 -4.64226e-06 0
0.000576769 -4.51713e-06 0
0.000576769 -4.51713e-06 0
0.000585708 -4.39401e-06 0
0.000585708 -4.39401e-06 0
0.000594403 -4.27303e-06 0
0.000594403 -4.27303e-06 0
0.000602857 -4.15426e-06 0
0.000602857 -4.15426e-06 0
0.000611075 -4.03778e-06 0
0.000611075 -4.03778e-06 0
0.000619062 -3.92364e-06 0
0.000619062 -3.92364e-06 0
0.000626823 -3.81188e-06 0
0.000626823 -3.81188e-06 0
0.000634362 -3.70253e-06 0
0.000634362 -3.70253e-06 0
0.000641684 -3.5956e-06 0
0.000641684 -3.5956e-06 0
0.000648794 -3.49108e-06 0
0.000648794 -3.49108e-06 0
0.000655697 -3.38897e-06 0
0.000655697 -3.38897e-06 0
0.000662397 -3.28926e-06 0
0.000662397 -3.28926e-06 0
0.0006689 -3.19191e-06 0
0.0006689 -3.19191e-06 0
0.00067521 -3.09689e-06 0
0.00067521 -3.09689e-06 0
0.000681332 -3.00417e-06 0
0.000681332 -3.00417e-06 0
0.00068727 -2.91371e-06 0
0.00068727 -2.91371e-06 0
0.000693029 -2.82547e-06 0
0.000693029 -2.82547e-06 0
0.000698614 -2.73939e-06 0
0.000698614 -2.73939e-06 0
0.000704027 -2.65542e-06 0
0.000704027 -2.65542e-06 0
0.000709275 -2.57352e-06 0
0.000709275 -2.57352e-06 0
0.00071436 -2.49362e-06 0
0.00071436 -2.49362e-06 0
0.000719287 -2.41566e-06 0
0.000719287 -2.41566e-06 0
0.000724059 -2.33962e-06 0
0.000724059 -2.33962e-06 0
0.000728682 -2.26538e-06 0
0.000728682 -2.26538e-06 0
0.000733155 -2.19296e-06 0
0.000733155 -2.19296e-06 0
0.000737488 -2.12218e-06 0
0.000737488 -2.12218e-06 0
0.000741676 -2.05317e-06 0
0.000741676 -2.05317e-06 0
0.000745735 -1.98557e-06 0
0.000745735 -1.98557e-06 0
0.000749648 -1.91979e-06 0
0.000749648 -1.91979e-06 0
0.000753449 -1.85506e-06 0
0.000753449 -1.85506e-06 0
0.000757092 -1.79239e-06 0
0.000757092 -1.79239e-06 0
0.000760656 -1.73008e-06 0
0.000760656 -1.73008e-06 0
0.000764027 -1.67059e-06 0
0.000764027 -1.67059e-06 0
0.000767388 -1.61002e-06 0
0.000767388 -1.61002e-06 0
0.000770458 -1.55414e-06 0
0.000770458 -1.55414e-06 0
0.000773682 -1.49402e-06 0
0.000773682 -1.49402e-06 0
0.000776369 -1.44317e-06 0
0.000776369 -1.44317e-06 0
0.978265 -0.00166575 0
0.978265 -0.00166575 0
1.95575 -0.00333007 0
1.95575 -0.00333007 0
