/*--------------------------------*- C++ -*----------------------------------*\
| =========                 |                                                 |
| \\      /  F ield         | OpenFOAM: The Open Source CFD Toolbox           |
|  \\    /   O peration     | Version:  4.1                                   |
|   \\  /    A nd           | Web:      www.OpenFOAM.org                      |
|    \\/     M anipulation  |                                                 |
\*---------------------------------------------------------------------------*/
FoamFile
{
    version     2.0;
    format      ascii;
    class       volScalarField;
    location    "0.31";
    object      epsilon;
}
// * * * * * * * * * * * * * * * * * * * * * * * * * * * * * * * * * * * * * //

dimensions      [0 2 -3 0 0 0 0];

internalField   nonuniform List<scalar> 
43750
(
9.54018
9.8712
10.1952
10.5113
10.8185
11.1163
11.4038
11.6803
11.945
12.1972
12.436
12.6609
12.871
13.0657
13.2443
13.4061
13.5505
13.677
13.785
13.8738
13.9431
13.9924
14.0211
14.0288
14.0151
13.9797
13.9221
13.8421
13.7392
13.6134
13.4643
13.2917
13.0957
12.8761
12.633
12.3666
12.0772
11.7653
11.4316
11.077
10.7029
10.311
9.90346
9.48323
9.05394
8.62023
8.18789
7.76406
7.35749
6.97869
6.64013
6.35633
6.14379
6.02077
6.00648
6.11958
6.3753
6.78089
7.32958
7.99462
8.72628
9.4561
10.1452
10.7911
11.2937
11.6038
11.7108
11.6315
11.3956
11.036
10.5808
10.0483
9.45552
8.82525
8.16983
7.49895
6.82286
6.1538
5.50772
4.90363
4.35921
3.88307
3.46994
3.10525
2.7759
2.4779
2.21706
2.00193
1.8363
1.67993
1.53383
1.39951
1.27643
1.16316
1.05778
0.957517
0.857367
0.743876
0.577422
0.265206
12.9875
11.4425
10.1595
9.08686
8.18461
7.42178
6.77396
6.22186
5.75007
5.34621
5.0002
4.70382
4.45032
4.23411
4.05054
3.89573
3.76644
3.65996
3.57399
3.50664
3.45633
3.42175
3.40187
3.39586
3.40313
3.4233
3.45619
3.50184
3.56051
3.63271
3.71924
3.82119
3.94004
4.07769
4.23657
4.41973
4.631
4.87514
5.15808
5.48718
5.87153
6.32238
6.85354
7.48189
8.22784
9.11577
10.1742
11.4358
12.9361
14.7124
16.8
19.2277
22.0112
25.1446
28.5916
32.2762
36.077
39.8259
43.3152
46.315
48.6
49.9836
50.3523
49.6879
48.0713
45.6619
42.6684
39.3137
35.7997
32.2887
28.8907
25.541
22.4794
19.7737
17.3736
15.2437
13.3507
11.6666
10.1758
8.86
7.71077
6.7274
5.9
5.19486
4.55962
3.94967
3.36108
2.82917
2.39713
2.06945
1.80569
1.59138
1.41467
1.26672
1.14149
1.03658
0.953553
0.891745
0.819529
0.53243
13.0026
11.4581
10.1624
9.06628
8.13172
7.32936
6.63609
6.03364
5.50736
5.04544
4.63829
4.27804
3.95821
3.67341
3.41916
3.19168
2.98782
2.80489
2.64061
2.49305
2.36056
2.24172
2.13534
2.0404
1.95604
1.88153
1.81628
1.75979
1.7117
1.67174
1.63975
1.61566
1.59954
1.59159
1.59213
1.6017
1.62103
1.6511
1.69323
1.74916
1.82112
1.91201
2.02556
2.16651
2.34095
2.55656
2.82304
3.15246
3.55973
4.06289
4.68341
5.44616
6.37903
7.51201
8.87562
10.4984
12.4039
14.6056
17.1028
19.8737
22.8702
26.0122
29.1854
32.2429
35.0127
37.3144
38.9825
39.8953
39.9978
39.3133
37.9377
36.0081
33.6997
31.1994
28.6549
26.1694
23.7397
21.4135
19.3008
17.3269
15.4659
13.7367
12.1664
10.752
9.44238
8.17723
6.94289
5.78466
4.7634
3.95146
3.29429
2.74496
2.28533
1.90304
1.58739
1.32859
1.1216
0.974944
0.907205
0.821325
13.0027
11.4581
10.1622
9.06561
8.13036
7.32694
6.63221
6.02781
5.49904
5.03404
4.62317
4.25851
3.93353
3.6428
3.3818
3.14671
2.93432
2.74191
2.56714
2.40805
2.26291
2.13027
2.00886
1.89759
1.79553
1.70185
1.61586
1.53696
1.46464
1.39847
1.33809
1.28321
1.23363
1.18917
1.14977
1.11541
1.08614
1.06212
1.04359
1.03091
1.02461
1.02536
1.03406
1.05191
1.08047
1.12173
1.17831
1.25353
1.35167
1.47813
1.63968
1.84472
2.10347
2.42818
2.8333
3.33548
3.95353
4.70821
5.62172
6.71691
8.01593
9.53808
11.2968
13.2951
15.5205
17.938
20.4853
23.0685
25.5648
27.8307
29.7195
31.1029
31.8951
32.072
31.6694
30.7679
29.463
27.8446
26.0117
24.0268
21.943
19.8122
17.7282
15.8515
14.1584
12.5638
10.9968
9.44888
7.9477
6.52575
5.33808
4.31764
3.4505
2.73255
2.15683
1.71105
1.37957
1.15173
1.04723
1.12247
13.0027
11.458
10.1621
9.06544
8.13009
7.32658
6.63175
6.02725
5.49838
5.03327
4.62226
4.25743
3.93223
3.64123
3.37987
3.14435
2.93141
2.73832
2.56274
2.40264
2.25631
2.12224
1.99914
1.88588
1.78148
1.68508
1.59592
1.51335
1.43679
1.36573
1.29972
1.23839
1.18139
1.12844
1.0793
1.03377
0.991714
0.953014
0.917616
0.885519
0.85678
0.831529
0.809979
0.792446
0.779375
0.771366
0.769221
0.773991
0.78704
0.810125
0.845491
0.895976
0.965133
1.05736
1.17801
1.33357
1.53174
1.78157
2.09361
2.48
2.95459
3.53302
4.23264
5.07221
6.0712
7.24834
8.61935
10.1934
11.9685
13.9259
16.0246
18.1972
20.3499
22.3679
24.1269
25.5074
26.4095
26.7648
26.5509
25.7923
24.564
22.9886
21.223
19.4307
17.6973
16.0152
14.3347
12.6224
10.8878
9.17537
7.4984
6.01952
4.74072
3.67416
2.82162
2.17333
1.71205
1.41492
1.26291
1.43656
13.0027
11.458
10.1621
9.06535
8.12995
7.3264
6.63154
6.02702
5.49813
5.03302
4.62201
4.25718
3.93199
3.64099
3.37964
3.14411
2.93117
2.73806
2.56244
2.40229
2.25589
2.12172
1.99849
1.88506
1.78044
1.68376
1.59425
1.51125
1.43415
1.36243
1.29562
1.23331
1.17513
1.12076
1.06989
1.02228
0.977714
0.935987
0.896937
0.860431
0.826362
0.794659
0.765283
0.73824
0.713584
0.69143
0.671972
0.655496
0.642416
0.6333
0.628914
0.630274
0.638704
0.655907
0.684036
0.72578
0.784439
0.864006
0.969248
1.10578
1.28014
1.49991
1.77379
2.11173
2.52511
3.0268
3.63125
4.35437
5.213
6.22386
7.40149
8.755
10.2834
11.9696
13.7742
15.6287
17.4327
19.0567
20.3577
21.2063
21.5217
21.3006
20.6207
19.6108
18.3916
17.0335
15.561
13.9875
12.3425
10.6717
8.987
7.33528
5.82554
4.52801
3.47508
2.67044
2.10127
1.74804
1.55643
1.77892
13.0027
11.4581
10.1621
9.06532
8.12989
7.32631
6.63142
6.02688
5.49798
5.03286
4.62184
4.25701
3.93181
3.64082
3.37948
3.14395
2.93102
2.73792
2.56231
2.40217
2.25577
2.12161
1.99838
1.88495
1.78032
1.68362
1.59409
1.51105
1.43389
1.3621
1.29519
1.23274
1.17438
1.11978
1.06863
1.02066
0.975627
0.933324
0.893555
0.856149
0.820957
0.787848
0.756713
0.727462
0.700029
0.674371
0.650478
0.628373
0.608125
0.589862
0.573785
0.560194
0.549515
0.542335
0.539449
0.541909
0.551085
0.568728
0.597031
0.6387
0.697008
0.775854
0.879804
1.01414
1.18492
1.399
1.66416
1.98915
2.38389
2.85958
3.42878
4.10524
4.90317
5.8355
6.91062
8.12704
9.46588
10.8825
12.3007
13.6158
14.7102
15.4814
15.871
15.8753
15.5313
14.8883
13.9917
12.8833
11.6108
10.2306
8.80597
7.41339
6.0598
4.8444
3.82471
3.02523
2.45163
2.10055
1.91262
2.14895
13.0027
11.4581
10.1621
9.06531
8.12987
7.32627
6.63137
6.02682
5.49792
5.03279
4.62177
4.25695
3.93176
3.64078
3.37944
3.14394
2.93102
2.73793
2.56234
2.40222
2.25584
2.12169
1.99847
1.88506
1.78044
1.68375
1.59423
1.51119
1.43404
1.36224
1.29532
1.23286
1.17447
1.11983
1.06863
1.02059
0.975461
0.933034
0.893102
0.855487
0.820027
0.786575
0.755002
0.725194
0.69705
0.670486
0.64543
0.621832
0.599657
0.578896
0.559567
0.541725
0.525473
0.510973
0.49847
0.488314
0.480995
0.477177
0.47775
0.483881
0.497069
0.519205
0.552631
0.600185
0.66525
0.75178
0.864321
1.00802
1.18865
1.41259
1.68688
2.01929
2.41827
2.89289
3.45229
4.10429
4.85266
5.69277
6.60615
7.55571
8.48504
9.32466
10.0049
10.4701
10.6867
10.6427
10.3433
9.80868
9.0733
8.18553
7.20378
6.20094
5.27806
4.41772
3.66914
3.06542
2.63061
2.38461
2.27246
2.46751
13.0027
11.4581
10.1621
9.06532
8.12987
7.32626
6.63136
6.02681
5.4979
5.03278
4.62177
4.25694
3.93177
3.64079
3.37947
3.14398
2.93107
2.738
2.56242
2.40232
2.25595
2.12182
1.99862
1.88521
1.78061
1.68394
1.59443
1.5114
1.43426
1.36248
1.29557
1.23311
1.17473
1.12009
1.06888
1.02084
0.975698
0.933248
0.893283
0.855621
0.820094
0.786553
0.754861
0.724895
0.696545
0.669712
0.644306
0.620254
0.59749
0.575963
0.555635
0.536486
0.518516
0.501748
0.486239
0.472087
0.459445
0.448539
0.439687
0.433334
0.430084
0.430738
0.436351
0.448275
0.468215
0.498282
0.541033
0.599509
0.677244
0.778263
0.90705
1.06849
1.26774
1.51013
1.80085
2.14455
2.54455
3.00139
3.51079
4.06119
4.63177
5.19241
5.7063
6.13504
6.44415
6.60726
6.60886
6.44625
6.13093
5.68865
5.15728
4.5827
4.01546
3.52708
3.12217
2.80126
2.59429
2.53671
2.57356
2.70539
13.0027
11.4581
10.1621
9.06534
8.12989
7.32628
6.63138
6.02683
5.49793
5.03281
4.6218
4.25699
3.93183
3.64087
3.37956
3.14408
2.93119
2.73813
2.56257
2.40248
2.25613
2.12201
1.99883
1.88544
1.78085
1.6842
1.5947
1.51169
1.43456
1.36278
1.29589
1.23344
1.17507
1.12044
1.06924
1.0212
0.976066
0.933618
0.893651
0.855983
0.820445
0.786886
0.755166
0.72516
0.696753
0.66984
0.644327
0.620129
0.59717
0.575383
0.554712
0.535109
0.516539
0.498979
0.482421
0.466878
0.452383
0.439005
0.426848
0.416073
0.406906
0.399667
0.394789
0.392856
0.394637
0.401128
0.413602
0.433654
0.463241
0.504718
0.560851
0.6348
0.730057
0.850317
0.999257
1.18019
1.39555
1.64619
1.93048
2.24325
2.57502
2.91166
3.23511
3.5251
3.76143
3.9264
4.007
3.99693
3.89813
3.72155
3.48645
3.21824
2.94568
2.6978
2.50177
2.38918
2.38619
2.53337
2.76318
2.84855
13.0027
11.4581
10.1621
9.06537
8.12993
7.32632
6.63142
6.02688
5.49798
5.03287
4.62188
4.25708
3.93193
3.64098
3.37969
3.14422
2.93135
2.73831
2.56276
2.40269
2.25635
2.12225
1.99909
1.88571
1.78114
1.6845
1.59502
1.51202
1.4349
1.36314
1.29625
1.23382
1.17546
1.12084
1.06965
1.02162
0.97649
0.934048
0.894087
0.856424
0.820889
0.787331
0.75561
0.725599
0.697181
0.670251
0.644711
0.620473
0.597456
0.575587
0.554801
0.535039
0.516252
0.498397
0.481443
0.465368
0.450161
0.43583
0.4224
0.409921
0.398476
0.388187
0.379231
0.371855
0.366391
0.363288
0.363133
0.366691
0.374937
0.389096
0.410683
0.44152
0.483749
0.539791
0.612252
0.703735
0.816524
0.952127
1.11067
1.29022
1.48623
1.6913
1.89548
2.0872
2.25453
2.38673
2.47555
2.51641
2.50926
2.45903
2.37537
2.27184
2.16469
2.07207
2.01453
2.01852
2.12775
2.40606
2.80042
2.92455
13.0027
11.4581
10.1622
9.06541
8.12997
7.32637
6.63148
6.02695
5.49806
5.03296
4.62198
4.2572
3.93206
3.64113
3.37985
3.1444
2.93155
2.73853
2.563
2.40294
2.25662
2.12254
1.99938
1.88603
1.78147
1.68484
1.59537
1.51239
1.43529
1.36354
1.29666
1.23424
1.17589
1.12128
1.0701
1.02207
0.976956
0.934522
0.894568
0.85691
0.821381
0.787828
0.756111
0.726103
0.697688
0.670758
0.645216
0.620972
0.597944
0.576055
0.555238
0.535428
0.516571
0.498615
0.481516
0.465239
0.449753
0.435039
0.421088
0.407905
0.395511
0.383949
0.373286
0.363628
0.35512
0.347966
0.342437
0.338896
0.337813
0.339794
0.345606
0.356208
0.372772
0.396695
0.429585
0.473198
0.529307
0.599474
0.684707
0.78502
0.89898
1.02336
1.15308
1.28156
1.40145
1.50561
1.58816
1.6453
1.67598
1.68219
1.66891
1.64389
1.61739
1.60255
1.61715
1.68815
1.86413
2.22041
2.71489
2.94752
13.0028
11.4582
10.1622
9.06545
8.13002
7.32643
6.63156
6.02703
5.49816
5.03308
4.62211
4.25734
3.93222
3.64131
3.38005
3.14462
2.93178
2.73878
2.56326
2.40322
2.25692
2.12286
1.99972
1.88638
1.78184
1.68522
1.59577
1.5128
1.43571
1.36397
1.29711
1.2347
1.17636
1.12176
1.07059
1.02257
0.977461
0.935034
0.895086
0.857435
0.821912
0.788364
0.756652
0.726648
0.698237
0.671311
0.645773
0.621531
0.598504
0.576615
0.555793
0.535975
0.517101
0.499118
0.481975
0.465631
0.450045
0.435187
0.42103
0.407558
0.394764
0.38265
0.371239
0.360568
0.3507
0.341728
0.333781
0.327035
0.321724
0.318154
0.316715
0.317901
0.322331
0.330756
0.344079
0.363336
0.389668
0.424227
0.468033
0.521743
0.585379
0.658043
0.737719
0.821265
0.904652
0.983448
1.05346
1.11139
1.15545
1.18571
1.20438
1.21586
1.22713
1.24864
1.29683
1.39915
1.60684
2.003
2.55845
2.92213
13.0028
11.4582
10.1622
9.0655
8.13008
7.3265
6.63164
6.02713
5.49827
5.03321
4.62226
4.25751
3.93241
3.64151
3.38027
3.14486
2.93204
2.73906
2.56356
2.40354
2.25726
2.12321
2.00009
1.88676
1.78224
1.68564
1.5962
1.51325
1.43617
1.36444
1.29759
1.23519
1.17687
1.12228
1.07111
1.0231
0.978001
0.935581
0.89564
0.857995
0.822477
0.788934
0.757227
0.727229
0.698822
0.6719
0.646365
0.622128
0.599104
0.577218
0.5564
0.536583
0.51771
0.499723
0.482572
0.466212
0.450599
0.435695
0.421468
0.407889
0.394936
0.382596
0.370863
0.359743
0.349256
0.339442
0.330359
0.322094
0.314769
0.308544
0.303627
0.300287
0.298859
0.299756
0.303478
0.310616
0.321842
0.337888
0.359483
0.387267
0.421651
0.462656
0.509759
0.561787
0.616921
0.672843
0.727011
0.777048
0.821158
0.858538
0.889732
0.917029
0.945108
0.982428
1.04411
1.15732
1.37391
1.78114
2.36367
2.86544
13.0028
11.4582
10.1623
9.06555
8.13014
7.32658
6.63173
6.02724
5.4984
5.03335
4.62242
4.25769
3.93261
3.64174
3.38052
3.14512
2.93232
2.73936
2.56389
2.40389
2.25762
2.12359
2.00049
1.88718
1.78267
1.68609
1.59666
1.51372
1.43666
1.36495
1.29811
1.23572
1.1774
1.12282
1.07167
1.02367
0.978574
0.936161
0.896228
0.858589
0.823076
0.789539
0.757836
0.727842
0.699439
0.672522
0.646991
0.622757
0.599737
0.577855
0.55704
0.537228
0.518358
0.500374
0.483226
0.466866
0.45125
0.436338
0.422093
0.408484
0.39548
0.383059
0.371201
0.359897
0.349143
0.338949
0.329337
0.320346
0.312037
0.304498
0.297844
0.292229
0.287849
0.284945
0.283814
0.284809
0.288335
0.294848
0.304828
0.318743
0.336992
0.359827
0.387261
0.418993
0.454358
0.492336
0.531639
0.570866
0.608737
0.644372
0.677633
0.709596
0.743391
0.785858
0.850661
0.963796
1.1758
1.57461
2.15787
2.79352
13.0028
11.4582
10.1623
9.0656
8.13021
7.32666
6.63183
6.02736
5.49854
5.03351
4.6226
4.25789
3.93283
3.64198
3.38078
3.14541
2.93263
2.73969
2.56424
2.40425
2.25801
2.124
2.00091
1.88762
1.78313
1.68656
1.59716
1.51423
1.43718
1.36548
1.29865
1.23628
1.17797
1.1234
1.07226
1.02426
0.979178
0.936773
0.896846
0.859213
0.823707
0.790175
0.758477
0.728487
0.700089
0.673175
0.647648
0.623418
0.600402
0.578523
0.557713
0.537904
0.519038
0.501059
0.483916
0.46756
0.451948
0.43704
0.422796
0.409184
0.396171
0.38373
0.371836
0.360469
0.349616
0.339268
0.329427
0.320106
0.311331
0.303147
0.295617
0.288834
0.282916
0.278016
0.274324
0.27207
0.271522
0.272987
0.276794
0.283283
0.292776
0.305533
0.321711
0.341317
0.364166
0.389866
0.417833
0.447346
0.477652
0.508122
0.5385
0.569333
0.602858
0.644764
0.707335
0.814842
1.01513
1.39394
1.95993
2.71822
13.0028
11.4583
10.1623
9.06566
8.13028
7.32675
6.63194
6.02749
5.49869
5.03368
4.6228
4.25811
3.93307
3.64224
3.38107
3.14572
2.93296
2.74004
2.56461
2.40465
2.25842
2.12443
2.00136
1.88809
1.78362
1.68707
1.59767
1.51476
1.43773
1.36604
1.29923
1.23686
1.17857
1.12401
1.07287
1.02489
0.979812
0.937414
0.897494
0.859868
0.824367
0.79084
0.759148
0.729163
0.700768
0.673858
0.648335
0.624109
0.601096
0.579222
0.558415
0.538611
0.519749
0.501775
0.484636
0.468286
0.45268
0.437778
0.423542
0.409936
0.396929
0.38449
0.372595
0.361217
0.350339
0.339944
0.330022
0.320571
0.311596
0.303117
0.295166
0.287795
0.281079
0.275115
0.270034
0.265997
0.263196
0.261857
0.262233
0.264592
0.269205
0.276315
0.286116
0.298716
0.314108
0.332158
0.352594
0.375036
0.399039
0.424195
0.45029
0.477686
0.508174
0.546723
0.604479
0.703842
0.889218
1.24223
1.7801
2.64706
13.0028
11.4583
10.1624
9.06572
8.13036
7.32685
6.63206
6.02762
5.49885
5.03386
4.623
4.25834
3.93332
3.64252
3.38137
3.14604
2.93331
2.74041
2.565
2.40506
2.25885
2.12488
2.00184
1.88858
1.78413
1.68759
1.59822
1.51532
1.4383
1.36663
1.29983
1.23747
1.17919
1.12464
1.07352
1.02554
0.980473
0.938084
0.898171
0.860551
0.825057
0.791535
0.759847
0.729867
0.701477
0.674571
0.649052
0.624829
0.60182
0.57995
0.559146
0.539346
0.520489
0.502519
0.485386
0.469042
0.453443
0.438548
0.42432
0.410724
0.397727
0.385299
0.373414
0.362046
0.351173
0.340777
0.330841
0.321356
0.312316
0.303724
0.295595
0.287954
0.280846
0.274335
0.268508
0.263482
0.259401
0.256444
0.254817
0.254751
0.25649
0.260276
0.266325
0.274802
0.28579
0.29927
0.315104
0.333044
0.352758
0.373904
0.396256
0.420051
0.446819
0.481059
0.533034
0.623392
0.792929
1.11804
1.62224
2.5841
13.0028
11.4583
10.1624
9.06578
8.13044
7.32695
6.63218
6.02776
5.49901
5.03405
4.62322
4.25858
3.93359
3.64281
3.38168
3.14638
2.93367
2.7408
2.56541
2.40549
2.25931
2.12536
2.00233
1.8891
1.78466
1.68814
1.59878
1.5159
1.4389
1.36724
1.30045
1.23811
1.17984
1.1253
1.07419
1.02622
0.981161
0.93878
0.898874
0.861261
0.825773
0.792257
0.760575
0.730599
0.702214
0.675312
0.649797
0.625578
0.602573
0.580706
0.559906
0.54011
0.521257
0.503292
0.486164
0.469826
0.454234
0.439347
0.425128
0.411542
0.398557
0.386143
0.374273
0.362921
0.352066
0.341686
0.331765
0.322288
0.313245
0.304632
0.29645
0.28871
0.281438
0.274671
0.268469
0.262914
0.258116
0.254217
0.251388
0.249832
0.24978
0.251475
0.255159
0.261049
0.269304
0.279998
0.293084
0.308383
0.325591
0.344326
0.364246
0.385384
0.408972
0.43909
0.485259
0.566625
0.720574
1.01786
1.48642
2.53111
13.0029
11.4584
10.1625
9.06584
8.13052
7.32705
6.6323
6.02791
5.49919
5.03425
4.62344
4.25883
3.93387
3.64311
3.38201
3.14673
2.93405
2.7412
2.56584
2.40594
2.25978
2.12585
2.00285
1.88963
1.78521
1.68871
1.59937
1.5165
1.43952
1.36787
1.3011
1.23877
1.18051
1.12598
1.07488
1.02693
0.981875
0.939502
0.899604
0.861998
0.826516
0.793006
0.76133
0.731359
0.702978
0.676081
0.650569
0.626354
0.603353
0.58149
0.560694
0.540902
0.522053
0.504093
0.486971
0.470639
0.455054
0.440175
0.425966
0.41239
0.399418
0.387018
0.375165
0.363832
0.352998
0.342642
0.332746
0.323295
0.314276
0.305681
0.297507
0.289756
0.28244
0.275581
0.269219
0.263411
0.258237
0.253807
0.250263
0.247782
0.246576
0.246885
0.248972
0.253098
0.259498
0.268342
0.279691
0.293458
0.309378
0.327021
0.345881
0.365688
0.38724
0.414062
0.454943
0.527768
0.666942
0.937653
1.37082
2.48851
13.0029
11.4584
10.1625
9.06591
8.1306
7.32716
6.63243
6.02807
5.49937
5.03446
4.62367
4.25909
3.93415
3.64342
3.38235
3.1471
2.93444
2.74162
2.56628
2.40641
2.26027
2.12636
2.00338
1.89018
1.78578
1.6893
1.59998
1.51713
1.44016
1.36853
1.30177
1.23945
1.18121
1.12669
1.0756
1.02766
0.982613
0.940248
0.900359
0.86276
0.827285
0.793782
0.76211
0.732145
0.703769
0.676876
0.651369
0.627158
0.60416
0.582301
0.561509
0.541721
0.522877
0.504922
0.487805
0.47148
0.455902
0.441031
0.426831
0.413267
0.400307
0.387922
0.376086
0.364773
0.353962
0.343632
0.333765
0.324346
0.315362
0.306803
0.298663
0.290941
0.283642
0.276779
0.270377
0.264476
0.259133
0.254433
0.250489
0.24745
0.245503
0.244878
0.245842
0.248686
0.253709
0.261178
0.27128
0.284059
0.299356
0.31676
0.335639
0.355386
0.376212
0.40087
0.437281
0.502246
0.627689
0.873615
1.27291
2.45598
13.0029
11.4584
10.1626
9.06598
8.13069
7.32727
6.63256
6.02823
5.49955
5.03467
4.62391
4.25936
3.93445
3.64375
3.3827
3.14748
2.93485
2.74205
2.56674
2.40689
2.26077
2.12689
2.00393
1.89075
1.78637
1.68991
1.60061
1.51777
1.44082
1.3692
1.30246
1.24016
1.18193
1.12742
1.07634
1.02841
0.983375
0.941019
0.901138
0.863547
0.828079
0.794582
0.762917
0.732957
0.704586
0.677698
0.652195
0.627988
0.604995
0.583139
0.562352
0.542568
0.523729
0.505778
0.488667
0.472347
0.456777
0.441914
0.427724
0.414171
0.401224
0.388854
0.377036
0.365743
0.354956
0.344652
0.334816
0.325431
0.316486
0.307969
0.299874
0.292198
0.284944
0.278119
0.271739
0.265834
0.260446
0.255637
0.251497
0.248146
0.245746
0.244505
0.244678
0.246569
0.250518
0.256874
0.265951
0.277954
0.292892
0.310475
0.330049
0.350718
0.372025
0.395724
0.428644
0.486555
0.599384
0.822512
1.19014
2.43288
13.0029
11.4585
10.1626
9.06605
8.13078
7.32738
6.6327
6.02839
5.49974
5.03489
4.62416
4.25963
3.93476
3.64408
3.38307
3.14787
2.93527
2.7425
2.56721
2.40739
2.2613
2.12743
2.00449
1.89134
1.78698
1.69054
1.60125
1.51844
1.4415
1.3699
1.30317
1.24089
1.18267
1.12817
1.0771
1.02918
0.98416
0.941813
0.901941
0.864358
0.828897
0.795407
0.763748
0.733794
0.705428
0.678545
0.653047
0.628845
0.605856
0.584004
0.563221
0.543442
0.524607
0.506662
0.489556
0.473242
0.457679
0.442825
0.428643
0.415102
0.402168
0.389813
0.378012
0.36674
0.355976
0.3457
0.335894
0.326545
0.317639
0.309166
0.30112
0.293497
0.286298
0.279529
0.273202
0.267339
0.261972
0.25715
0.252942
0.249447
0.246797
0.245173
0.244809
0.246002
0.24911
0.254538
0.262708
0.27399
0.288603
0.306466
0.327034
0.349243
0.371989
0.395858
0.426327
0.478073
0.579414
0.781738
1.12017
2.41849
13.0029
11.4585
10.1627
9.06612
8.13087
7.3275
6.63284
6.02856
5.49994
5.03511
4.62442
4.25992
3.93507
3.64443
3.38344
3.14828
2.9357
2.74295
2.56769
2.4079
2.26183
2.12799
2.00508
1.89194
1.78761
1.69119
1.60192
1.51912
1.4422
1.37062
1.3039
1.24163
1.18343
1.12895
1.07789
1.02998
0.984966
0.94263
0.902767
0.865192
0.829739
0.796256
0.764604
0.734655
0.706295
0.679418
0.653925
0.629727
0.606742
0.584896
0.564117
0.544342
0.525512
0.507572
0.490471
0.474164
0.458608
0.443762
0.42959
0.416059
0.403138
0.390799
0.379015
0.367763
0.357022
0.346772
0.336998
0.327683
0.318817
0.310389
0.302393
0.294824
0.287685
0.280979
0.274717
0.268917
0.263606
0.258823
0.254625
0.25109
0.248329
0.246495
0.245794
0.246501
0.24897
0.253635
0.260995
0.271569
0.285792
0.303851
0.32543
0.349456
0.374287
0.399289
0.428345
0.474869
0.565835
0.749263
1.06102
2.41214
13.0029
11.4585
10.1627
9.06619
8.13097
7.32761
6.63299
6.02873
5.50014
5.03534
4.62468
4.26021
3.93539
3.64478
3.38382
3.14869
2.93614
2.74342
2.56819
2.40842
2.26238
2.12856
2.00567
1.89256
1.78825
1.69185
1.6026
1.51982
1.44292
1.37135
1.30465
1.2424
1.18421
1.12974
1.0787
1.0308
0.985795
0.943469
0.903615
0.866049
0.830604
0.797128
0.765483
0.735541
0.707187
0.680315
0.654827
0.630635
0.607655
0.585813
0.565039
0.545268
0.526443
0.508508
0.491414
0.475113
0.459563
0.444726
0.430563
0.417043
0.404135
0.39181
0.380043
0.368811
0.358093
0.34787
0.338125
0.328845
0.320018
0.311634
0.303687
0.296174
0.289094
0.282453
0.276261
0.270533
0.265294
0.260577
0.256431
0.252921
0.250141
0.248217
0.24733
0.247726
0.249738
0.253803
0.260465
0.270355
0.284109
0.302203
0.324633
0.350481
0.37775
0.404637
0.433263
0.475542
0.557224
0.72354
1.01107
2.41323
13.003
11.4586
10.1628
9.06626
8.13106
7.32773
6.63313
6.0289
5.50034
5.03558
4.62494
4.26051
3.93572
3.64514
3.38421
3.14911
2.93659
2.7439
2.56869
2.40895
2.26294
2.12915
2.00628
1.8932
1.7889
1.69252
1.60329
1.52054
1.44365
1.3721
1.30542
1.24318
1.18501
1.13055
1.07952
1.03163
0.986644
0.944328
0.904484
0.866928
0.831492
0.798024
0.766386
0.736451
0.708103
0.681237
0.655755
0.631567
0.608593
0.586755
0.565986
0.546221
0.527401
0.509471
0.492382
0.476088
0.460546
0.445716
0.431563
0.418054
0.405158
0.392847
0.381097
0.369884
0.359188
0.348991
0.339276
0.330029
0.32124
0.3129
0.305001
0.297542
0.290522
0.283947
0.277825
0.272172
0.267011
0.262373
0.258301
0.254852
0.252108
0.250178
0.249216
0.249439
0.251151
0.254774
0.260866
0.27013
0.283368
0.301329
0.32437
0.351863
0.381665
0.410971
0.440062
0.47909
0.552561
0.70341
0.96899
2.42127
13.003
11.4586
10.1628
9.06634
8.13116
7.32786
6.63328
6.02908
5.50055
5.03582
4.62521
4.26081
3.93606
3.64551
3.38461
3.14954
2.93705
2.74439
2.56921
2.4095
2.26351
2.12975
2.0069
1.89384
1.78957
1.69321
1.60401
1.52127
1.4444
1.37287
1.30621
1.24398
1.18582
1.13138
1.08037
1.03249
0.987513
0.945209
0.905375
0.867828
0.832401
0.798942
0.767312
0.737384
0.709043
0.682183
0.656707
0.632525
0.609556
0.587723
0.566959
0.547199
0.528384
0.51046
0.493377
0.47709
0.461554
0.446733
0.432589
0.41909
0.406206
0.39391
0.382176
0.370982
0.360307
0.350135
0.340448
0.331235
0.322483
0.314184
0.306333
0.298927
0.291966
0.285455
0.279404
0.273827
0.268746
0.264192
0.260204
0.256837
0.254162
0.252277
0.251316
0.251472
0.253017
0.256343
0.262001
0.270729
0.283448
0.301145
0.324544
0.353401
0.385645
0.417698
0.448038
0.484804
0.551119
0.688015
0.93375
2.4359
13.003
11.4586
10.1629
9.06641
8.13126
7.32798
6.63343
6.02926
5.50076
5.03606
4.62549
4.26112
3.9364
3.64588
3.38502
3.14997
2.93752
2.74489
2.56974
2.41005
2.26409
2.13036
2.00754
1.8945
1.79025
1.69392
1.60473
1.52202
1.44517
1.37366
1.30701
1.2448
1.18666
1.13223
1.08123
1.03337
0.988402
0.946109
0.906286
0.868749
0.833332
0.799881
0.768259
0.73834
0.710006
0.683153
0.657682
0.633507
0.610543
0.588716
0.567958
0.548203
0.529393
0.511475
0.494398
0.478117
0.462589
0.447776
0.433641
0.420153
0.407281
0.394998
0.38328
0.372104
0.36145
0.351302
0.341643
0.332461
0.323745
0.315487
0.307682
0.300327
0.293424
0.286977
0.280995
0.275494
0.270495
0.266027
0.262129
0.258852
0.256265
0.254457
0.253549
0.253713
0.255193
0.258351
0.263709
0.272012
0.284252
0.301608
0.32514
0.355047
0.389514
0.424469
0.456719
0.492193
0.552396
0.676731
0.904531
2.45685
13.003
11.4587
10.163
9.06649
8.13136
7.3281
6.63359
6.02944
5.50098
5.03631
4.62577
4.26143
3.93674
3.64626
3.38543
3.15042
2.93799
2.74539
2.57027
2.41062
2.26469
2.13098
2.00818
1.89517
1.79095
1.69464
1.60547
1.52278
1.44595
1.37446
1.30783
1.24564
1.18751
1.1331
1.08211
1.03426
0.98931
0.947029
0.907217
0.869691
0.834284
0.800842
0.769229
0.739317
0.710991
0.684145
0.658682
0.634512
0.611555
0.589734
0.568981
0.549232
0.530428
0.512516
0.495445
0.47917
0.46365
0.448844
0.434719
0.42124
0.40838
0.396111
0.384408
0.37325
0.362617
0.352492
0.34286
0.333708
0.325027
0.316809
0.309048
0.301743
0.294896
0.288511
0.282598
0.277171
0.272254
0.267873
0.264068
0.260889
0.2584
0.256688
0.255866
0.25609
0.257584
0.260676
0.265857
0.273855
0.285692
0.302682
0.326178
0.356833
0.393236
0.431107
0.465807
0.500925
0.556054
0.669119
0.880706
2.48395
13.003
11.4587
10.163
9.06656
8.13146
7.32823
6.63374
6.02963
5.50119
5.03656
4.62605
4.26175
3.93709
3.64664
3.38585
3.15087
2.93847
2.74591
2.57082
2.41119
2.26529
2.13161
2.00884
1.89586
1.79166
1.69537
1.60623
1.52355
1.44674
1.37527
1.30866
1.24649
1.18838
1.13398
1.08301
1.03517
0.990236
0.947967
0.908168
0.870653
0.835256
0.801824
0.77022
0.740317
0.711999
0.68516
0.659704
0.635541
0.61259
0.590776
0.570029
0.550286
0.531488
0.513582
0.496517
0.480249
0.464736
0.449939
0.435822
0.422354
0.409505
0.397249
0.385561
0.37442
0.363806
0.353704
0.344098
0.334976
0.326328
0.318148
0.31043
0.303174
0.296381
0.290057
0.284211
0.278859
0.274022
0.26973
0.266019
0.262941
0.260558
0.258955
0.25824
0.25856
0.260124
0.263233
0.268344
0.276154
0.287685
0.304332
0.327684
0.358827
0.396857
0.437558
0.47513
0.510783
0.561876
0.66488
0.861806
2.51712
13.0031
11.4587
10.1631
9.06664
8.13156
7.32836
6.6339
6.02982
5.50141
5.03681
4.62634
4.26207
3.93745
3.64703
3.38627
3.15133
2.93896
2.74643
2.57137
2.41177
2.2659
2.13225
2.00951
1.89655
1.79237
1.69611
1.60699
1.52434
1.44755
1.3761
1.30951
1.24735
1.18926
1.13488
1.08392
1.0361
0.991179
0.948924
0.909137
0.871634
0.836247
0.802826
0.771232
0.741338
0.713028
0.686198
0.660749
0.636593
0.613649
0.591841
0.571101
0.551364
0.532572
0.514672
0.497615
0.481354
0.465848
0.451058
0.43695
0.423492
0.410655
0.398411
0.386738
0.375613
0.365019
0.354938
0.345357
0.336263
0.327648
0.319505
0.311829
0.30462
0.29788
0.291614
0.285835
0.280556
0.2758
0.271596
0.267982
0.265007
0.262736
0.261251
0.260658
0.2611
0.262773
0.265962
0.271093
0.278824
0.290156
0.30652
0.329678
0.361109
0.40047
0.443847
0.484609
0.521639
0.56974
0.663837
0.847499
2.55635
13.0031
11.4588
10.1631
9.06672
8.13166
7.32848
6.63405
6.03
5.50163
5.03706
4.62663
4.26239
3.93781
3.64743
3.3867
3.15179
2.93946
2.74696
2.57193
2.41236
2.26652
2.1329
2.01018
1.89725
1.7931
1.69686
1.60777
1.52514
1.44837
1.37694
1.31037
1.24823
1.19016
1.1358
1.08485
1.03705
0.99214
0.949898
0.910124
0.872633
0.837258
0.803848
0.772264
0.742379
0.714079
0.687257
0.661816
0.637668
0.614731
0.59293
0.572196
0.552466
0.533681
0.515788
0.498737
0.482483
0.466984
0.452203
0.438104
0.424655
0.411829
0.399598
0.387938
0.37683
0.366254
0.356194
0.346637
0.337571
0.328987
0.320879
0.313243
0.30608
0.299391
0.293184
0.287469
0.282262
0.277587
0.273471
0.269955
0.267087
0.264932
0.263572
0.263113
0.263695
0.26551
0.268826
0.274047
0.281796
0.293037
0.309203
0.332172
0.363754
0.404188
0.450056
0.494235
0.533431
0.579597
0.665908
0.837571
2.60171
13.0031
11.4588
10.1632
9.06679
8.13176
7.32861
6.63421
6.03019
5.50185
5.03732
4.62692
4.26272
3.93817
3.64783
3.38713
3.15226
2.93996
2.74749
2.5725
2.41296
2.26715
2.13355
2.01087
1.89796
1.79384
1.69763
1.60855
1.52595
1.44921
1.3778
1.31124
1.24913
1.19107
1.13673
1.0858
1.03801
0.993117
0.95089
0.911129
0.87365
0.838288
0.804889
0.773315
0.743441
0.71515
0.688337
0.662904
0.638765
0.615835
0.594042
0.573315
0.553592
0.534813
0.516927
0.499883
0.483636
0.468145
0.453372
0.439282
0.425843
0.413027
0.400808
0.389162
0.37807
0.367511
0.357472
0.347937
0.338898
0.330344
0.32227
0.314674
0.307554
0.300916
0.294765
0.289113
0.283978
0.279382
0.275356
0.271938
0.269179
0.267145
0.265917
0.265602
0.26634
0.268319
0.271801
0.277172
0.285021
0.296276
0.312344
0.335171
0.366834
0.408136
0.456301
0.504055
0.546154
0.591462
0.671103
0.831923
2.65334
13.0031
11.4589
10.1632
9.06687
8.13186
7.32874
6.63437
6.03038
5.50208
5.03758
4.62721
4.26305
3.93853
3.64823
3.38757
3.15273
2.94047
2.74803
2.57307
2.41357
2.26778
2.13422
2.01156
1.89868
1.79459
1.6984
1.60935
1.52677
1.45005
1.37866
1.31213
1.25003
1.19199
1.13767
1.08676
1.03899
0.994109
0.951897
0.91215
0.874685
0.839335
0.805948
0.774385
0.744521
0.71624
0.689437
0.664014
0.639882
0.616961
0.595175
0.574456
0.55474
0.535969
0.51809
0.501053
0.484814
0.46933
0.454565
0.440484
0.427055
0.414249
0.402042
0.39041
0.379332
0.368791
0.35877
0.349258
0.340244
0.331719
0.323678
0.31612
0.309043
0.302453
0.296357
0.290768
0.285703
0.281186
0.277248
0.27393
0.271283
0.269373
0.268284
0.268123
0.269031
0.271196
0.274875
0.280442
0.288465
0.299829
0.31591
0.338674
0.370408
0.412438
0.462724
0.51416
0.55985
0.605405
0.679518
0.830567
2.71146
13.0031
11.4589
10.1633
9.06695
8.13196
7.32887
6.63452
6.03057
5.5023
5.03784
4.62751
4.26338
3.9389
3.64863
3.38801
3.1532
2.94098
2.74857
2.57365
2.41418
2.26842
2.13489
2.01226
1.89941
1.79534
1.69918
1.61016
1.5276
1.4509
1.37954
1.31303
1.25095
1.19293
1.13863
1.08773
1.03998
0.995117
0.95292
0.913187
0.875736
0.840399
0.807024
0.775474
0.745621
0.717351
0.690557
0.665143
0.641021
0.618108
0.596331
0.57562
0.555911
0.537148
0.519276
0.502247
0.486015
0.470539
0.455783
0.44171
0.42829
0.415495
0.403299
0.39168
0.380616
0.370092
0.36009
0.350599
0.341609
0.333112
0.325103
0.31758
0.310545
0.304002
0.29796
0.292431
0.287435
0.282997
0.279148
0.275931
0.273398
0.271616