/*--------------------------------*- C++ -*----------------------------------*\
| =========                 |                                                 |
| \\      /  F ield         | OpenFOAM: The Open Source CFD Toolbox           |
|  \\    /   O peration     | Version:  4.1                                   |
|   \\  /    A nd           | Web:      www.OpenFOAM.org                      |
|    \\/     M anipulation  |                                                 |
\*---------------------------------------------------------------------------*/
FoamFile
{
    version     2.0;
    format      ascii;
    class       volScalarField;
    location    "0.31";
    object      k;
}
// * * * * * * * * * * * * * * * * * * * * * * * * * * * * * * * * * * * * * //

dimensions      [0 2 -2 0 0 0 0];

internalField   nonuniform List<scalar> 
43750
(
0.384095
0.39293
0.401482
0.409737
0.417683
0.425312
0.432613
0.439578
0.446194
0.452452
0.458339
0.463846
0.468963
0.473678
0.477983
0.481866
0.485319
0.488332
0.490895
0.492999
0.494636
0.495796
0.496469
0.496647
0.496319
0.495476
0.494108
0.492205
0.489757
0.486752
0.483182
0.479034
0.4743
0.468968
0.463031
0.456479
0.449308
0.441514
0.433098
0.424064
0.414426
0.404206
0.393441
0.382183
0.37051
0.358529
0.346388
0.334282
0.322471
0.311285
0.301139
0.292539
0.286075
0.282401
0.282184
0.286017
0.29429
0.307025
0.323727
0.343296
0.364072
0.384085
0.402792
0.419699
0.432384
0.439893
0.442173
0.43975
0.433382
0.423832
0.411718
0.397381
0.381243
0.363785
0.345231
0.325757
0.305571
0.284974
0.264436
0.24459
0.2261
0.209369
0.194318
0.18052
0.167579
0.155445
0.144471
0.135148
0.127783
0.120677
0.113834
0.107339
0.101187
0.0953263
0.0896733
0.0840821
0.0782445
0.0712494
0.060135
0.0355065
0.349411
0.327133
0.307739
0.290803
0.275977
0.262977
0.251562
0.241538
0.232738
0.225025
0.218281
0.212409
0.207324
0.202954
0.199237
0.196123
0.193568
0.191536
0.189995
0.188924
0.188302
0.188117
0.188362
0.189032
0.190131
0.191666
0.193651
0.196106
0.199059
0.202545
0.206609
0.211306
0.216705
0.222888
0.229956
0.238029
0.247254
0.257807
0.269897
0.283776
0.299744
0.318156
0.33943
0.364054
0.392588
0.425663
0.463978
0.508275
0.559312
0.617813
0.684393
0.759472
0.843155
0.935107
1.03441
1.13943
1.24773
1.35601
1.46021
1.55571
1.63774
1.70196
1.74509
1.76543
1.76307
1.73973
1.6984
1.64276
1.57655
1.5031
1.42493
1.34058
1.25595
1.17355
1.09309
1.01443
0.937378
0.861857
0.788495
0.718485
0.654008
0.597429
0.549494
0.508136
0.469071
0.428009
0.383959
0.339805
0.29996
0.267979
0.241277
0.218873
0.19983
0.183333
0.168691
0.155372
0.142894
0.129776
0.109747
0.056761
0.349122
0.326223
0.30592
0.287815
0.271585
0.256969
0.243754
0.231761
0.220842
0.210874
0.201752
0.193388
0.185706
0.178642
0.172141
0.166156
0.160645
0.155574
0.150913
0.146635
0.142717
0.139142
0.135892
0.132954
0.130318
0.127975
0.125919
0.124147
0.122658
0.121453
0.120537
0.119918
0.11961
0.119628
0.119998
0.120749
0.121922
0.123568
0.125752
0.128556
0.132084
0.136465
0.14186
0.148467
0.156528
0.166341
0.178261
0.192717
0.210212
0.231329
0.256739
0.287191
0.323504
0.366549
0.417213
0.476356
0.544739
0.622929
0.711173
0.809238
0.916225
1.03038
1.14898
1.26824
1.38344
1.48929
1.58049
1.65246
1.70208
1.72816
1.73151
1.71429
1.68005
1.63315
1.57732
1.51535
1.44711
1.3735
1.29778
1.21893
1.13821
1.05883
0.983565
0.912199
0.840811
0.764739
0.682908
0.599016
0.518643
0.449391
0.390015
0.338245
0.293299
0.254575
0.221411
0.192963
0.168305
0.146549
0.124105
0.0758329
0.349121
0.326216
0.305899
0.287769
0.271503
0.256835
0.243549
0.231463
0.220427
0.210313
0.201015
0.19244
0.18451
0.177158
0.170326
0.163964
0.158029
0.152481
0.147289
0.142423
0.137859
0.133574
0.129549
0.125768
0.122217
0.118884
0.115759
0.112833
0.110102
0.10756
0.105205
0.103036
0.101054
0.0992627
0.0976677
0.0962768
0.095101
0.0941547
0.0934562
0.0930289
0.0929022
0.0931129
0.0937076
0.0947444
0.0962967
0.0984568
0.10134
0.105093
0.109894
0.115968
0.123586
0.133079
0.144842
0.159341
0.177121
0.19881
0.225124
0.256871
0.294938
0.340282
0.393887
0.4567
0.529528
0.612882
0.706778
0.810499
0.922361
1.03955
1.1581
1.27312
1.37926
1.47144
1.54556
1.59927
1.63198
1.64455
1.63838
1.61476
1.57533
1.52109
1.45364
1.37574
1.29235
1.2108
1.13022
1.04623
0.955346
0.857865
0.756241
0.652822
0.559286
0.474201
0.398219
0.332272
0.276937
0.232184
0.197171
0.169776
0.144308
0.0933472
0.349121
0.326216
0.305897
0.287766
0.271497
0.256827
0.243537
0.231448
0.220406
0.210286
0.20098
0.192394
0.184451
0.177083
0.17023
0.163841
0.157873
0.152286
0.147045
0.14212
0.137484
0.133115
0.12899
0.125091
0.121402
0.117907
0.114594
0.111451
0.108469
0.105638
0.102951
0.100402
0.097985
0.0956973
0.093536
0.0915001
0.0895898
0.0878072
0.0861565
0.0846439
0.0832784
0.0820725
0.0810423
0.080209
0.0795997
0.0792487
0.0791995
0.0795063
0.0802368
0.081475
0.0833244
0.0859125
0.0893955
0.093964
0.0998497
0.107333
0.11675
0.128505
0.143075
0.161024
0.183007
0.209783
0.242208
0.281236
0.327882
0.383174
0.448053
0.52324
0.609041
0.705114
0.810239
0.922117
1.03731
1.1514
1.25928
1.35566
1.43551
1.49446
1.52936
1.53857
1.52258
1.48455
1.43011
1.36608
1.29629
1.22033
1.13575
1.04107
0.937023
0.826517
0.710719
0.600441
0.498958
0.409318
0.333711
0.273388
0.228723
0.198058
0.17178
0.109903
0.349121
0.326216
0.305897
0.287764
0.271495
0.256824
0.243533
0.231443
0.220401
0.210281
0.200974
0.192388
0.184444
0.177075
0.170222
0.163832
0.157862
0.152273
0.147028
0.142099
0.137458
0.133081
0.128947
0.125035
0.121331
0.117816
0.114479
0.111307
0.108288
0.105413
0.102672
0.100058
0.0975625
0.0951806
0.0929062
0.0907347
0.0886624
0.086686
0.0848036
0.0830141
0.0813173
0.0797145
0.0782088
0.0768047
0.0755094
0.0743333
0.0732901
0.0723987
0.071684
0.0711784
0.070924
0.0709742
0.0713967
0.0722762
0.0737174
0.075849
0.0788282
0.0828457
0.0881322
0.094965
0.103677
0.114664
0.128393
0.145413
0.166362
0.19197
0.223065
0.260568
0.305462
0.358749
0.421359
0.493999
0.576953
0.669813
0.771173
0.878316
0.986988
1.0914
1.18469
1.25992
1.3116
1.3372
1.33786
1.31752
1.28047
1.22917
1.16422
1.08598
0.995901
0.89668
0.789903
0.677592
0.56795
0.467651
0.381344
0.311893
0.260916
0.228395
0.203227
0.126484
0.349121
0.326216
0.305897
0.287764
0.271494
0.256822
0.243531
0.23144
0.220398
0.210277
0.20097
0.192384
0.18444
0.177071
0.170217
0.163828
0.157858
0.152268
0.147024
0.142095
0.137453
0.133076
0.128941
0.125028
0.121322
0.117806
0.114466
0.11129
0.108266
0.105385
0.102635
0.10001
0.0975015
0.0951022
0.0928062
0.0906076
0.0885015
0.0864834
0.0845494
0.0826961
0.0809208
0.0792215
0.0775966
0.0760456
0.0745689
0.0731678
0.071845
0.0706053
0.0694553
0.0684046
0.0674667
0.0666597
0.0660082
0.0655448
0.0653123
0.0653663
0.0657785
0.0666398
0.0680645
0.0701947
0.0732048
0.0773066
0.0827551
0.0898535
0.0989594
0.11049
0.124928
0.142828
0.164821
0.191623
0.224034
0.262927
0.309212
0.363751
0.4272
0.499754
0.580771
0.668344
0.75895
0.847441
0.927634
0.993546
1.04081
1.06746
1.07356
1.06004
1.02795
0.978489
0.913524
0.835827
0.749114
0.659389
0.566053
0.477027
0.398086
0.333248
0.285445
0.256189
0.233921
0.143408
0.349121
0.326216
0.305897
0.287764
0.271494
0.256822
0.24353
0.231439
0.220397
0.210276
0.200969
0.192383
0.184439
0.17707
0.170217
0.163828
0.157858
0.152269
0.147025
0.142096
0.137456
0.133079
0.128944
0.125032
0.121326
0.11781
0.114471
0.111295
0.108271
0.105388
0.102638
0.100011
0.0975002
0.0950977
0.0927972
0.0905927
0.0884789
0.0864507
0.0845037
0.0826339
0.0808376
0.0791118
0.0774535
0.0758607
0.0743316
0.072865
0.0714602
0.0701176
0.0688383
0.0676243
0.0664794
0.0654088
0.0644203
0.0635245
0.0627361
0.062075
0.0615681
0.0612514
0.0611726
0.0613952
0.0620014
0.0630974
0.0648181
0.0673315
0.0708433
0.0756014
0.0818985
0.0900751
0.100521
0.113679
0.130041
0.150155
0.174622
0.204085
0.239202
0.280567
0.328568
0.383154
0.443529
0.507859
0.573162
0.635525
0.690709
0.734885
0.765149
0.779639
0.777435
0.758536
0.723957
0.675807
0.617222
0.55295
0.490844
0.429466
0.373378
0.326558
0.292752
0.274975
0.261634
0.157246
0.349121
0.326217
0.305897
0.287764
0.271494
0.256822
0.243531
0.231439
0.220397
0.210276
0.200969
0.192383
0.18444
0.177071
0.170218
0.163829
0.15786
0.152271
0.147028
0.1421
0.13746
0.133083
0.128949
0.125038
0.121333
0.117817
0.114478
0.111303
0.108279
0.105397
0.102647
0.100021
0.0975101
0.0951075
0.0928066
0.0906013
0.0884861
0.086456
0.0845061
0.0826322
0.0808304
0.079097
0.0774289
0.0758232
0.0742774
0.0727892
0.0713568
0.0699791
0.0686551
0.0673846
0.0661681
0.0650067
0.0639028
0.0628599
0.0618828
0.0609789
0.0601576
0.0594322
0.0588206
0.0583469
0.058044
0.057956
0.0581424
0.0586822
0.0596788
0.0612655
0.0636099
0.0669181
0.0714372
0.0774558
0.0853031
0.0953444
0.107975
0.123612
0.142674
0.165559
0.192591
0.223942
0.259499
0.298712
0.340453
0.382962
0.423954
0.460864
0.491167
0.512653
0.523646
0.523199
0.511267
0.488828
0.457873
0.421286
0.38276
0.348359
0.319043
0.295573
0.28164
0.281109
0.282028
0.167225
0.349122
0.326217
0.305898
0.287765
0.271494
0.256822
0.243531
0.23144
0.220398
0.210277
0.20097
0.192385
0.184442
0.177074
0.170221
0.163833
0.157864
0.152276
0.147033
0.142106
0.137466
0.13309
0.128957
0.125046
0.121342
0.117827
0.114489
0.111314
0.108291
0.10541
0.102661
0.100035
0.0975245
0.0951224
0.092822
0.0906171
0.0885022
0.086472
0.084522
0.0826475
0.0808447
0.0791098
0.0774394
0.0758302
0.0742795
0.0727846
0.0713433
0.0699534
0.0686134
0.0673219
0.066078
0.0648813
0.063732
0.0626308
0.0615795
0.0605806
0.0596378
0.0587566
0.057944
0.0572099
0.0565673
0.0560337
0.0556331
0.0553978
0.055372
0.0556154
0.0562081
0.0572558
0.0588948
0.0612965
0.0646695
0.0692593
0.0753442
0.0832262
0.0932157
0.105609
0.120653
0.138504
0.159162
0.182403
0.207712
0.234241
0.260828
0.28607
0.30846
0.326542
0.339074
0.34519
0.344566
0.337529
0.3251
0.308929
0.291156
0.274246
0.260807
0.2542
0.257479
0.274613
0.292393
0.17307
0.349122
0.326217
0.305898
0.287766
0.271495
0.256823
0.243532
0.231442
0.2204
0.210279
0.200972
0.192387
0.184445
0.177077
0.170225
0.163837
0.157869
0.152282
0.14704
0.142113
0.137474
0.133099
0.128966
0.125056
0.121352
0.117839
0.114501
0.111327
0.108305
0.105424
0.102676
0.100051
0.0975411
0.0951397
0.0928399
0.0906356
0.0885213
0.0864917
0.0845421
0.0826681
0.0808656
0.0791308
0.0774603
0.0758508
0.0742993
0.072803
0.0713594
0.0699662
0.0686213
0.0673228
0.0660693
0.0648594
0.0636923
0.0625675
0.061485
0.0604454
0.05945
0.0585008
0.0576012
0.0567554
0.0559693
0.055251
0.0546109
0.054063
0.0536259
0.0533251
0.0531948
0.0532819
0.0536498
0.0543835
0.0555943
0.0574237
0.0600459
0.0636652
0.0685095
0.0748157
0.0828065
0.0926573
0.104454
0.118145
0.133495
0.150061
0.167193
0.184078
0.199817
0.213516
0.224396
0.231888
0.235727
0.23603
0.233319
0.228512
0.222876
0.217987
0.215801
0.218983
0.231886
0.260194
0.291707
0.176002
0.349122
0.326218
0.305899
0.287766
0.271496
0.256825
0.243534
0.231443
0.220402
0.210282
0.200975
0.192391
0.184449
0.177082
0.17023
0.163843
0.157876
0.152289
0.147047
0.142121
0.137483
0.133109
0.128977
0.125068
0.121365
0.117852
0.114515
0.111342
0.10832
0.105441
0.102693
0.100069
0.0975596
0.095159
0.0928599
0.0906563
0.0885427
0.0865137
0.0845647
0.0826913
0.0808894
0.0791551
0.0774851
0.075876
0.0743248
0.0728287
0.0713851
0.0699916
0.0686459
0.067346
0.0660899
0.0648762
0.0637033
0.06257
0.0614756
0.0604195
0.0594017
0.0584226
0.0574834
0.0565858
0.0557328
0.0549281
0.0541771
0.0534867
0.0528661
0.0523272
0.0518857
0.0515627
0.0513864
0.0513951
0.0516407
0.0521927
0.0531424
0.054606
0.0567252
0.0596635
0.0635952
0.0686877
0.0750735
0.082816
0.0918728
0.102065
0.113066
0.124415
0.135561
0.145925
0.154978
0.162314
0.167711
0.171183
0.173005
0.173724
0.174172
0.17552
0.17946
0.188625
0.207684
0.243118
0.283344
0.176945
0.349122
0.326218
0.3059
0.287767
0.271498
0.256826
0.243536
0.231446
0.220404
0.210285
0.200979
0.192395
0.184454
0.177087
0.170236
0.16385
0.157883
0.152297
0.147056
0.142131
0.137493
0.13312
0.128989
0.125081
0.121378
0.117866
0.11453
0.111358
0.108337
0.105459
0.102712
0.100088
0.09758
0.0951801
0.0928818
0.0906789
0.088566
0.0865377
0.0845894
0.0827166
0.0809153
0.0791817
0.0775123
0.0759038
0.0743532
0.0728577
0.0714147
0.0700216
0.0686763
0.0673766
0.0661206
0.0649064
0.0637324
0.0625972
0.0614993
0.0604379
0.059412
0.0584212
0.0574655
0.0565451
0.0556612
0.0548154
0.0540104
0.0532499
0.0525387
0.0518834
0.0512924
0.0507766
0.0503499
0.0500309
0.0498441
0.0498219
0.0500083
0.0504611
0.0512556
0.0524853
0.0542615
0.0567063
0.05994
0.0640622
0.0691261
0.0751132
0.0819128
0.0893151
0.0970241
0.10469
0.111954
0.118508
0.124142
0.128792
0.132575
0.135818
0.139113
0.143423
0.150325
0.162494
0.184819
0.224357
0.27032
0.175947
0.349123
0.326219
0.305901
0.287768
0.271499
0.256828
0.243538
0.231448
0.220407
0.210288
0.200983
0.192399
0.184459
0.177093
0.170243
0.163857
0.157891
0.152306
0.147066
0.142141
0.137505
0.133132
0.129002
0.125095
0.121393
0.117882
0.114547
0.111376
0.108356
0.105478
0.102732
0.100109
0.0976019
0.0952029
0.0929053
0.0907033
0.088591
0.0865635
0.0846159
0.0827438
0.0809432
0.0792103
0.0775415
0.0759337
0.0743838
0.0728889
0.0714466
0.0700542
0.0687096
0.0674106
0.0661552
0.0649417
0.0637681
0.0626331
0.061535
0.0604727
0.059445
0.0584509
0.0574897
0.056561
0.0556647
0.0548013
0.0539716
0.0531776
0.0524216
0.0517073
0.0510396
0.0504249
0.0498713
0.0493893
0.0489921
0.0486968
0.0485258
0.048508
0.0486814
0.049095
0.0498102
0.0509003
0.0524477
0.0545355
0.0572357
0.0605926
0.0646065
0.0692202
0.074315
0.0797183
0.0852242
0.0906254
0.0957505
0.100504
0.104907
0.109142
0.113635
0.119199
0.127327
0.140705
0.164327
0.205619
0.254725
0.173666
0.349123
0.326219
0.305901
0.28777
0.2715
0.25683
0.24354
0.231451
0.220411
0.210292
0.200987
0.192405
0.184465
0.177099
0.17025
0.163865
0.1579
0.152315
0.147077
0.142153
0.137517
0.133146
0.129016
0.12511
0.12141
0.117899
0.114565
0.111395
0.108376
0.105499
0.102754
0.100132
0.0976254
0.0952272
0.0929305
0.0907292
0.0886178
0.086591
0.0846442
0.0827729
0.080973
0.0792407
0.0775727
0.0759656
0.0744163
0.0729222
0.0714806
0.070089
0.0687451
0.0674469
0.0661924
0.0649796
0.063807
0.0626728
0.0615755
0.0605139
0.0594866
0.0584925
0.0575305
0.0566
0.0557002
0.0548309
0.053992
0.0531841
0.0524081
0.051666
0.0509604
0.050295
0.0496749
0.0491067
0.0485989
0.048162
0.0478094
0.047558
0.047429
0.0474496
0.0476535
0.0480825
0.0487859
0.0498186
0.0512373
0.0530926
0.0554198
0.0582293
0.0614978
0.0651667
0.0691452
0.0733237
0.0775942
0.0818776
0.0861598
0.0905427
0.0953367
0.101237
0.109644
0.123197
0.146862
0.188209
0.238348
0.170736
0.349123
0.32622
0.305902
0.287771
0.271502
0.256832
0.243543
0.231454
0.220414
0.210296
0.200992
0.19241
0.184471
0.177106
0.170258
0.163874
0.15791
0.152326
0.147088
0.142165
0.137531
0.13316
0.129032
0.125126
0.121427
0.117918
0.114584
0.111415
0.108397
0.105521
0.102777
0.100156
0.0976503
0.0952529
0.0929571
0.0907567
0.0886461
0.0866202
0.0846742
0.0828036
0.0810045
0.079273
0.0776057
0.0759993
0.0744508
0.0729574
0.0715166
0.0701257
0.0687827
0.0674853
0.0662316
0.0650198
0.0638481
0.0627149
0.0616188
0.0605583
0.0595321
0.0585391
0.0575781
0.0566483
0.0557488
0.0548788
0.054038
0.0532262
0.0524436
0.0516907
0.0509688
0.0502801
0.0496275
0.0490152
0.0484489
0.0479357
0.0474851
0.0471086
0.0468206
0.0466388
0.0465849
0.046685
0.04697
0.0474756
0.0482403
0.0493035
0.0507009
0.0524598
0.0545932
0.057096
0.0599435
0.0630943
0.0664984
0.0701135
0.0739293
0.0780149
0.0826158
0.0883439
0.0965082
0.109653
0.132603
0.172872
0.222478
0.167634
0.349123
0.32622
0.305903
0.287772
0.271504
0.256834
0.243545
0.231457
0.220418
0.210301
0.200997
0.192416
0.184478
0.177114
0.170266
0.163883
0.15792
0.152337
0.1471
0.142178
0.137545
0.133175
0.129048
0.125143
0.121445
0.117937
0.114605
0.111436
0.108419
0.105544
0.102801
0.100181
0.0976764
0.09528
0.0929851
0.0907856
0.0886759
0.0866509
0.0847057
0.0828359
0.0810376
0.079307
0.0776404
0.0760348
0.0744871
0.0729945
0.0715544
0.0701644
0.0688222
0.0675257
0.066273
0.0650621
0.0638914
0.0627593
0.0616643
0.0606051
0.0595802
0.0585887
0.0576292
0.056701
0.055803
0.0549346
0.054095
0.0532838
0.0525007
0.0517458
0.0510195
0.0503227
0.0496571
0.0490253
0.0484309
0.047879
0.0473764
0.0469316
0.0465558
0.0462624
0.046068
0.0459924
0.0460585
0.0462927
0.0467238
0.0473819
0.0482966
0.0494941
0.0509947
0.0528099
0.0549409
0.0573786
0.0601075
0.0631129
0.0663984
0.0700251
0.0742072
0.0795049
0.0871507
0.0995705
0.121373
0.159862
0.207858
0.164674
0.349124
0.326221
0.305904
0.287773
0.271505
0.256836
0.243548
0.23146
0.220422
0.210305
0.201003
0.192422
0.184485
0.177122
0.170275
0.163893
0.157931
0.152349
0.147113
0.142192
0.13756
0.133191
0.129065
0.125162
0.121464
0.117957
0.114626
0.111458
0.108443
0.105568
0.102826
0.100207
0.0977038
0.0953084
0.0930145
0.0908159
0.0887071
0.086683
0.0847387
0.0828698
0.0810724
0.0793425
0.0776768
0.0760721
0.0745252
0.0730334
0.0715941
0.070205
0.0688636
0.067568
0.0663162
0.0651063
0.0639367
0.0628057
0.061712
0.060654
0.0596306
0.0586406
0.0576829
0.0567566
0.0558607
0.0549944
0.0541571
0.0533483
0.0525675
0.0518145
0.0510893
0.0503924
0.0497246
0.0490873
0.0484829
0.0479148
0.0473879
0.0469087
0.0464858
0.0461304
0.0458561
0.0456799
0.0456217
0.0457042
0.045953
0.0463949
0.0470569
0.0479638
0.0491367
0.0505899
0.0523304
0.0543579
0.0566664
0.0592499
0.0621148
0.065315
0.0690441
0.0738269
0.0808333
0.0923701
0.112798
0.149111
0.194809
0.162033
0.349124
0.326222
0.305905
0.287775
0.271507
0.256838
0.243551
0.231464
0.220426
0.21031
0.201009
0.192429
0.184492
0.17713
0.170284
0.163903
0.157942
0.152361
0.147126
0.142207
0.137575
0.133208
0.129082
0.12518
0.121484
0.117978
0.114648
0.111482
0.108467
0.105594
0.102853
0.100235
0.0977324
0.095338
0.0930451
0.0908475
0.0887397
0.0867165
0.0847731
0.0829052
0.0811086
0.0793797
0.0777148
0.0761109
0.0745649
0.073074
0.0716356
0.0702473
0.0689069
0.0676122
0.0663614
0.0651525
0.063984
0.0628541
0.0617616
0.060705
0.0596831
0.0586948
0.0577389
0.0568145
0.0559209
0.0550571
0.0542226
0.0534168
0.0526393
0.0518898
0.0511682
0.0504747
0.0498098
0.0491743
0.0485698
0.0479987
0.0474644
0.0469717
0.0465275
0.0461406
0.0458227
0.0455886
0.0454561
0.0454469
0.0455856
0.0458993
0.0464161
0.0471635
0.0481654
0.0494397
0.050996
0.0528345
0.0549471
0.0573212
0.0599504
0.0628674
0.0662351
0.0705383
0.0768877
0.0874819
0.106436
0.14038
0.183385
0.159795
0.349124
0.326222
0.305906
0.287776
0.271509
0.256841
0.243554
0.231467
0.22043
0.210315
0.201015
0.192436
0.1845
0.177139
0.170294
0.163914
0.157954
0.152374
0.14714
0.142222
0.137591
0.133225
0.129101
0.1252
0.121505
0.118
0.114671
0.111506
0.108492
0.10562
0.10288
0.100264
0.0977621
0.0953688
0.0930769
0.0908803
0.0887735
0.0867513
0.0848089
0.0829419
0.0811463
0.0794183
0.0777544
0.0761514
0.0746062
0.0731162
0.0716787
0.0702914
0.0689519
0.0676582
0.0664083
0.0652005
0.0640331
0.0629045
0.0618132
0.060758
0.0597376
0.0587509
0.0577969
0.0568747
0.0559833
0.0551222
0.0542906
0.0534881
0.0527142
0.0519688
0.0512518
0.0505632
0.0499034
0.0492731
0.0486735
0.0481063
0.0475741
0.0470805
0.0466309
0.0462324
0.0458946
0.04563
0.0454549
0.0453893
0.0454573
0.0456867
0.0461082
0.0467538
0.0476538
0.0488338
0.0503104
0.0520883
0.0541578
0.0564966
0.0590766
0.061894
0.0650594
0.0689944
0.0747386
0.0843943
0.101855
0.133373
0.173492
0.157986
0.349125
0.326223
0.305907
0.287778
0.271511
0.256843
0.243557
0.231471
0.220435
0.210321
0.201021
0.192443
0.184508
0.177148
0.170304
0.163925
0.157966
0.152387
0.147155
0.142237
0.137608
0.133243
0.12912
0.12522
0.121526
0.118023
0.114695
0.111531
0.108519
0.105648
0.102909
0.100293
0.0977929
0.0954006
0.0931098
0.0909144
0.0888086
0.0867874
0.084846
0.08298
0.0811854
0.0794583
0.0777954
0.0761933
0.0746491
0.0731601
0.0717235
0.0703371
0.0689986
0.0677059
0.066457
0.0652503
0.064084
0.0629566
0.0618667
0.0608129
0.0597941
0.0588091
0.057857
0.0569368
0.0560478
0.0551894
0.0543608
0.0535617
0.0527917
0.0520506
0.0513384
0.0506552
0.0500014
0.0493777
0.048785
0.048225
0.0476996
0.047212
0.0467664
0.0463684
0.0460261
0.0457501
0.0455542
0.0454567
0.0454801
0.0456522
0.0460054
0.0465759
0.0474014
0.0485178
0.0499539
0.0517261
0.0538322
0.0562471
0.0589237
0.0618142
0.0649556
0.0686733
0.0739098
0.0826748
0.0986744
0.127794
0.164977
0.1566
0.349125
0.326224
0.305908
0.287779
0.271513
0.256846
0.24356
0.231475
0.22044
0.210326
0.201027
0.19245
0.184516
0.177157
0.170315
0.163937
0.157979
0.152401
0.14717
0.142254
0.137625
0.133261
0.12914
0.125241
0.121549
0.118046
0.11472
0.111557
0.108546
0.105676
0.102938
0.100324
0.0978246
0.0954336
0.0931439
0.0909495
0.0888449
0.0868247
0.0848844
0.0830195
0.0812258
0.0794998
0.0778378
0.0762368
0.0746936
0.0732055
0.0717699
0.0703845
0.069047
0.0677553
0.0665075
0.0653019
0.0641368
0.0630106
0.061922
0.0608696
0.0598524
0.0588691
0.0579189
0.0570009
0.0561143
0.0552585
0.054433
0.0536373
0.0528712
0.0521345
0.0514273
0.0507497
0.0501022
0.0494855
0.0489006
0.0483489
0.0478325
0.047354
0.0469171
0.0465267
0.0461894
0.0459141
0.0457128
0.0456012
0.0455999
0.0457353
0.0460396
0.0465517
0.0473151
0.0483759
0.0497778
0.0515547
0.0537219
0.0562642
0.0591272
0.0622236
0.0655038
0.0691659
0.0740189
0.0819723
0.0965769
0.123382
0.15767
0.155614
0.349126
0.326225
0.305909
0.287781
0.271515
0.256849
0.243564
0.231479
0.220444
0.210332
0.201034
0.192458
0.184525
0.177167
0.170325
0.163949
0.157992
0.152415
0.147185
0.14227
0.137643
0.133281
0.12916
0.125263
0.121571
0.11807
0.114745
0.111583
0.108573
0.105705
0.102969
0.100355
0.0978574
0.0954675
0.093179
0.0909858
0.0888823
0.0868633
0.084924
0.0830602
0.0812676
0.0795426
0.0778817
0.0762817
0.0747395
0.0732524
0.0718179
0.0704335
0.069097
0.0678064
0.0665597
0.0653552
0.0641913
0.0630663
0.0619791
0.0609282
0.0599125
0.058931
0.0579827
0.0570668
0.0561826
0.0553295
0.054507
0.0537148
0.0529526
0.0522203
0.051518
0.050846
0.0502049
0.0495953
0.0490183
0.0484754
0.0479687
0.0475006
0.0470746
0.046695
0.0463678
0.0461007
0.0459038
0.045791
0.0457803
0.0458958
0.0461681
0.0466364
0.0473475
0.0483558
0.0497186
0.0514904
0.0537105
0.0563867
0.0594734
0.0628577
0.0664047
0.0701623
0.0747685
0.0820116
0.0953112
0.119918
0.15141
0.155
0.349126
0.326225
0.305911
0.287782
0.271517
0.256851
0.243567
0.231483
0.220449
0.210338
0.201041
0.192465
0.184534
0.177177
0.170336
0.163961
0.158005
0.15243
0.147201
0.142287
0.137662
0.1333
0.129181
0.125285
0.121595
0.118095
0.114771
0.111611
0.108602
0.105735
0.103
0.100388
0.0978911
0.0955024
0.0932151
0.0910231
0.0889208
0.0869029
0.0849648
0.0831021
0.0813107
0.0795868
0.0779269
0.0763279
0.0747868
0.0733008
0.0718673
0.070484
0.0691486
0.0678591
0.0666135
0.0654102
0.0642475
0.0631238
0.0620379
0.0609885
0.0599744
0.0589946
0.0580483
0.0571345
0.0562527
0.0554023
0.0545828
0.0537939
0.0530356
0.0523076
0.0516103
0.0509439
0.050309
0.0497064
0.0491374
0.0486034
0.0481063
0.047649
0.0472345
0.0468672
0.0465525
0.0462974
0.0461109
0.0460052
0.0459961
0.0461051
0.0463604
0.0467993
0.0474696
0.0484302
0.0497498
0.0515018
0.0537528
0.0565424
0.05985
0.0635568
0.0674559
0.0714368
0.0759336
0.0825827
0.0946836
0.117229
0.146059
0.154731
0.349126
0.326226
0.305912
0.287784
0.271519
0.256854
0.24357
0.231488
0.220454
0.210344
0.201047
0.192473
0.184543
0.177187
0.170348
0.163973
0.158019
0.152445
0.147217
0.142305
0.13768
0.13332
0.129202
0.125308
0.121619
0.11812
0.114798
0.111639
0.108632
0.105766
0.103032
0.100421
0.0979257
0.0955383
0.0932522
0.0910615
0.0889603
0.0869437
0.0850068
0.0831452
0.0813549
0.0796322
0.0779735
0.0763756
0.0748356
0.0733507
0.0719183
0.0705361
0.0692018
0.0679134
0.066669
0.0654668
0.0643054
0.063183
0.0620985
0.0610506
0.0600381
0.05906
0.0581156
0.0572039
0.0563245
0.0554767
0.0546602
0.0538747
0.0531201
0.0523964
0.0517039
0.051043
0.0504143
0.0498187
0.0492574
0.048732
0.0482446
0.0477979
0.047395
0.0470403
0.0467389
0.0464975
0.0463246
0.0462309
0.0462307
0.046343
0.0465935
0.0470167
0.0476589
0.0485805
0.0498575
0.0515787
0.0538371
0.0567082
0.0602086
0.0642345
0.0685295
0.0728321
0.0773495
0.0835295
0.0945487
0.115178
0.141497
0.154781
0.349127
0.326227
0.305913
0.287786
0.271522
0.256857
0.243574
0.231492
0.22046
0.21035
0.201054
0.192481
0.184552
0.177197
0.170359
0.163986
0.158033
0.15246
0.147234
0.142323
0.1377
0.133341
0.129224
0.125331
0.121644
0.118146
0.114825
0.111667
0.108662
0.105797
0.103065
0.100455
0.0979611
0.095575
0.0932903
0.0911008
0.0890009
0.0869855
0.0850499
0.0831895
0.0814004
0.0796788
0.0780213
0.0764246
0.0748857
0.073402
0.0719707
0.0705896
0.0692565
0.0679692
0.066726
0.0655251
0.0643649
0.0632439
0.0621608
0.0611143
0.0601034
0.0591271
0.0581846
0.0572751
0.0563979
0.0555528
0.0547392
0.0539569
0.053206
0.0524866
0.0517988
0.0511432
0.0505205
0.0499316
0.0493779
0.048861
0.048383
0.0479467
0.0475553
0.0472131
0.0469251
0.046698
0.0465398
0.0464606
0.0464737
0.0465961
0.0468511
0.0472702
0.047897
0.0487909
0.050031
0.051717
0.0539643
0.0568839
0.0605369
0.0648528
0.0695526
0.0742444
0.0788992
0.084739
0.0948
0.113663
0.137629
0.15513
0.349127
0.326228
0.305914
0.287787
0.271524
0.25686
0.243577
0.231496
0.220465
0.210356
0.201062
0.19249
0.184561
0.177208
0.170371
0.163999
0.158047
0.152476
0.147251
0.142341
0.137719
0.133362
0.129247
0.125355
0.121669
0.118173
0.114853
0.111697
0.108692
0.105829
0.103098
0.10049
0.0979974
0.0956127
0.0933292
0.0911411
0.0890425
0.0870284
0.085094
0.0832349
0.0814471
0.0797267
0.0780704
0.0764749
0.0749372
0.0734546
0.0720245
0.0706446
0.0693127
0.0680266
0.0667847
0.065585
0.0644261
0.0633064
0.0622247
0.0611797
0.0601705
0.0591959
0.0582553
0.0573478
0.056473
0.0556304
0.0548196
0.0540406
0.0532933
0.0525779
0.0518947
0.0512443
0.0506274
0.0500451
0.0494988
0.0489901
0.0485213
0.0480951
0.0477149
0.0473849
0.0471102
0.0468974
0.0467543
0.0466908
0.0467193
0.0468559
0.0471219
0.0475461
0.0481688
0.049047
0.0502595
0.0519123
0.0541374
0.0570777
0.0608407
0.0654029
0.0704905
0.0756107
0.0805034
0.0861312
0.0953615
0.112606
0.134378
0.155759
0.349127
0.326228
0.305915
0.287789
0.271526
0.256863
0.243581
0.231501
0.22047
0.210362
0.201069
0.192498
0.184571
0.177219
0.170383
0.164012
0.158061
0.152492
0.147268
0.142359
0.137739
0.133383
0.12927
0.125379
0.121694
0.1182
0.114882
0.111727
0.108724
0.105862
0.103132
0.100526
0.0980345
0.0956511
0.0933691
0.0911823
0.0890851
0.0870723
0.0851392
0.0832814
0.0814948
0.0797758
0.0781207
0.0765264
0.07499
0.0735086
0.0720798
0.0707011
0.0693703
0.0680856
0.0668448
0.0656464
0.0644888
0.0633705
0.0622903
0.0612468
0.0602391
0.0592663
0.0583276
0.0574222
0.0565496
0.0557095
0.0549016
0.0541257
0.0533819
0.0526704
0.0519917
0.0513463
0.050735
0.0501591
0.0496198
0.0491191
0.0486592
0.0482428
0.0478735
0.0475554
0.0472938
0.047095
0.0469671
0.0469196
0.0469647
0.0471178
0.0473988
0.0478346
0.0484626
0.0493362
0.0505322
0.0521583
0.0543576
0.0572986
0.0611332
0.0658928
0.0713335
0.0768972
0.0821106
0.0876512
0.0961805
0.111953
0.131683
0.156655
0.349128
0.326229
0.305916
0.287791
0.271528
0.256865
0.243585
0.231505
0.220475
0.210369
0.201076
0.192507
0.18458
0.177229
0.170395
0.164026
0.158076
0.152508
0.147285
0.142378
0.13776
0.133405
0.129293
0.125404
0.121721
0.118228
0.114911
0.111757
0.108756
0.105896
0.103167
0.100562
0.0980723
0.0956904
0.0934098
0.0912244
0.0891285
0.0871171
0.0851854
0.083329
0.0815437
0.079826
0.0781722
0.0765792
0.0750441
0.073564
0.0721364
0.0707589
0.0694295
0.0681459
0.0669065
0.0657094
0.0645531
0.0634362
0.0623574
0.0613155
0.0603094
0.0593383
0.0584014
0.0574981
0.0566278
0.0557901
0.0549849
0.0542121
0.0534717
0.052764
0.0520896
0.051449
0.0508432
0.0502733
0.049741
0.0492479
0.0487966
0.0483898
0.048031
0.0477246
0.0474757
0.0472908
0.0471778
0.0471464
0.0472085
0.0473792
0.0476778
0.0481296
0.0487698
0.0496484
0.0508389
0.0524477
0.0546234
0.0575534
0.0614285
0.066338
0.0720876
0.0780908
0.0836902
0.0892629
0.0972219
0.111665
0.129499
0.157809
0.349128
0.32623
0.305918
0.287792
0.271531
0.256868
0.243588
0.23151
0.220481
0.210375
0.201084
0.192515
0.18459
0.17724
0.170407
0.164039
0.158091
0.152524
0.147303
0.142397
0.13778
0.133427
0.129316
0.125429
0.121747
0.118256
0.11494
0.111789
0.108788
0.10593
0.103203
0.100599
0.0981109
0.0957304
0.0934513
0.0912673
0.0891729
0.0871629
0.0852326
0.0833775
0.0815937
0.0798773
0.0782248
0.0766332
0.0750993
0.0736206
0.0721943
0.0708181
0.06949
0.0682077
0.0669696
0.0657739
0.064619
0.0635035
0.0624261
0.0613857
0.0603813
0.0594119
0.0584769
0.0575755
0.0567074
0.0558721
0.0550696
0.0542997
0.0535626
0.0528587
0.0521884
0.0515524
0.0509519
0.0503879
0.0498621
0.0493765
0.0489334
0.0485358
0.0481873
0.0478922
0.0476557
0.0474845
0.0473863
0.0473709
0.0474502
0.0476393
0.0479568
0.0484276
0.0490848
0.049976
0.0511708
0.0527727
0.0549311
0.0578458
0.061739
0.0667566
0.0727678
0.0791928
0.085227
0.0909436
0.0984637
0.111716
0.127792
0.159214
0.349129
0.326231
0.305919
0.287794
0.271533
0.256871
0.243592
0.231514
0.220486
0.210381
0.201091
0.192524
0.1846
0.177252
0.17042
0.164053
0.158106
0.152541
0.147321
0.142417
0.137801
0.13345
0.12934
0.125454
0.121774
0.118284
0.114971
0.11182
0.108822
0.105964
0.103239
0.100637
0.0981501
0.0957712
0.0934935
0.091311
0.0892181
0.0872096
0.0852807
0.0834271
0.0816446
0.0799296
0.0782786
0.0766883
0.0751558
0.0736784
0.0722535
0.0708787
0.0695518
0.068271
0.0670342
0.0658398
0.0646863
0.0635723
0.0624964
0.0614575
0.0604547
0.059487
0.0585538
0.0576544
0.0567884
0.0559555
0.0551556
0.0543886
0.0536547
0.0529543
0.052288
0.0516565
0.051061
0.0505027
0.0499833
0.0495047
0.0490696
0.0486809
0.0483423
0.0480582
0.0478339
0.047676
0.0475925
0.0475931
0.0476898
0.0478975
0.048235
0.0487264
0.0494043
0.0503138
0.0515212
0.0531261
0.0552761
0.0581767
0.0620743
0.0671661
0.0733933
0.0802132
0.0867165
0.0926807
0.0998941
0.112093
0.12654
0.160865
0.349129
0.326231
0.30592
0.287796
0.271535
0.256874
0.243596
0.231519
0.220492
0.210388
0.201099
0.192533
0.18461
0.177263
0.170432
0.164067
0.158122
0.152557