/*--------------------------------*- C++ -*----------------------------------*\
| =========                 |                                                 |
| \\      /  F ield         | OpenFOAM: The Open Source CFD Toolbox           |
|  \\    /   O peration     | Version:  4.1                                   |
|   \\  /    A nd           | Web:      www.OpenFOAM.org                      |
|    \\/     M anipulation  |                                                 |
\*---------------------------------------------------------------------------*/
FoamFile
{
    version     2.0;
    format      ascii;
    class       volScalarField;
    location    "0.31";
    object      nut;
}
// * * * * * * * * * * * * * * * * * * * * * * * * * * * * * * * * * * * * * //

dimensions      [0 2 -1 0 0 0 0];

internalField   nonuniform List<scalar> 
43750
(
0.00139176
0.00140767
0.00142291
0.00143746
0.00145134
0.00146453
0.00147704
0.00148888
0.00150005
0.00151052
0.00152032
0.00152942
0.00153782
0.00154553
0.00155253
0.00155881
0.00156437
0.00156921
0.00157331
0.00157666
0.00157926
0.00158109
0.00158214
0.0015824
0.00158185
0.00158048
0.00157827
0.00157519
0.00157123
0.00156636
0.00156056
0.0015538
0.00154604
0.00153725
0.00152741
0.00151648
0.00150441
0.00149118
0.00147676
0.00146111
0.00144423
0.0014261
0.00140674
0.00138621
0.0013646
0.00134206
0.00131885
0.00129533
0.00127202
0.00124964
0.00122913
0.00121172
0.00119885
0.00119213
0.00119313
0.00120311
0.00122262
0.00125113
0.00128683
0.00132673
0.00136706
0.00140406
0.00143927
0.0014691
0.00148987
0.00150084
0.00150258
0.0014963
0.00148336
0.00146494
0.00144186
0.00141438
0.00138344
0.0013496
0.00131295
0.00127359
0.00123168
0.00118771
0.00114265
0.001098
0.00105545
0.00101599
0.000979373
0.000944487
0.000910496
0.000877635
0.000847282
0.000821136
0.000800284
0.000780188
0.000760345
0.000740936
0.000721922
0.000703117
0.000684187
0.000664513
0.000642663
0.000614192
0.000563642
0.000427835
0.000846034
0.000841725
0.000838948
0.00083758
0.000837513
0.000838627
0.000840798
0.000843901
0.000847817
0.000852425
0.000857609
0.000863255
0.00086926
0.000875535
0.000882004
0.000888611
0.000895321
0.000902122
0.000909023
0.00091606
0.00092329
0.000930791
0.000938665
0.000947029
0.000956022
0.000965796
0.000976523
0.000988389
0.0010016
0.00101638
0.00103297
0.00105165
0.00107271
0.00109648
0.00112336
0.00115374
0.00118811
0.001227
0.00127101
0.00132082
0.00137718
0.00144093
0.00151296
0.00159428
0.0016859
0.00178888
0.0019043
0.00203317
0.00217644
0.00233492
0.00250926
0.00269984
0.0029068
0.00312982
0.00336813
0.00362023
0.00388375
0.0041553
0.00443028
0.00470301
0.00496701
0.00521568
0.00544325
0.00564535
0.00581963
0.00596558
0.00608436
0.00617801
0.00624856
0.00629745
0.00632514
0.0063327
0.00631542
0.00626842
0.00618963
0.00607578
0.00592336
0.00573018
0.00549885
0.00524377
0.00499242
0.00477493
0.00460593
0.00447331
0.00434301
0.00417435
0.0039476
0.00367319
0.00337812
0.00312312
0.00290156
0.00270927
0.00254043
0.00238805
0.00224363
0.00209598
0.0019272
0.00169977
0.00132272
0.000544603
0.000843657
0.000835914
0.000828824
0.000822317
0.000816338
0.000810847
0.00080581
0.000801202
0.000797007
0.00079321
0.000789804
0.000786782
0.000784141
0.000781879
0.000779995
0.00077849
0.000777362
0.00077661
0.00077623
0.000776219
0.000776571
0.000777276
0.000778325
0.000779704
0.0007814
0.000783398
0.000785681
0.000788236
0.000791051
0.000794122
0.000797452
0.000801057
0.00080497
0.000809248
0.000813976
0.000819276
0.000825313
0.000832305
0.000840535
0.000850353
0.000862196
0.00087659
0.000894166
0.000915669
0.000941965
0.000974053
0.00101307
0.00106031
0.00111722
0.00118541
0.00126668
0.001363
0.00147655
0.00160972
0.00176506
0.00194527
0.00215309
0.00239111
0.0026615
0.00296563
0.00330352
0.00367337
0.00407101
0.0044896
0.00491968
0.00534967
0.00576707
0.00615999
0.00651876
0.00683711
0.0071125
0.00734529
0.00753806
0.0076939
0.00781417
0.00789726
0.00793904
0.00792889
0.00785356
0.00771759
0.007539
0.00734538
0.00715625
0.0069652
0.00673842
0.0064367
0.00604543
0.00558267
0.00508232
0.00459975
0.0041557
0.00375121
0.00338778
0.00306498
0.00277944
0.0025223
0.00227299
0.00198258
0.00152798
0.000630149
0.000843648
0.000835876
0.000828726
0.000822117
0.000815983
0.000810269
0.000804928
0.000799921
0.000795217
0.000790786
0.000786607
0.00078266
0.00077893
0.000775404
0.000772072
0.000768926
0.00076596
0.000763173
0.000760561
0.000758125
0.000755868
0.000753792
0.000751903
0.000750207
0.000748711
0.000747424
0.000746354
0.000745511
0.000744904
0.000744543
0.000744437
0.000744592
0.000745015
0.000745709
0.000746676
0.000747916
0.000749424
0.000751198
0.000753235
0.000755536
0.000758116
0.000761006
0.000764268
0.000768014
0.000772419
0.000777757
0.000784422
0.000792963
0.000804121
0.00081885
0.000838341
0.000864037
0.000897628
0.000941059
0.000996526
0.0010665
0.00115372
0.00126129
0.00139263
0.0015515
0.00174193
0.00196808
0.00223391
0.00254275
0.0028967
0.00329589
0.00373769
0.00421611
0.00472162
0.00524148
0.00576097
0.00626507
0.0067405
0.00717727
0.0075689
0.00791116
0.00819968
0.00842785
0.00858651
0.00866671
0.00866686
0.00859768
0.00847889
0.00832368
0.00812003
0.00784111
0.00746959
0.00700972
0.00647621
0.00587761
0.00527382
0.00468728
0.00413624
0.00363632
0.00320028
0.0028356
0.0025362
0.00225238
0.00178971
0.000698668
0.000843648
0.000835876
0.000828725
0.000822114
0.000815976
0.000810256
0.000804906
0.000799886
0.000795162
0.000790704
0.000786487
0.00078249
0.000778693
0.00077508
0.000771637
0.000768351
0.000765212
0.000762211
0.00075934
0.000756593
0.000753965
0.000751452
0.000749051
0.00074676
0.000744579
0.000742509
0.000740552
0.00073871
0.000736988
0.000735391
0.000733926
0.000732601
0.000731425
0.000730406
0.000729557
0.000728886
0.000728404
0.000728121
0.000728043
0.000728175
0.000728515
0.000729055
0.000729781
0.000730666
0.000731676
0.000732768
0.000733899
0.000735038
0.000736196
0.000737461
0.000739057
0.000741411
0.000745224
0.000751527
0.000761704
0.000777482
0.000800891
0.000834219
0.000879988
0.000940961
0.00102019
0.00112107
0.00124741
0.00140342
0.00159369
0.00182303
0.00209617
0.00241727
0.0027893
0.0032132
0.00368707
0.00420543
0.00475884
0.00533418
0.0059154
0.00648451
0.00702253
0.00751011
0.00792832
0.00826011
0.00849389
0.0086282
0.00867311
0.0086438
0.00854554
0.00836875
0.00809883
0.0077279
0.00725775
0.00670074
0.00606276
0.00539041
0.00472636
0.00410399
0.00355209
0.00309511
0.00275007
0.00249513
0.00210289
0.000756723
0.000843648
0.000835876
0.000828725
0.000822114
0.000815976
0.000810256
0.000804905
0.000799885
0.00079516
0.000790702
0.000786484
0.000782485
0.000778685
0.000775068
0.000771619
0.000768324
0.000765173
0.000762156
0.000759262
0.000756486
0.000753819
0.000751256
0.000748792
0.000746422
0.000744142
0.000741951
0.000739845
0.000737823
0.000735886
0.000734032
0.000732263
0.000730581
0.00072899
0.000727492
0.000726093
0.000724799
0.000723617
0.000722555
0.000721622
0.000720825
0.000720174
0.000719676
0.000719335
0.000719151
0.000719118
0.000719218
0.000719419
0.000719671
0.000719897
0.000719996
0.000719842
0.000719306
0.000718289
0.000716788
0.000714995
0.000713407
0.00071293
0.000714934
0.000721234
0.00073401
0.000755698
0.000788911
0.000836418
0.000901182
0.000986436
0.00109578
0.00123325
0.00140333
0.0016109
0.00186108
0.00215887
0.00250864
0.00291332
0.00337341
0.00388579
0.00444243
0.00502925
0.00562554
0.00620473
0.00673695
0.00719393
0.00755512
0.00781193
0.00796645
0.0080235
0.0079829
0.00783926
0.00758828
0.00723222
0.00678083
0.0062485
0.00563329
0.0049834
0.00434689
0.00376627
0.00327848
0.00291583
0.00268575
0.00238822
0.000809387
0.000843649
0.000835877
0.000828725
0.000822114
0.000815977
0.000810256
0.000804906
0.000799885
0.00079516
0.000790702
0.000786483
0.000782484
0.000778684
0.000775066
0.000771616
0.000768321
0.000765168
0.000762149
0.000759253
0.000756473
0.000753802
0.000751233
0.000748761
0.00074638
0.000744087
0.000741878
0.000739748
0.000737697
0.00073572
0.000733818
0.000731987
0.000730229
0.000728543
0.000726928
0.000725388
0.000723923
0.000722537
0.000721233
0.000720016
0.000718891
0.000717865
0.000716945
0.000716138
0.000715453
0.000714895
0.000714468
0.000714173
0.000714002
0.000713937
0.000713942
0.000713957
0.000713889
0.000713607
0.000712937
0.000711675
0.000709617
0.000706628
0.000702757
0.000698373
0.000694312
0.000691964
0.00069326
0.000700561
0.000716494
0.000743819
0.000785363
0.000844053
0.000923002
0.00102561
0.00115568
0.00131744
0.00151556
0.001755
0.00204067
0.00237678
0.00276581
0.00320694
0.00369416
0.00421443
0.00474698
0.00526476
0.00573864
0.00614301
0.00645988
0.00667864
0.00679273
0.00679701
0.0066885
0.00646878
0.00614572
0.00573537
0.00527848
0.00475881
0.00422754
0.00372905
0.00330385
0.00299111
0.0028121
0.00257484
0.000861321
0.000843649
0.000835877
0.000828726
0.000822115
0.000815978
0.000810257
0.000804907
0.000799887
0.000795162
0.000790703
0.000786485
0.000782486
0.000778686
0.000775069
0.000771619
0.000768324
0.000765172
0.000762153
0.000759258
0.000756478
0.000753807
0.000751238
0.000748766
0.000746384
0.000744089
0.000741877
0.000739745
0.000737688
0.000735705
0.000733793
0.00073195
0.000730175
0.000728466
0.000726824
0.000725247
0.000723735
0.00072229
0.000720912
0.000719603
0.000718365
0.000717202
0.000716118
0.000715116
0.000714204
0.000713387
0.000712673
0.000712069
0.000711581
0.000711212
0.000710964
0.000710827
0.000710781
0.000710784
0.000710767
0.000710622
0.000710194
0.000709274
0.000707611
0.000704946
0.000701087
0.00069603
0.000690123
0.000684227
0.000679819
0.000678978
0.000684245
0.000698424
0.000724405
0.000765079
0.000823353
0.000902229
0.0010049
0.00113484
0.00129579
0.00149164
0.00172614
0.00200223
0.00232095
0.00268002
0.00307223
0.00348452
0.0038983
0.00429161
0.00464226
0.00493049
0.00514017
0.00525908
0.00527939
0.00519879
0.00502159
0.00475953
0.00443769
0.00410823
0.00375753
0.00341961
0.00313093
0.00293214
0.00285373
0.00271102
0.000901864
0.000843649
0.000835878
0.000828727
0.000822116
0.000815979
0.000810259
0.000804909
0.000799889
0.000795164
0.000790706
0.000786488
0.00078249
0.00077869
0.000775073
0.000771624
0.000768329
0.000765177
0.000762159
0.000759264
0.000756484
0.000753813
0.000751244
0.000748771
0.00074639
0.000744095
0.000741882
0.000739749
0.000737691
0.000735706
0.000733792
0.000731947
0.000730168
0.000728454
0.000726805
0.000725219
0.000723695
0.000722233
0.000720834
0.000719497
0.000718224
0.000717014
0.000715871
0.000714796
0.000713792
0.000712863
0.000712013
0.000711248
0.000710574
0.000709999
0.000709528
0.000709169
0.000708926
0.000708795
0.000708767
0.000708816
0.00070889
0.000708907
0.000708739
0.000708203
0.000707058
0.000705024
0.000701819
0.000697256
0.00069137
0.000684601
0.000677952
0.000673081
0.000672254
0.000678182
0.000693785
0.000722006
0.00076571
0.000827679
0.000910646
0.00101731
0.0011503
0.00131191
0.00150381
0.00172627
0.0019774
0.00225221
0.00254206
0.00283482
0.00311581
0.00336927
0.00357987
0.00373414
0.00382181
0.00383718
0.00378047
0.00365859
0.00348559
0.00328368
0.00309657
0.00293417
0.00280684
0.00275176
0.00280364
0.0027816
0.000930279
0.000843649
0.000835878
0.000828728
0.000822118
0.00081598
0.000810261
0.000804911
0.000799891
0.000795167
0.000790709
0.000786492
0.000782494
0.000778695
0.000775078
0.00077163
0.000768335
0.000765184
0.000762166
0.000759271
0.000756492
0.000753822
0.000751253
0.000748781
0.000746399
0.000744104
0.000741892
0.000739758
0.0007377
0.000735715
0.0007338
0.000731954
0.000730174
0.000728458
0.000726806
0.000725217
0.000723689
0.000722223
0.000720817
0.000719471
0.000718186
0.000716962
0.0007158
0.0007147
0.000713663
0.000712692
0.000711788
0.000710955
0.000710196
0.000709516
0.000708921
0.000708416
0.00070801
0.000707708
0.000707517
0.000707438
0.000707467
0.000707587
0.000707761
0.000707924
0.000707972
0.000707748
0.000707038
0.000705575
0.000703063
0.000699239
0.000693985
0.000687476
0.000680359
0.000673892
0.000669985
0.00067111
0.000680083
0.000699819
0.000733132
0.000782607
0.000850531
0.000938805
0.00104879
0.00118102
0.00133483
0.00150794
0.00169601
0.00189261
0.00208937
0.00227661
0.00244415
0.00258233
0.00268308
0.00274114
0.00275512
0.00272831
0.00266895
0.00259005
0.00250908
0.00244701
0.00243414
0.00250047
0.00267908
0.00278463
0.000946372
0.00084365
0.000835879
0.000828729
0.000822119
0.000815982
0.000810263
0.000804914
0.000799894
0.000795171
0.000790713
0.000786497
0.000782499
0.000778701
0.000775085
0.000771637
0.000768343
0.000765192
0.000762175
0.000759281
0.000756502
0.000753832
0.000751264
0.000748792
0.000746411
0.000744116
0.000741903
0.00073977
0.000737712
0.000735726
0.000733811
0.000731963
0.000730182
0.000728465
0.000726812
0.000725221
0.000723691
0.000722222
0.000720812
0.000719463
0.000718174
0.000716944
0.000715775
0.000714666
0.000713618
0.000712633
0.00071171
0.000710852
0.000710061
0.000709339
0.00070869
0.000708117
0.000707625
0.000707221
0.000706911
0.000706701
0.000706598
0.000706607
0.000706724
0.000706939
0.000707223
0.000707524
0.000707754
0.000707778
0.000707407
0.000706394
0.000704457
0.000701317
0.000696789
0.000690909
0.000684101
0.000677324
0.000672163
0.000670793
0.000675804
0.000689944
0.000715845
0.000755791
0.000811535
0.000884117
0.000973664
0.00107916
0.00119828
0.00132727
0.00146112
0.00159386
0.0017191
0.00183063
0.00192316
0.00199304
0.00203898
0.00206258
0.00206864
0.00206525
0.00206395
0.00208054
0.00213811
0.00227442
0.00253239
0.00273473
0.000953279
0.00084365
0.00083588
0.00082873
0.000822121
0.000815984
0.000810265
0.000804917
0.000799898
0.000795175
0.000790718
0.000786502
0.000782505
0.000778707
0.000775092
0.000771645
0.000768352
0.000765202
0.000762185
0.000759291
0.000756513
0.000753844
0.000751276
0.000748804
0.000746424
0.000744129
0.000741917
0.000739783
0.000737725
0.000735739
0.000733823
0.000731975
0.000730193
0.000728476
0.000726821
0.000725228
0.000723697
0.000722225
0.000720814
0.000719462
0.000718169
0.000716936
0.000715763
0.00071465
0.000713597
0.000712605
0.000711676
0.000710809
0.000710006
0.00070927
0.000708601
0.000708002
0.000707476
0.000707027
0.000706659
0.000706378
0.00070619
0.000706101
0.000706117
0.000706243
0.000706478
0.000706814
0.000707226
0.000707672
0.000708072
0.000708308
0.000708208
0.000707551
0.00070607
0.000703498
0.000699634
0.000694457
0.000688268
0.000681837
0.000676497
0.000674133
0.000677043
0.000687675
0.00070832
0.000740817
0.000786305
0.000845019
0.000916155
0.000997811
0.00108705
0.00118014
0.00127288
0.0013611
0.00144115
0.00151042
0.00156779
0.00161408
0.00165229
0.00168803
0.00173015
0.00179236
0.00189683
0.00208244
0.00239576
0.00266146
0.00095601
0.00084365
0.000835881
0.000828731
0.000822122
0.000815987
0.000810268
0.00080492
0.000799902
0.000795179
0.000790723
0.000786508
0.000782512
0.000778715
0.0007751
0.000771653
0.000768361
0.000765212
0.000762196
0.000759303
0.000756526
0.000753857
0.00075129
0.000748819
0.000746438
0.000744144
0.000741932
0.000739799
0.00073774
0.000735754
0.000733838
0.00073199
0.000730207
0.000728489
0.000726833
0.000725239
0.000723705
0.000722232
0.000720818
0.000719464
0.000718169
0.000716933
0.000715757
0.00071464
0.000713584
0.000712588
0.000711655
0.000710784
0.000709976
0.000709234
0.000708558
0.00070795
0.000707413
0.000706948
0.000706559
0.00070625
0.000706023
0.000705886
0.000705842
0.000705899
0.000706062
0.000706335
0.000706718
0.000707203
0.00070777
0.000708378
0.000708956
0.000709395
0.000709537
0.00070918
0.000708081
0.000705994
0.000702734
0.000698273
0.000692865
0.000687174
0.000682355
0.000680037
0.00068219
0.000690875
0.000707928
0.000734665
0.000771652
0.000818568
0.000874196
0.000936527
0.00100299
0.00107079
0.00113729
0.00120041
0.00125904
0.00131341
0.00136545
0.00141935
0.00148265
0.00156827
0.00169846
0.00191321
0.00226172
0.00257052
0.000953466
0.000843651
0.000835881
0.000828733
0.000822124
0.000815989
0.000810271
0.000804924
0.000799906
0.000795184
0.000790729
0.000786514
0.000782519
0.000778723
0.000775109
0.000771663
0.000768372
0.000765223
0.000762208
0.000759316
0.000756539
0.000753871
0.000751305
0.000748834
0.000746454
0.000744161
0.000741949
0.000739816
0.000737758
0.000735772
0.000733855
0.000732006
0.000730223
0.000728504
0.000726847
0.000725252
0.000723717
0.000722242
0.000720827
0.00071947
0.000718173
0.000716934
0.000715755
0.000714636
0.000713576
0.000712578
0.000711641
0.000710767
0.000709956
0.000709211
0.000708531
0.00070792
0.000707379
0.000706909
0.000706514
0.000706195
0.000705957
0.000705803
0.000705736
0.000705762
0.000705887
0.000706115
0.000706453
0.000706904
0.000707468
0.000708138
0.000708893
0.000709695
0.000710476
0.000711135
0.000711526
0.000711464
0.000710734
0.000709122
0.000706481
0.000702815
0.000698383
0.000693802
0.000690099
0.00068868
0.00069118
0.000699235
0.000714206
0.000736936
0.000767604
0.000805687
0.00085005
0.00089914
0.00095125
0.00100484
0.00105889
0.00111324
0.00116908
0.00122967
0.00130164
0.00139745
0.00153961
0.0017689
0.00213634
0.00247057
0.000947284
0.000843651
0.000835882
0.000828734
0.000822126
0.000815991
0.000810274
0.000804927
0.000799911
0.00079519
0.000790735
0.000786521
0.000782526
0.000778731
0.000775118
0.000771673
0.000768383
0.000765235
0.000762221
0.00075933
0.000756554
0.000753887
0.000751321
0.000748851
0.000746472
0.000744179
0.000741967
0.000739834
0.000737776
0.000735791
0.000733874
0.000732025
0.000730241
0.000728521
0.000726864
0.000725268
0.000723732
0.000722255
0.000720838
0.00071948
0.00071818
0.000716939
0.000715758
0.000714636
0.000713574
0.000712572
0.000711633
0.000710756
0.000709942
0.000709194
0.000708513
0.0007079
0.000707356
0.000706885
0.000706488
0.000706168
0.000705928
0.00070577
0.000705699
0.000705718
0.000705831
0.000706044
0.000706363
0.000706793
0.000707339
0.000708005
0.000708791
0.000709688
0.000710677
0.000711721
0.000712755
0.000713685
0.000714378
0.000714669
0.000714378
0.00071334
0.000711466
0.000708819
0.000705698
0.000702709
0.000700786
0.000701124
0.000705045
0.000713788
0.000728313
0.000749143
0.000776305
0.000809375
0.000847611
0.000890165
0.000936346
0.000985956
0.00103977
0.00110039
0.00117376
0.00127191
0.00141729
0.00165092
0.00202466
0.00236941
0.00093916
0.000843652
0.000835883
0.000828735
0.000822128
0.000815994
0.000810278
0.000804931
0.000799915
0.000795195
0.000790741
0.000786529
0.000782535
0.00077874
0.000775128
0.000771684
0.000768395
0.000765248
0.000762235
0.000759344
0.00075657
0.000753903
0.000751338
0.000748869
0.000746491
0.000744198
0.000741987
0.000739855
0.000737797
0.000735811
0.000733895
0.000732046
0.000730262
0.000728541
0.000726883
0.000725286
0.000723749
0.000722271
0.000720852
0.000719492
0.000718191
0.000716948
0.000715764
0.00071464
0.000713575
0.000712571
0.000711629
0.00071075
0.000709934
0.000709184
0.000708501
0.000707886
0.000707341
0.00070687
0.000706473
0.000706153
0.000705914
0.000705758
0.000705689
0.00070571
0.000705826
0.000706041
0.00070636
0.00070679
0.000707336
0.000708004
0.000708801
0.00070973
0.00071079
0.000711975
0.000713266
0.000714627
0.000716
0.0007173
0.000718414
0.000719207
0.000719545
0.000719328
0.000718547
0.000717345
0.00071608
0.000715364
0.000716044
0.00071913
0.000725667
0.000736581
0.000752557
0.000773971
0.0008009
0.000833209
0.000870718
0.00091346
0.000962125
0.00101895
0.00108942
0.00118508
0.00132804
0.00155893
0.00192951
0.00227287
0.000930429
0.000843652
0.000835884
0.000828737
0.00082213
0.000815997
0.000810281
0.000804936
0.00079992
0.000795201
0.000790748
0.000786536
0.000782543
0.00077875
0.000775139
0.000771696
0.000768407
0.000765262
0.000762249
0.00075936
0.000756586
0.000753921
0.000751356
0.000748888
0.00074651
0.000744219
0.000742008
0.000739876
0.000737819
0.000735833
0.000733917
0.000732068
0.000730284
0.000728563
0.000726904
0.000725306
0.000723768
0.00072229
0.00072087
0.000719508
0.000718205
0.00071696
0.000715774
0.000714648
0.000713581
0.000712575
0.00071163
0.000710749
0.000709931
0.000709179
0.000708494
0.000707878
0.000707333
0.000706861
0.000706464
0.000706146
0.000705909
0.000705757
0.000705692
0.000705719
0.000705843
0.000706067
0.000706396
0.000706838
0.000707398
0.000708083
0.0007089
0.000709858
0.000710962
0.000712219
0.000713631
0.000715191
0.000716885
0.000718685
0.000720541
0.000722388
0.00072414
0.00072571
0.000727027
0.000728075
0.000728939
0.000729855
0.000731245
0.000733724
0.000738059
0.000745098
0.000755665
0.000770475
0.000790079
0.000814861
0.00084511
0.000881181
0.000923864
0.000975265
0.00104055
0.00113085
0.00126774
0.001491
0.00185154
0.0021844
0.000921997
0.000843653
0.000835885
0.000828739
0.000822132
0.000816
0.000810285
0.00080494
0.000799925
0.000795207
0.000790755
0.000786544
0.000782552
0.00077876
0.00077515
0.000771708
0.00076842
0.000765276
0.000762264
0.000759376
0.000756604
0.000753939
0.000751376
0.000748908
0.000746531
0.00074424
0.000742031
0.000739899
0.000737842
0.000735857
0.000733941
0.000732092
0.000730308
0.000728587
0.000726927
0.000725329
0.00072379
0.000722311
0.000720889
0.000719527
0.000718222
0.000716976
0.000715788
0.000714659
0.000713591
0.000712582
0.000711636
0.000710752
0.000709933
0.000709179
0.000708492
0.000707875
0.000707329
0.000706857
0.000706462
0.000706145
0.000705911
0.000705763
0.000705704
0.000705738
0.000705871
0.000706106
0.00070645
0.000706909
0.00070749
0.000708199
0.000709047
0.000710041
0.000711192
0.00071251
0.000714005
0.000715686
0.00071756
0.000719628
0.000721884
0.000724313
0.000726886
0.000729568
0.000732319
0.000735116
0.000737971
0.000740969
0.000744303
0.000748302
0.000753444
0.000760337
0.000769672
0.000782162
0.000798485
0.000819249
0.000845002
0.000876309
0.000914041
0.000960206
0.0010197
0.00110324
0.00123181
0.00144415
0.0017898
0.00210546
0.000914408
0.000843653
0.000835886
0.00082874
0.000822135
0.000816003
0.000810288
0.000804944
0.000799931
0.000795213
0.000790762
0.000786552
0.000782561
0.00077877
0.000775161
0.00077172
0.000768434
0.000765291
0.00076228
0.000759393
0.000756622
0.000753958
0.000751396
0.000748929
0.000746553
0.000744263
0.000742054
0.000739923
0.000737867
0.000735882
0.000733967
0.000732118
0.000730333
0.000728612
0.000726953
0.000725354
0.000723814
0.000722334
0.000720912
0.000719548
0.000718242
0.000716994
0.000715805
0.000714675
0.000713604
0.000712594
0.000711645
0.00071076
0.000709938
0.000709183
0.000708495
0.000707877
0.000707331
0.000706859
0.000706464
0.000706149
0.000705918
0.000705774
0.000705721
0.000705763
0.000705906
0.000706154
0.000706514
0.000706992
0.000707596
0.000708334
0.000709216
0.000710251
0.000711452
0.000712831
0.000714404
0.000716185
0.00071819
0.000720438
0.000722942
0.000725719
0.000728779
0.000732131
0.000735783
0.000739748
0.000744052
0.000748757
0.000753981
0.000759924
0.00076689
0.000775298
0.000785667
0.000798587
0.000814681
0.000834563
0.000858822
0.000888038
0.000922995
0.00096544
0.00101986
0.00109643
0.00121558
0.00141496
0.00174247
0.00203623
0.00090794
0.000843654
0.000835887
0.000828742
0.000822137
0.000816006
0.000810292
0.000804949
0.000799936
0.00079522
0.00079077
0.000786561
0.000782571
0.000778781
0.000775173
0.000771734
0.000768448
0.000765306
0.000762297
0.000759411
0.000756641
0.000753978
0.000751417
0.000748951
0.000746576
0.000744287
0.000742079
0.000739949
0.000737893
0.000735909
0.000733993
0.000732145
0.000730361
0.000728639
0.00072698
0.000725381
0.000723841
0.00072236
0.000720937
0.000719572
0.000718265
0.000717015
0.000715825
0.000714693
0.00071362
0.000712609
0.000711658
0.000710771
0.000709948
0.000709191
0.000708502
0.000707883
0.000707336
0.000706865
0.000706471
0.000706158
0.00070593
0.00070579
0.000705743
0.000705793
0.000705946
0.000706207
0.000706583
0.000707082
0.00070771
0.000708477
0.000709394
0.000710473
0.000711725
0.000713167
0.000714815
0.000716689
0.00071881
0.000721203
0.000723895
0.000726916
0.000730301
0.000734085
0.000738313
0.000743032
0.000748307
0.000754222
0.000760897
0.000768508
0.000777297
0.000787597
0.000799825
0.000814479
0.000832101
0.000853249
0.000878441
0.000908129
0.000942819
0.000983747
0.00103468
0.00110504
0.00121458
0.00139998
0.0017074
0.00197616
0.000902694
0.000843654
0.000835889
0.000828744
0.000822139
0.000816009
0.000810296
0.000804954
0.000799942
0.000795227
0.000790778
0.00078657
0.000782581
0.000778792
0.000775186
0.000771747
0.000768463
0.000765322
0.000762314
0.00075943
0.00075666
0.000753999
0.000751439
0.000748974
0.0007466
0.000744312
0.000742105
0.000739975
0.00073792
0.000735937
0.000734022
0.000732173
0.00073039
0.000728668
0.000727009
0.000725409
0.000723869
0.000722387
0.000720964
0.000719598
0.00071829
0.000717039
0.000715847
0.000714714
0.00071364
0.000712627
0.000711675
0.000710786
0.000709961
0.000709203
0.000708513
0.000707893
0.000707346
0.000706874
0.000706481
0.00070617
0.000705945
0.00070581
0.000705768
0.000705827
0.00070599
0.000706264
0.000706656
0.000707175
0.000707827
0.000708625
0.000709577
0.000710699
0.000712002
0.000713506
0.000715228
0.00071719
0.000719418
0.000721941
0.000724793
0.000728013
0.000731647
0.000735747
0.000740375
0.000745608
0.000751537
0.000758277
0.000765977
0.000774827
0.00078508
0.000797057
0.000811163
0.000827873
0.00084772
0.000871242
0.000898904
0.000931
0.000967651
0.00100935
0.0010588
0.00112431
0.00122482
0.00139607
0.00168245
0.00192438
0.000898669
0.000843655
0.00083589
0.000828746
0.000822142
0.000816012
0.0008103
0.000804959
0.000799948
0.000795234
0.000790786
0.000786579
0.000782591
0.000778803
0.000775198
0.000771761
0.000768478
0.000765339
0.000762332
0.000759448
0.00075668
0.00075402
0.000751461
0.000748998
0.000746625
0.000744338
0.000742131
0.000740003
0.000737949
0.000735966
0.000734051
0.000732203
0.00073042
0.000728699
0.000727039
0.00072544
0.000723899
0.000722417
0.000720993
0.000719626
0.000718317
0.000717066
0.000715873
0.000714738
0.000713663
0.000712648
0.000711695
0.000710804
0.000709978
0.000709218
0.000708527
0.000707906
0.000707359
0.000706887
0.000706495
0.000706186
0.000705963
0.000705832
0.000705797
0.000705862
0.000706035
0.000706322
0.000706731
0.000707269
0.000707946
0.000708772
0.00070976
0.000710924
0.000712278
0.000713841
0.000715634
0.000717681
0.000720009
0.000722653
0.000725649
0.000729043
0.000732887
0.000737242
0.000742184
0.0007478
0.000754201
0.000761524
0.000769941
0.000779672
0.000790997
0.000804272
0.000819937
0.000838518
0.000860612
0.000886824
0.000917659
0.000953322
0.000993561
0.00103801
0.00108801
0.00115035
0.00124293
0.0014005
0.00166572
0.00187993
0.000895813
0.000843656
0.000835891
0.000828747
0.000822145
0.000816016
0.000810304
0.000804964
0.000799954
0.000795241
0.000790794
0.000786588
0.000782602
0.000778815
0.000775211
0.000771775
0.000768494
0.000765356
0.00076235
0.000759468
0.000756701
0.000754042
0.000751485
0.000749023
0.000746651
0.000744364
0.000742159
0.000740032
0.000737978
0.000735996
0.000734082
0.000732235
0.000730452
0.000728731
0.000727072
0.000725472
0.000723931
0.000722449
0.000721024
0.000719657
0.000718347
0.000717095
0.000715901
0.000714765
0.000713689
0.000712672
0.000711718
0.000710826
0.000709998
0.000709237
0.000708545
0.000707923
0.000707375
0.000706904
0.000706512
0.000706205
0.000705985
0.000705857
0.000705827
0.0007059
0.000706082
0.000706382
0.000706805
0.000707362
0.000708063
0.000708918
0.00070994
0.000711144
0.000712547
0.000714168
0.000716029
0.000718156
0.00072058
0.000723335
0.000726463
0.000730014
0.000734044
0.00073862
0.000743825
0.000749755
0.000756529
0.000764295
0.000773242
0.000783609
0.000795706
0.000809927
0.000826772
0.000846853
0.000870884
0.000899621
0.000933712
0.000973407
0.0010182
0.00106687
0.00111921
0.00118015
0.00126619
0.00141105
0.00165559
0.00184192
0.000894048
0.000843656
0.000835892
0.000828749
0.000822147
0.000816019
0.000810309
0.000804969
0.00079996
0.000795248
0.000790802
0.000786598
0.000782613
0.000778827
0.000775225
0.00077179
0.00076851
0.000765373
0.000762369
0.000759488
0.000756722
0.000754065
0.000751509
0.000749048
0.000746677
0.000744392
0.000742188
0.000740061
0.000738009
0.000736027
0.000734114
0.000732268
0.000730485
0.000728765
0.000727105
0.000725506
0.000723965
0.000722483
0.000721058
0.00071969
0.00071838
0.000717127
0.000715931
0.000714795
0.000713717
0.000712699
0.000711743
0.00071085
0.000710021
0.000709259
0.000708565
0.000707943
0.000707394
0.000706923
0.000706532
0.000706225
0.000706008
0.000705884
0.000705858
0.000705938
0.00070613
0.00070644
0.000706878
0.000707453
0.000708176
0.000709058
0.000710114
0.000711358
0.000712807
0.000714484
0.00071641
0.000718614
0.000721127
0.000723986
0.000727237
0.00073093
0.000735127
0.0007399
0.000745336
0.000751535
0.000758624
0.000766756
0.000776126
0.000786983
0.000799654
0.000814566
0.000832273
0.000853478
0.000879036
0.000909902
0.000946957
0.000990635
0.00104034
0.00109415
0.00115027
0.00121148
0.00129255
0.00142594
0.00165074
0.00180956
0.000893294
0.000843657
0.000835893
0.000828751
0.00082215
0.000816022
0.000810313
0.000804975
0.000799967
0.000795255
0.000790811
0.000786608
0.000782624
0.000778839
0.000775238
0.000771805
0.000768526
0.000765391
0.000762388
0.000759508
0.000756744
0.000754088
0.000751533
0.000749074
0.000746704
0.00074442
0.000742217
0.000740092
0.00073804
0.00073606
0.000734147
0.000732301
0.000730519
0.0007288
0.000727141
0.000725541
0.000724001
0.000722518
0.000721093
0.000719725
0.000718414
0.00071716
0.000715964
0.000714826
0.000713748
0.000712729
0.000711772
0.000710877
0.000710047
0.000709283
0.000708589
0.000707965
0.000707416
0.000706945
0.000706554
0.000706248
0.000706033
0.000705912
0.000705891
0.000705977
0.000706176
0.000706498
0.000706949
0.000707541
0.000708285
0.000709193
0.00071028
0.000711561
0.000713055
0.000714784
0.000716773
0.000719049
0.000721647
0.000724604
0.000727968
0.000731793
0.000736143
0.000741093
0.000746734
0.000753173
0.000760538
0.000768987
0.000778716
0.00078998
0.00080311
0.000818551
0.000836895
0.000858923
0.000885624
0.000918165
0.000957714
0.001005
0.00105953
0.00111891
0.00117984
0.00124281
0.00132049
0.00144385
0.00165014
0.0017822