/*--------------------------------*- C++ -*----------------------------------*\
| =========                 |                                                 |
| \\      /  F ield         | OpenFOAM: The Open Source CFD Toolbox           |
|  \\    /   O peration     | Version:  4.1                                   |
|   \\  /    A nd           | Web:      www.OpenFOAM.org                      |
|    \\/     M anipulation  |                                                 |
\*---------------------------------------------------------------------------*/
FoamFile
{
    version     2.0;
    format      ascii;
    class       volScalarField;
    location    "0.31";
    object      p;
}
// * * * * * * * * * * * * * * * * * * * * * * * * * * * * * * * * * * * * * //

dimensions      [0 2 -2 0 0 0 0];

internalField   nonuniform List<scalar> 
43750
(
126.956
126.86
126.812
126.834
126.888
126.957
127.042
127.147
127.273
127.418
127.582
127.764
127.965
128.184
128.422
128.677
128.951
129.243
129.553
129.882
130.229
130.594
130.977
131.379
131.8
132.239
132.696
133.172
133.666
134.179
134.71
135.259
135.827
136.412
137.014
137.633
138.268
138.918
139.583
140.261
140.95
141.649
142.356
143.07
143.786
144.505
145.222
145.937
146.648
147.352
148.05
148.741
149.426
150.105
150.779
151.45
152.118
152.782
153.443
154.098
154.745
155.379
155.997
156.596
157.172
157.724
158.248
158.744
159.211
159.649
160.057
160.433
160.778
161.091
161.368
161.605
161.8
161.949
162.049
162.103
162.12
162.113
162.103
162.116
162.183
162.323
162.547
162.864
163.283
163.82
164.471
165.23
166.081
166.999
167.944
168.881
169.771
170.521
170.952
170.978
126.799
126.764
126.745
126.767
126.821
126.892
126.981
127.088
127.216
127.363
127.528
127.711
127.912
128.131
128.369
128.624
128.897
129.189
129.498
129.826
130.171
130.535
130.917
131.317
131.735
132.172
132.627
133.1
133.592
134.102
134.631
135.177
135.741
136.323
136.923
137.54
138.173
138.822
139.486
140.163
140.854
141.556
142.267
142.987
143.711
144.44
145.169
145.898
146.623
147.345
148.06
148.77
149.473
150.169
150.861
151.546
152.227
152.902
153.57
154.228
154.876
155.509
156.125
156.72
157.293
157.841
158.362
158.856
159.32
159.756
160.162
160.538
160.884
161.199
161.481
161.727
161.934
162.094
162.2
162.244
162.223
162.147
162.052
161.99
162.007
162.13
162.362
162.7
163.14
163.673
164.31
165.052
165.886
166.787
167.717
168.633
169.496
170.245
170.747
170.877
126.7
126.699
126.706
126.735
126.789
126.862
126.952
127.059
127.186
127.33
127.493
127.674
127.872
128.089
128.323
128.575
128.845
129.132
129.437
129.76
130.101
130.46
130.836
131.23
131.642
132.072
132.519
132.984
133.467
133.967
134.485
135.02
135.572
136.14
136.725
137.326
137.943
138.574
139.22
139.879
140.551
141.234
141.928
142.631
143.341
144.058
144.78
145.505
146.233
146.961
147.69
148.417
149.143
149.867
150.587
151.304
152.016
152.722
153.419
154.105
154.778
155.433
156.068
156.68
157.265
157.823
158.352
158.853
159.323
159.764
160.176
160.556
160.906
161.223
161.505
161.748
161.946
162.093
162.18
162.198
162.147
162.046
161.935
161.872
161.896
162.022
162.244
162.56
162.976
163.49
164.112
164.84
165.661
166.551
167.47
168.371
169.206
169.925
170.464
170.727
126.606
126.612
126.628
126.66
126.714
126.786
126.877
126.985
127.111
127.255
127.418
127.598
127.796
128.012
128.246
128.497
128.766
129.053
129.357
129.679
130.018
130.375
130.749
131.141
131.551
131.977
132.422
132.883
133.361
133.857
134.369
134.897
135.442
136.003
136.579
137.17
137.775
138.394
139.027
139.671
140.326
140.991
141.665
142.347
143.035
143.729
144.427
145.129
145.833
146.539
147.246
147.954
148.664
149.374
150.085
150.797
151.509
152.22
152.928
153.632
154.328
155.013
155.682
156.333
156.959
157.559
158.128
158.665
159.168
159.635
160.068
160.466
160.828
161.153
161.438
161.679
161.87
162.002
162.069
162.067
162.003
161.9
161.798
161.745
161.776
161.9
162.114
162.417
162.816
163.323
163.937
164.659
165.476
166.365
167.285
168.188
169.015
169.711
170.238
170.603
126.503
126.512
126.534
126.572
126.629
126.703
126.795
126.904
127.031
127.176
127.338
127.518
127.715
127.929
128.161
128.411
128.678
128.962
129.264
129.583
129.919
130.272
130.643
131.031
131.436
131.859
132.298
132.754
133.227
133.716
134.222
134.743
135.281
135.834
136.401
136.983
137.579
138.188
138.81
139.443
140.086
140.739
141.401
142.07
142.745
143.425
144.109
144.795
145.484
146.174
146.865
147.556
148.247
148.939
149.631
150.322
151.014
151.706
152.396
153.084
153.769
154.447
155.117
155.776
156.419
157.044
157.647
158.225
158.772
159.286
159.765
160.203
160.6
160.952
161.256
161.507
161.7
161.83
161.894
161.894
161.84
161.756
161.678
161.647
161.69
161.82
162.037
162.344
162.746
163.257
163.88
164.611
165.44
166.341
167.275
168.19
169.026
169.722
170.225
170.627
126.39
126.4
126.425
126.467
126.525
126.6
126.692
126.801
126.928
127.072
127.233
127.411
127.607
127.82
128.051
128.298
128.563
128.845
129.144
129.461
129.794
130.145
130.512
130.897
131.298
131.716
132.151
132.602
133.07
133.553
134.053
134.568
135.099
135.644
136.204
136.778
137.365
137.964
138.576
139.199
139.832
140.474
141.125
141.783
142.447
143.116
143.789
144.465
145.143
145.822
146.502
147.182
147.862
148.541
149.219
149.895
150.57
151.243
151.912
152.578
153.24
153.896
154.546
155.187
155.817
156.436
157.039
157.626
158.192
158.733
159.246
159.725
160.166
160.562
160.907
161.194
161.419
161.576
161.666
161.694
161.674
161.63
161.593
161.597
161.667
161.817
162.054
162.382
162.81
163.347
163.998
164.759
165.619
166.55
167.512
168.45
169.304
170.01
170.511
170.899
126.263
126.274
126.301
126.344
126.404
126.48
126.573
126.682
126.809
126.952
127.113
127.29
127.485
127.697
127.925
128.171
128.434
128.714
129.01
129.324
129.654
130.001
130.365
130.745
131.142
131.555
131.985
132.431
132.893
133.37
133.863
134.371
134.894
135.432
135.984
136.549
137.127
137.717
138.319
138.932
139.555
140.187
140.827
141.474
142.128
142.787
143.45
144.116
144.786
145.456
146.128
146.8
147.472
148.142
148.812
149.479
150.143
150.804
151.46
152.112
152.757
153.396
154.026
154.647
155.258
155.858
156.446
157.02
157.578
158.118
158.638
159.132
159.596
160.024
160.409
160.743
161.019
161.233
161.382
161.473
161.519
161.54
161.566
161.624
161.74
161.93
162.205
162.574
163.047
163.631
164.33
165.138
166.042
167.017
168.016
168.984
169.858
170.577
171.095
171.444
126.122
126.134
126.162
126.206
126.267
126.343
126.436
126.546
126.672
126.814
126.974
127.15
127.344
127.554
127.78
128.024
128.284
128.561
128.855
129.165
129.492
129.836
130.196
130.572
130.964
131.373
131.797
132.238
132.694
133.165
133.651
134.153
134.668
135.198
135.742
136.298
136.867
137.448
138.041
138.644
139.256
139.878
140.508
141.145
141.789
142.438
143.091
143.749
144.409
145.071
145.735
146.399
147.064
147.728
148.39
149.051
149.709
150.363
151.012
151.655
152.292
152.921
153.541
154.151
154.749
155.336
155.909
156.469
157.015
157.544
158.056
158.548
159.017
159.459
159.868
160.238
160.563
160.839
161.064
161.24
161.377
161.491
161.605
161.744
161.931
162.184
162.519
162.947
163.479
164.123
164.882
165.748
166.695
167.719
168.752
169.748
170.638
171.362
171.885
172.229
125.966
125.978
126.007
126.052
126.113
126.19
126.283
126.392
126.518
126.66
126.818
126.993
127.185
127.393
127.618
127.859
128.117
128.391
128.682
128.989
129.313
129.652
130.008
130.38
130.768
131.171
131.591
132.025
132.475
132.94
133.42
133.914
134.422
134.944
135.479
136.027
136.588
137.16
137.742
138.336
138.939
139.55
140.17
140.797
141.431
142.07
142.714
143.362
144.014
144.667
145.323
145.98
146.637
147.294
147.95
148.604
149.256
149.905
150.549
151.188
151.82
152.444
153.06
153.665
154.259
154.841
155.409
155.964
156.503
157.026
157.533
158.022
158.491
158.939
159.363
159.76
160.125
160.456
160.753
161.016
161.252
161.473
161.695
161.937
162.218
162.557
162.971
163.473
164.074
164.783
165.601
166.521
167.528
168.566
169.606
170.623
171.518
172.24
172.763
173.107
125.796
125.808
125.837
125.882
125.944
126.021
126.113
126.222
126.347
126.488
126.645
126.819
127.009
127.215
127.438
127.677
127.932
128.203
128.491
128.794
129.114
129.45
129.801
130.169
130.551
130.95
131.364
131.793
132.236
132.695
133.168
133.655
134.156
134.67
135.197
135.736
136.288
136.851
137.424
138.008
138.602
139.204
139.814
140.431
141.055
141.685
142.32
142.958
143.601
144.246
144.894
145.542
146.192
146.842
147.491
148.139
148.785
149.428
150.068
150.702
151.331
151.953
152.566
153.171
153.765
154.347
154.917
155.473
156.014
156.54
157.05
157.543
158.019
158.476
158.915
159.334
159.733
160.111
160.469
160.809
161.137
161.461
161.791
162.142
162.528
162.966
163.47
164.052
164.724
165.493
166.359
167.314
168.34
169.405
170.475
171.462
172.346
173.06
173.579
173.92
125.61
125.622
125.651
125.697
125.758
125.835
125.927
126.035
126.159
126.299
126.455
126.627
126.816
127.02
127.24
127.476
127.729
127.997
128.281
128.581
128.897
129.229
129.576
129.938
130.316
130.71
131.118
131.541
131.978
132.43
132.896
133.376
133.869
134.376
134.895
135.426
135.969
136.523
137.087
137.662
138.246
138.838
139.439
140.047
140.661
141.282
141.907
142.537
143.171
143.808
144.447
145.088
145.73
146.373
147.016
147.657
148.297
148.935
149.569
150.2
150.825
151.444
152.057
152.661
153.256
153.841
154.415
154.977
155.525
156.06
156.58
157.084
157.574
158.048
158.506
158.95
159.38
159.799
160.208
160.612
161.015
161.425
161.848
162.297
162.78
163.31
163.898
164.555
165.288
166.102
166.999
167.971
169
170.059
171.11
172.098
172.977
173.69
174.211
174.546
125.41
125.422
125.45
125.496
125.557
125.634
125.725
125.832
125.955
126.094
126.249
126.419
126.605
126.807
127.025
127.259
127.508
127.773
128.054
128.351
128.662
128.99
129.332
129.69
130.063
130.45
130.853
131.27
131.701
132.146
132.605
133.078
133.564
134.062
134.573
135.096
135.63
136.175
136.731
137.296
137.871
138.454
139.045
139.644
140.249
140.861
141.477
142.099
142.724
143.352
143.984
144.617
145.252
145.888
146.523
147.159
147.793
148.425
149.055
149.681
150.303
150.92
151.531
152.136
152.732
153.32
153.899
154.467
155.025
155.571
156.104
156.625
157.133
157.628
158.111
158.584
159.047
159.504
159.959
160.414
160.877
161.353
161.848
162.371
162.93
163.532
164.185
164.895
165.67
166.511
167.419
168.387
169.401
170.44
171.469
172.445
173.317
174.029
174.548
174.892
125.194
125.206
125.234
125.28
125.341
125.416
125.507
125.614
125.736
125.873
126.026
126.195
126.379
126.578
126.794
127.024
127.271
127.532
127.81
128.102
128.41
128.733
129.07
129.423
129.791
130.173
130.569
130.98
131.405
131.843
132.296
132.761
133.239
133.729
134.232
134.747
135.272
135.809
136.355
136.912
137.477
138.052
138.634
139.223
139.819
140.422
141.029
141.642
142.259
142.879
143.503
144.129
144.756
145.385
146.014
146.644
147.272
147.899
148.525
149.147
149.766
150.381
150.991
151.595
152.193
152.784
153.367
153.943
154.509
155.066
155.614
156.152
156.68
157.199
157.71
158.213
158.71
159.206
159.702
160.203
160.715
161.242
161.792
162.369
162.98
163.629
164.323
165.065
165.858
166.704
167.602
168.547
169.53
170.531
171.527
172.478
173.337
174.045
174.565
174.916
124.963
124.975
125.003
125.048
125.109
125.184
125.274
125.379
125.5
125.636
125.787
125.954
126.136
126.333
126.545
126.773
127.016
127.275
127.548
127.836
128.14
128.458
128.791
129.139
129.501
129.877
130.268
130.672
131.091
131.522
131.967
132.425
132.895
133.378
133.873
134.379
134.896
135.424
135.962
136.509
137.066
137.631
138.204
138.784
139.371
139.965
140.564
141.168
141.776
142.389
143.004
143.623
144.243
144.865
145.488
146.111
146.734
147.357
147.978
148.596
149.212
149.825
150.434
151.038
151.638
152.232
152.82
153.401
153.976
154.545
155.106
155.66
156.208
156.751
157.288
157.821
158.352
158.884
159.42
159.963
160.517
161.088
161.68
162.297
162.944
163.623
164.339
165.092
165.885
166.718
167.589
168.495
169.429
170.378
171.323
172.234
173.067
173.762
174.276
174.628
124.717
124.729
124.757
124.802
124.861
124.936
125.025
125.129
125.248
125.383
125.532
125.697
125.876
126.071
126.281
126.505
126.745
127
127.269
127.554
127.853
128.166
128.494
128.837
129.193
129.564
129.948
130.346
130.758
131.183
131.621
132.071
132.534
133.009
133.495
133.993
134.501
135.02
135.549
136.088
136.635
137.191
137.755
138.327
138.905
139.49
140.08
140.675
141.276
141.88
142.488
143.098
143.712
144.327
144.944
145.561
146.179
146.796
147.413
148.028
148.641
149.252
149.86
150.465
151.066
151.662
152.255
152.842
153.425
154.004
154.577
155.147
155.713
156.276
156.838
157.399
157.961
158.527
159.098
159.679
160.272
160.88
161.507
162.156
162.829
163.528
164.254
165.008
165.789
166.596
167.429
168.285
169.158
170.042
170.923
171.777
172.566
173.235
173.731
174.075
124.456
124.468
124.496
124.54
124.599
124.673
124.761
124.864
124.981
125.114
125.262
125.424
125.601
125.793
126
126.221
126.458
126.709
126.974
127.254
127.549
127.857
128.18
128.517
128.868
129.233
129.611
130.003
130.408
130.826
131.256
131.699
132.154
132.621
133.099
133.589
134.089
134.599
135.119
135.649
136.187
136.734
137.289
137.852
138.421
138.996
139.578
140.165
140.757
141.353
141.953
142.556
143.162
143.771
144.381
144.992
145.605
146.217
146.83
147.441
148.052
148.661
149.268
149.873
150.475
151.074
151.67
152.264
152.854
153.441
154.026
154.61
155.192
155.773
156.356
156.941
157.53
158.125
158.728
159.341
159.967
160.607
161.264
161.939
162.633
163.346
164.077
164.825
165.59
166.368
167.158
167.959
168.767
169.578
170.384
171.169
171.9
172.527
172.995
173.323
124.181
124.192
124.22
124.263
124.322
124.395
124.481
124.583
124.699
124.83
124.976
125.136
125.31
125.5
125.703
125.922
126.154
126.401
126.663
126.938
127.228
127.532
127.85
128.181
128.527
128.885
129.257
129.642
130.041
130.451
130.874
131.31
131.757
132.216
132.686
133.167
133.658
134.16
134.671
135.192
135.721
136.259
136.805
137.358
137.919
138.485
139.058
139.637
140.22
140.808
141.4
141.996
142.594
143.196
143.799
144.405
145.011
145.619
146.227
146.835
147.442
148.049
148.655
149.26
149.863
150.465
151.064
151.663
152.259
152.855
153.45
154.045
154.641
155.238
155.839
156.444
157.055
157.675
158.303
158.943
159.596
160.262
160.944
161.64
162.35
163.073
163.807
164.549
165.296
166.044
166.793
167.539
168.282
169.02
169.748
170.455
171.118
171.692
172.122
172.428
123.891
123.902
123.929
123.972
124.03
124.102
124.188
124.288
124.402
124.531
124.675
124.832
125.004
125.191
125.391
125.606
125.835
126.078
126.335
126.607
126.892
127.19
127.503
127.829
128.168
128.521
128.886
129.265
129.656
130.06
130.475
130.903
131.342
131.793
132.255
132.727
133.21
133.703
134.205
134.717
135.238
135.766
136.303
136.847
137.398
137.956
138.52
139.09
139.665
140.244
140.828
141.416
142.007
142.602
143.199
143.798
144.398
145.001
145.604
146.208
146.812
147.417
148.021
148.625
149.229
149.832
150.434
151.037
151.639
152.242
152.845
153.45
154.057
154.668
155.284
155.905
156.534
157.172
157.821
158.481
159.155
159.841
160.541
161.253
161.976
162.706
163.44
164.175
164.906
165.628
166.339
167.035
167.718
168.385
169.037
169.667
170.256
170.77
171.157
171.435
123.587
123.598
123.625
123.667
123.724
123.795
123.879
123.978
124.091
124.218
124.359
124.514
124.683
124.866
125.064
125.275
125.5
125.739
125.992
126.259
126.539
126.833
127.14
127.46
127.793
128.14
128.499
128.871
129.255
129.651
130.059
130.479
130.911
131.353
131.807
132.271
132.745
133.229
133.722
134.225
134.736
135.256
135.783
136.318
136.86
137.409
137.964
138.525
139.091
139.662
140.238
140.818
141.401
141.988
142.578
143.17
143.765
144.362
144.96
145.56
146.16
146.762
147.364
147.967
148.57
149.174
149.778
150.384
150.99
151.598
152.209
152.822
153.439
154.06
154.687
155.322
155.965
156.617
157.28
157.955
158.643
159.343
160.055
160.777
161.507
162.241
162.974
163.701
164.417
165.116
165.793
166.447
167.076
167.68
168.261
168.816
169.333
169.786
170.126
170.375
123.268
123.279
123.306
123.348
123.403
123.473
123.556
123.653
123.764
123.889
124.028
124.181
124.347
124.527
124.721
124.929
125.151
125.385
125.634
125.896
126.171
126.459
126.761
127.075
127.403
127.743
128.095
128.46
128.837
129.226
129.627
130.039
130.462
130.897
131.342
131.797
132.262
132.737
133.222
133.715
134.217
134.728
135.246
135.772
136.304
136.844
137.39
137.942
138.499
139.061
139.628
140.2
140.776
141.355
141.937
142.523
143.111
143.702
144.294
144.889
145.485
146.083
146.682
147.283
147.885
148.489
149.094
149.701
150.311
150.923
151.538
152.157
152.781
153.411
154.047
154.691
155.343
156.006
156.679
157.363
158.06
158.767
159.485
160.212
160.944
161.677
162.406
163.125
163.827
164.505
165.155
165.771
166.354
166.903
167.421
167.909
168.358
168.751
169.045
169.265
122.936
122.947
122.973
123.014
123.069
123.137
123.219
123.315
123.424
123.547
123.683
123.833
123.997
124.174
124.364
124.568
124.786
125.016
125.26
125.517
125.788
126.071
126.367
126.675
126.996
127.33
127.676
128.034
128.404
128.785
129.178
129.582
129.998
130.424
130.86
131.307
131.763
132.229
132.704
133.189
133.681
134.182
134.691
135.207
135.731
136.261
136.797
137.34
137.888
138.441
139
139.563
140.13
140.701
141.276
141.854
142.435
143.019
143.606
144.195
144.786
145.38
145.976
146.573
147.173
147.775
148.38
148.988
149.598
150.213
150.831
151.454
152.083
152.718
153.36
154.01
154.669
155.337
156.016
156.705
157.405
158.116
158.835
159.56
160.29
161.018
161.739
162.448
163.135
163.795
164.42
165.005
165.548
166.051
166.514
166.942
167.33
167.668
167.919
168.112
122.59
122.601
122.626
122.667
122.721
122.788
122.868
122.962
123.069
123.19
123.324
123.471
123.632
123.806
123.993
124.193
124.406
124.633
124.872
125.124
125.389
125.667
125.957
126.26
126.575
126.902
127.241
127.592
127.954
128.328
128.713
129.11
129.517
129.934
130.362
130.8
131.247
131.704
132.17
132.645
133.128
133.62
134.119
134.625
135.139
135.66
136.187
136.72
137.258
137.803
138.352
138.906
139.464
140.027
140.594
141.164
141.738
142.315
142.894
143.477
144.063
144.651
145.242
145.836
146.433
147.032
147.635
148.241
148.851
149.466
150.085
150.71
151.341
151.978
152.623
153.276
153.938
154.609
155.29
155.98
156.68
157.388
158.103
158.823
159.545
160.264
160.975
161.67
162.343
162.984
163.587
164.145
164.656
165.119
165.536
165.913
166.247
166.536
166.748
166.917
122.231
122.241
122.266
122.306
122.359
122.425
122.504
122.596
122.701
122.82
122.951
123.096
123.253
123.424
123.607
123.804
124.013
124.235
124.469
124.717
124.976
125.248
125.533
125.829
126.138
126.458
126.791
127.134
127.489
127.856
128.233
128.621
129.02
129.429
129.848
130.277
130.715
131.163
131.619
132.084
132.558
133.04
133.529
134.026
134.53
135.041
135.558
136.081
136.61
137.145
137.684
138.229
138.779
139.332
139.89
140.452
141.018
141.587
142.159
142.735
143.314
143.896
144.481
145.07
145.662
146.258
146.857
147.46
148.068
148.681
149.299
149.923
150.553
151.191
151.835
152.488
153.15
153.82
154.499
155.186
155.882
156.584
157.292
158.003
158.713
159.419
160.116
160.795
161.451
162.073
162.655
163.19
163.673
164.102
164.481
164.814
165.103
165.349
165.526
165.673
121.858
121.869
121.893
121.932
121.984
122.049
122.126
122.217
122.32
122.436
122.565
122.706
122.861
123.028
123.208
123.4
123.605
123.823
124.052
124.295
124.549
124.815
125.094
125.384
125.686
126
126.325
126.662
127.009
127.368
127.737
128.117
128.507
128.908
129.318
129.738
130.167
130.605
131.052
131.507
131.971
132.443
132.922
133.409
133.903
134.404
134.911
135.424
135.943
136.468
136.997
137.532
138.072
138.616
139.165
139.718
140.275
140.835
141.399
141.967
142.539
143.114
143.692
144.274
144.861
145.451
146.045
146.644
147.247
147.856
148.471
149.092
149.719
150.353
150.995
151.645
152.302
152.968
153.642
154.323
155.011
155.704
156.401
157.099
157.795
158.484
159.163
159.824
160.461
161.064
161.626
162.138
162.596
162.998
163.344
163.64
163.89
164.099
164.248
164.376
121.473
121.483
121.507
121.545
121.596
121.66
121.735
121.824
121.925
122.039
122.165
122.304
122.455
122.619
122.795
122.983
123.184
123.397
123.622
123.859
124.108
124.368
124.641
124.925
125.22
125.527
125.846
126.175
126.515
126.865
127.227
127.598
127.98
128.371
128.772
129.183
129.603
130.031
130.469
130.914
131.368
131.83
132.299
132.775
133.259
133.749
134.246
134.748
135.257
135.771
136.291
136.815
137.345
137.879
138.418
138.961
139.508
140.06
140.615
141.174
141.737
142.303
142.874
143.449
144.027
144.61
145.198
145.79
146.388
146.991
147.599
148.214
148.836
149.464
150.1
150.743
151.394
152.052
152.717
153.389
154.066
154.746
155.429
156.111
156.79
157.46
158.119
158.759
159.374
159.956
160.497
160.988
161.424
161.801
162.119
162.385
162.602
162.78
162.903
163.015
121.075
121.085
121.108
121.146
121.196
121.258
121.332
121.418
121.517
121.629
121.752
121.888
122.036
122.196
122.368
122.553
122.749
122.957
123.177
123.409
123.652
123.907
124.174
124.452
124.74
125.04
125.351
125.673
126.005
126.348
126.701
127.064
127.437
127.82
128.212
128.613
129.023
129.442
129.869
130.305
130.748
131.2
131.658
132.124
132.597
133.077
133.562
134.054
134.552
135.056
135.564
136.078
136.597
137.121
137.649
138.182
138.719
139.26
139.805
140.354
140.907
141.465
142.026
142.591
143.161
143.736
144.315
144.899
145.488
146.083
146.683
147.29
147.903
148.523
149.15
149.784
150.424
151.072
151.725
152.383
153.046
153.711
154.376
155.04
155.698
156.347
156.983
157.599
158.191
158.75
159.269
159.739
160.153
160.508
160.802
161.041
161.23
161.382
161.483
161.581
120.664
120.674
120.697
120.734
120.782
120.843
120.916
121
121.097
121.206
121.327
121.46
121.604
121.761
121.929
122.109
122.301
122.505
122.72
122.946
123.184
123.433
123.693
123.965
124.247
124.54
124.843
125.157
125.482
125.817
126.161
126.516
126.88
127.253
127.636
128.028
128.428
128.837
129.254
129.68
130.113
130.553
131.001
131.457
131.918
132.387
132.862
133.342
133.829
134.321
134.818
135.321
135.829
136.341
136.858
137.38
137.905
138.435
138.97
139.508
140.05
140.597
141.148
141.703
142.262
142.826
143.395
143.969
144.548
145.132
145.722
146.318
146.92
147.529
148.144
148.765
149.392
150.025
150.663
151.305
151.95
152.597
153.242
153.884
154.519
155.143
155.754
156.345
156.911
157.445
157.939
158.387
158.78
159.114
159.386
159.602
159.767
159.896
159.979
160.065
120.242
120.251
120.274
120.309
120.357
120.416
120.487
120.57
120.665
120.771
120.889
121.019
121.16
121.313
121.477
121.653
121.841
122.039
122.249
122.47
122.702
122.945
123.199
123.464
123.74
124.025
124.322
124.628
124.945
125.271
125.607
125.953
126.308
126.672
127.046
127.428
127.818
128.217
128.624
129.039
129.461
129.891
130.328
130.772
131.223
131.68
132.143
132.612
133.087
133.567
134.053
134.544
135.039
135.54
136.045
136.554
137.068
137.586
138.108
138.635
139.165
139.7
140.239
140.782
141.329
141.881
142.438
142.999
143.566
144.137
144.715
145.297
145.886
146.48
147.08
147.685
148.296
148.912
149.531
150.154
150.778
151.402
152.024
152.641
153.25
153.848
154.431
154.994
155.531
156.038
156.507
156.93
157.301
157.614
157.865
158.06
158.204
158.313
158.38
158.456
119.807
119.816
119.838
119.873
119.92
119.978
120.047
120.128
120.22
120.324
120.439
120.566
120.704
120.853
121.013
121.185
121.368
121.561
121.766
121.982
122.208
122.445
122.693
122.951
123.219
123.498
123.787
124.085
124.394
124.712
125.039
125.376
125.722
126.077
126.441
126.813
127.193
127.582
127.978
128.383
128.794
129.213
129.639
130.071
130.51
130.955
131.407
131.864
132.327
132.795
133.268
133.746
134.229
134.717
135.21
135.706
136.207
136.712
137.221
137.735
138.252
138.773
139.299
139.828
140.362
140.9
141.443
141.99
142.542
143.099
143.66
144.227
144.799
145.376
145.958
146.545
147.136
147.731
148.328
148.928
149.528
150.127
150.722
151.311
151.892
152.46
153.012
153.544
154.051
154.527
154.967
155.365
155.711
156.002
156.233
156.408
156.532
156.623
156.676
156.743
119.361
119.37
119.391
119.425
119.471
119.527
119.595
119.674
119.764
119.865
119.977
120.101
120.235
120.381
120.537
120.704
120.882
121.071
121.271
121.481
121.701
121.932
122.173
122.425
122.686
122.958
123.239
123.53
123.83
124.139
124.458
124.786
125.123
125.468
125.822
126.184
126.554
126.933
127.318
127.711
128.112
128.519
128.933
129.354
129.781
130.214
130.653
131.098
131.548
132.003
132.464
132.929
133.399
133.873
134.352
134.835
135.322
135.813
136.308
136.807
137.31
137.817
138.328
138.842
139.361
139.883
140.41
140.941
141.476
142.015
142.559
143.107
143.66
144.217
144.778
145.343
145.911
146.482
147.054
147.627
148.199
148.769
149.334
149.892
150.44
150.975
151.494
151.991
152.465
152.908
153.317
153.685
154.005
154.272
154.482
154.637
154.742
154.815
154.855
154.913
118.904
118.912
118.933
118.966
119.011
119.066
119.132
119.208
119.296
119.395
119.504
119.624
119.755
119.897
120.049
120.212
120.385
120.569
120.763
120.968
121.182
121.407
121.642
121.886
122.141
122.405
122.678
122.961
123.253
123.554
123.864
124.183
124.51
124.846
125.19
125.542
125.902
126.269
126.644
127.026
127.415
127.81
128.213
128.621
129.036
129.457
129.883
130.315
130.752
131.194
131.64
132.092
132.548
133.008
133.473
133.941
134.414
134.89
135.37
135.853
136.341
136.831
137.326
137.823
138.325
138.83
139.339
139.851
140.367
140.887
141.41
141.937
142.468
143.002
143.539
144.079
144.62
145.163
145.707
146.25
146.791
147.328
147.859
148.382
148.894
149.392
149.873
150.333
150.769
151.176
151.55
151.884
152.175
152.415
152.601
152.736
152.821
152.877
152.904
152.954
118.435
118.444
118.464
118.496
118.539
118.593
118.657
118.732
118.817
118.913
119.019
119.136
119.264
119.402
119.55
119.708
119.877
120.056
120.244
120.443
120.652
120.87
121.098
121.336
121.583
121.84
122.105
122.38
122.664
122.956
123.257
123.567
123.884
124.21
124.544
124.886
125.235
125.591
125.955
126.325
126.703
127.087
127.477
127.873
128.275
128.683
129.096
129.514
129.937
130.365
130.798
131.235
131.677
132.122
132.572
133.025
133.482
133.942
134.406
134.872
135.343
135.816
136.293
136.772
137.255
137.741
138.229
138.721
139.216
139.714
140.214
140.718
141.223
141.731
142.241
142.752
143.264
143.776
144.287
144.796
145.301
145.801
146.294
146.778
147.25
147.707
148.146
148.565
148.959
149.325
149.659
149.957
150.213
150.423
150.583
150.693
150.758
150.796
150.809
150.852
117.956
117.964
117.984
118.015
118.057
118.109
118.172
118.244
118.327
118.421
118.524
118.638
118.762
118.895
119.039
119.193
119.357
119.531
119.714
119.907
120.11
120.322
120.543
120.774
121.014
121.263
121.52
121.787
122.062
122.346
122.638
122.938
123.246
123.562
123.886
124.217
124.555
124.9
125.252
125.611
125.977
126.348
126.726
127.109
127.498
127.893
128.292
128.697
129.106
129.52
129.938
130.36
130.786
131.216
131.649
132.086
132.526
132.97
133.416
133.865
134.317
134.772
135.229
135.689
136.151
136.616
137.083
137.552
138.023
138.496
138.971
139.448
139.926
140.405
140.884
141.364
141.842
142.319
142.794
143.265
143.73
144.189
144.639
145.079
145.506
145.917
146.309
146.681
147.028
147.348
147.637
147.892
148.109
148.284
148.412
148.496
148.538
148.556
148.554
148.589
117.466
117.475
117.494
117.524
117.565
117.615
117.676
117.746
117.827
117.918
118.018
118.128
118.249
118.378
118.518
118.668
118.826
118.995
119.173
119.36
119.557
119.762
119.977
120.201
120.433
120.674
120.924
121.182
121.449
121.724
122.006
122.297
122.595
122.901
123.214
123.535
123.862
124.196
124.536
124.883
125.237
125.596
125.96
126.331
126.706
127.087
127.473
127.863
128.257
128.656
129.059
129.465
129.876
130.289
130.706
131.126
131.548
131.974
132.401
132.832
133.264
133.698
134.135
134.573
135.013
135.455
135.898
136.343
136.788
137.234
137.681
138.129
138.576
139.023
139.469
139.913
140.354
140.793
141.227
141.655
142.077
142.49
142.892
143.283
143.659
144.018
144.358
144.677
144.971
145.238
145.476
145.682
145.853
145.986
146.077
146.129
146.143
146.139
146.12
146.146
116.967
116.975
116.993
117.023
117.062
117.111
117.17
117.238
117.316
117.404
117.502
117.609
117.725
117.851
117.987
118.131
118.285
118.449
118.621
118.802
118.993
119.192
119.4
119.616
119.841
120.075
120.317
120.566
120.824
121.09
121.363
121.644
121.933
122.228
122.531
122.84
123.156
123.479
123.808
124.142
124.483
124.829
125.181
125.538
125.9
126.266
126.637
127.013
127.392
127.776
128.162
128.553
128.946
129.343
129.742
130.144
130.548
130.954
131.362
131.772
132.184
132.597
133.011
133.427
133.843
134.26
134.677
135.095
135.512
135.929
136.346
136.761
137.175
137.586
137.995
138.4
138.801
139.197
139.586
139.968
140.34
140.702
141.051
141.387
141.706
142.007
142.288
142.546
142.78
142.987
143.166
143.314
143.431
143.514
143.561
143.574
143.555
143.523
143.485
143.501
116.457
116.465
116.483
116.512
116.55
116.597
116.654
116.72
116.796
116.881
116.975
117.079
117.192
117.314
117.445
117.585
117.734
117.892
118.059
118.234
118.418
118.611
118.812
119.021
119.239
119.465
119.698
119.94
120.189
120.445
120.709
120.98
121.259
121.544
121.836
122.134
122.439
122.749
123.066
123.388
123.716
124.05
124.388
124.731
125.079
125.431
125.787
126.147
126.511
126.878
127.249
127.622
127.998
128.377
128.758
129.141
129.526
129.912
130.299
130.688
131.078
131.468
131.859
132.249
132.64
133.03
133.42
133.808
134.196
134.581
134.964
135.345
135.722
136.095
136.464
136.826
137.183
137.532
137.872
138.201
138.52
138.825
139.115
139.389
139.645
139.881
140.094
140.284
140.448
140.586
140.695
140.777
140.829
140.851
140.843
140.809
140.749
140.685
140.623
140.626
115.938
115.946
115.963
115.991
116.028
116.074
116.129
116.193
116.266
116.348
116.439
116.54
116.649
116.767
116.893
117.029
117.173
117.326
117.487
117.656
117.834
118.02
118.214
118.416
118.626
118.844
119.069
119.302
119.542
119.79
120.044
120.305
120.573
120.848
121.129
121.416
121.709
122.008
122.312
122.622
122.937
123.257
123.582
123.911
124.244
124.581
124.922
125.267
125.614
125.965
126.319
126.675
127.033
127.393
127.755
128.118
128.482
128.847
129.213
129.58
129.946
130.312
130.677
131.042
131.406
131.768
132.128
132.485
132.84
133.191
133.539
133.882
134.22
134.551
134.876
135.193
135.5
135.798
136.084
136.357
136.616
136.859
137.084
137.289
137.474
137.635
137.773
137.884
137.969
138.025
138.054
138.055
138.03
137.979
137.904