/*--------------------------------*- C++ -*----------------------------------*\
| =========                 |                                                 |
| \\      /  F ield         | OpenFOAM: The Open Source CFD Toolbox           |
|  \\    /   O peration     | Version:  4.1                                   |
|   \\  /    A nd           | Web:      www.OpenFOAM.org                      |
|    \\/     M anipulation  |                                                 |
\*---------------------------------------------------------------------------*/
FoamFile
{
    version     2.0;
    format      ascii;
    class       surfaceScalarField;
    location    "0.31";
    object      phi;
}
// * * * * * * * * * * * * * * * * * * * * * * * * * * * * * * * * * * * * * //

dimensions      [0 3 -1 0 0 0 0];

internalField   nonuniform List<scalar> 
87025
(
0.0199637
3.62572e-05
0.019906
5.77076e-05
0.0198366
6.94268e-05
0.0197572
7.94255e-05
0.0196684
8.87862e-05
0.019571
9.73961e-05
0.0194656
0.000105358
0.0193527
0.000112935
0.0192324
0.000120316
0.0191048
0.000127583
0.01897
0.000134777
0.0188281
0.000141935
0.018679
0.000149099
0.0185227
0.000156308
0.0183591
0.000163593
0.0181881
0.000170986
0.0180096
0.000178515
0.0178234
0.000186212
0.0176293
0.000194105
0.0174271
0.000202226
0.0172164
0.000210604
0.0169972
0.000219271
0.0167689
0.000228258
0.0165313
0.000237597
0.016284
0.000247318
0.0160265
0.000257456
0.0157585
0.000268041
0.0154794
0.000279106
0.0151887
0.00029068
0.0148859
0.000302792
0.0145705
0.000315468
0.0142417
0.000328729
0.0138991
0.000342591
0.0135421
0.000357062
0.0131699
0.000372138
0.0127821
0.0003878
0.0123781
0.000404013
0.0119574
0.000420714
0.0115196
0.000437809
0.0110644
0.000455168
0.0105918
0.000472612
0.0101019
0.000489913
0.00959513
0.000506782
0.00907226
0.00052287
0.00853449
0.000537766
0.00798349
0.000551006
0.00742141
0.000562083
0.00685094
0.00057047
0.00627529
0.000575646
0.00569816
0.00057713
0.00512364
0.000574523
0.00455608
0.000567556
0.00399996
0.000556125
0.00345962
0.000540341
0.00293907
0.000520549
0.00244172
0.000497346
0.00197015
0.000471567
0.00152592
0.000444233
0.00110945
0.000416471
0.000720065
0.000389384
0.000356179
0.000363886
1.56642e-05
0.000340514
-0.000304129
0.000319793
-0.000606005
0.000301877
-0.000892124
0.000286119
-0.00116423
0.000272103
-0.00142349
0.000259262
-0.00167064
0.000247148
-0.00190606
0.000235424
-0.00213002
0.000223959
-0.00234276
0.000212736
-0.00254473
0.000201976
-0.00273671
0.000191973
-0.00292001
0.000183301
-0.00309746
0.000177457
-0.00327433
0.000176863
-0.00345909
0.000184764
-0.00366431
0.000205215
-0.00390627
0.000241962
-0.00420075
0.000294483
-0.0045533
0.000352554
-0.00494947
0.000396169
-0.0053551
0.000405622
-0.00572775
0.00037265
-0.00602778
0.000300038
-0.00623485
0.000207069
-0.00634465
0.000109798
-0.00635601
1.13543e-05
-0.00629228
-6.3729e-05
-0.00615313
-0.000139145
-0.00593456
-0.000218577
-0.00563166
-0.000302898
-0.00523883
-0.00039283
-0.00475019
-0.000488637
-0.0041589
-0.000591286
-0.0034556
-0.000703302
-0.00262437
-0.000831233
-0.00165291
-0.00097146
-0.000629035
-0.00102387
-0.000629035
0.0200264
9.83505e-06
0.0200561
2.80033e-05
0.0200851
4.04434e-05
0.0201135
5.10528e-05
0.0201407
6.15462e-05
0.0201662
7.18895e-05
0.0201896
8.1955e-05
0.0202107
9.18779e-05
0.0202292
0.000101828
0.0202449
0.000111892
0.0202575
0.000122105
0.020267
0.000132501
0.020273
0.000143115
0.0202753
0.000153984
0.0202737
0.000165142
0.0202681
0.00017662
0.0202582
0.000188455
0.0202437
0.000200683
0.0202244
0.000213344
0.0202002
0.000226484
0.0201706
0.00024015
0.0201355
0.000254397
0.0200945
0.00026928
0.0200472
0.000284865
0.0199933
0.000301218
0.0199324
0.000318416
0.0198639
0.000336539
0.0197873
0.000355674
0.0197021
0.000375915
0.0196075
0.000397359
0.0195029
0.000420112
0.0193873
0.000444282
0.0192599
0.000469981
0.0191197
0.00049732
0.0189654
0.000526409
0.0187958
0.000557352
0.0186096
0.000590238
0.0184052
0.000625137
0.0181809
0.000662089
0.017935
0.000701088
0.0176655
0.000742075
0.0173705
0.000784913
0.0170479
0.000829376
0.0166957
0.000875128
0.0163117
0.00092171
0.0158942
0.000968526
0.0154414
0.00101484
0.0149521
0.0010598
0.0144254
0.0011024
0.0138609
0.00114158
0.0132592
0.00117624
0.0126215
0.00120529
0.0119499
0.00122772
0.0112476
0.00124265
0.0105187
0.00124943
0.00976836
0.00124766
0.0090027
0.00123723
0.00822858
0.00121835
0.00745351
0.00119155
0.00668521
0.00115768
0.00593124
0.00111786
0.00519833
0.00107343
0.00449216
0.00102596
0.00381706
0.000976976
0.00317537
0.000927801
0.00256786
0.00087962
0.00199379
0.000833334
0.00145146
0.000789476
0.00093864
0.000748242
0.00045294
0.00070966
-8.09163e-06
0.000673767
-0.000446939
0.000640824
-0.000866485
0.000611519
-0.00127059
0.000587402
-0.00166433
0.000571201
-0.00205396
0.000566489
-0.00244615
0.000576963
-0.00284631
0.000605375
-0.00325576
0.000651404
-0.00366848
0.00070721
-0.00406835
0.000752423
-0.00443021
0.000758026
-0.00472767
0.000703088
-0.00494588
0.000590861
-0.00509432
0.000448472
-0.00519561
0.000308356
-0.00526917
0.000183358
-0.00532283
6.502e-05
-0.00532579
-6.0772e-05
-0.00526186
-0.000203077
-0.00511961
-0.000360819
-0.00489148
-0.000531038
-0.00457401
-0.000710291
-0.0041676
-0.00089505
-0.00367625
-0.00108264
-0.00310465
-0.0012749
-0.00245097
-0.00148492
-0.0016938
-0.00172863
-0.000800168
-0.0019175
-0.0014292
0.0200004
9.3893e-06
0.02
2.8482e-05
0.0199958
4.46228e-05
0.019988
5.88583e-05
0.019977
7.25515e-05
0.0199629
8.601e-05
0.0199456
9.9163e-05
0.0199255
0.00011207
0.0199024
0.000124877
0.0198766
0.000137684
0.0198482
0.000150542
0.0198172
0.000163485
0.0197838
0.000176551
0.019748
0.000189777
0.0197099
0.000203199
0.0196697
0.000216852
0.0196274
0.000230773
0.019583
0.000244998
0.0195368
0.000259569
0.0194888
0.00027453
0.019439
0.00028993
0.0193876
0.000305822
0.0193346
0.000322265
0.0192801
0.000339324
0.0192243
0.000357069
0.0191671
0.00037558
0.0191087
0.000394944
0.0190491
0.000415257
0.0189884
0.000436625
0.0189266
0.000459165
0.0188637
0.000483004
0.0187997
0.000508283
0.0187345
0.000535155
0.0186681
0.000563785
0.0186001
0.00059435
0.0185304
0.000627037
0.0184586
0.000662044
0.0183842
0.000699572
0.0183065
0.000739821
0.0182246
0.000782983
0.0181374
0.000829231
0.0180436
0.000878708
0.0179415
0.000931506
0.017829
0.000987652
0.0177036
0.00104708
0.0175625
0.00110963
0.0174024
0.00117499
0.0172194
0.0012427
0.0170097
0.00131215
0.0167687
0.00138256
0.016492
0.00145296
0.016175
0.00152227
0.0158135
0.00158927
0.0154035
0.00165266
0.0149418
0.0017111
0.0144262
0.00176324
0.0138557
0.00180776
0.0132306
0.00184342
0.0125531
0.00186906
0.0118271
0.00188369
0.0110584
0.00188653
0.0102548
0.00187705
0.00942562
0.00185512
0.00858159
0.00182101
0.00773392
0.00177547
0.00689372
0.00171981
0.00607121
0.00165585
0.00527487
0.00158581
0.00451094
0.00151217
0.00378319
0.00143741
0.00309305
0.00136391
0.00244004
0.00129384
0.00182229
0.00122927
0.00123719
0.0011725
0.000682008
0.00112639
0.000154254
0.00109424
-0.000347939
0.00107916
-0.000825083
0.00108252
-0.00127512
0.00110144
-0.00169352
0.00112561
-0.00207571
0.00113462
-0.00242003
0.00110235
-0.00272931
0.00101237
-0.00300821
0.000869757
-0.00326177
0.000702034
-0.00348916
0.000535744
-0.00368252
0.000376716
-0.0038303
0.000212801
-0.00391654
2.54666e-05
-0.00393908
-0.000180528
-0.00388876
-0.000411141
-0.00375859
-0.000661207
-0.00354385
-0.000925033
-0.00324376
-0.00119514
-0.00286383
-0.00146256
-0.00241825
-0.00172049
-0.00192873
-0.00197443
-0.00140547
-0.00225189
-0.000782151
-0.00254082
-0.00221135
0.0199992
1.02193e-05
0.0199969
3.07205e-05
0.0199916
4.99568e-05
0.0199825
6.7912e-05
0.0199698
8.52455e-05
0.0199535
0.000102317
0.0199335
0.000119159
0.0199098
0.000135794
0.0198824
0.000152316
0.0198513
0.000168816
0.0198164
0.000185352
0.019778
0.000201961
0.0197358
0.000218679
0.0196901
0.000235542
0.0196407
0.000252585
0.0195877
0.000269841
0.0195311
0.000287342
0.019471
0.000305123
0.0194074
0.000323218
0.0193402
0.000341667
0.0192696
0.000360509
0.0191957
0.000379788
0.0191184
0.000399552
0.0190379
0.000419854
0.0189542
0.000440748
0.0188675
0.000462296
0.0187778
0.000484565
0.0186855
0.000507629
0.0185905
0.000531566
0.0184932
0.000556464
0.0183938
0.000582418
0.0182926
0.000609531
0.0181898
0.000637915
0.0180859
0.000667694
0.0179813
0.000698998
0.0178763
0.00073197
0.0177716
0.000766764
0.0176676
0.000803541
0.017565
0.000842474
0.0174642
0.00088374
0.0173659
0.000927524
0.0172706
0.000974013
0.0171787
0.00102339
0.0170906
0.00107583
0.0170062
0.00113149
0.0169253
0.00119052
0.0168472
0.00125301
0.0167709
0.00131901
0.0166946
0.00138853
0.0166157
0.00146146
0.016531
0.00153765
0.0164364
0.0016168
0.0163272
0.00169849
0.0161977
0.00178217
0.0160417
0.00186712
0.0158525
0.00195244
0.0156232
0.00203704
0.015347
0.0021196
0.0150175
0.0021986
0.0146289
0.00227228
0.0141768
0.00233866
0.0136582
0.00239563
0.0130723
0.00244098
0.0124208
0.00247258
0.0117077
0.00248851
0.0109402
0.00248729
0.010128
0.00246807
0.00928302
0.00243083
0.00841867
0.00237652
0.007549
0.00230708
0.00668748
0.00222542
0.00584605
0.00213526
0.00503437
0.00204095
0.00425965
0.00194722
0.00352704
0.001859
0.00284029
0.00178099
0.00220245
0.001717
0.00161624
0.00166872
0.00108383
0.00163385
0.000605422
0.00160402
0.000176119
0.00156392
-0.000216016
0.00149448
-0.000584255
0.00138061
-0.000938272
0.00122377
-0.0012751
0.00103886
-0.00158208
0.000842733
-0.00184602
0.000640649
-0.00205884
0.000425622
-0.00222087
0.000187498
-0.00232262
-7.87754e-05
-0.00236575
-0.000368017
-0.00234361
-0.000683344
-0.00225245
-0.0010162
-0.00209084
-0.00135674
-0.00186101
-0.00169239
-0.00157217
-0.00200933
-0.00124713
-0.00229947
-0.000922292
-0.00257673
-0.000587545
-0.00287557
-0.0027989
0.0199989
1.13473e-05
0.0199955
3.40553e-05
0.0199893
5.6194e-05
0.0199797
7.75619e-05
0.0199665
9.83829e-05
0.0199499
0.000118918
0.0199298
0.000139261
0.0199062
0.000159444
0.0198789
0.00017953
0.0198482
0.000199596
0.0198138
0.000219704
0.0197759
0.000239897
0.0197343
0.000260214
0.0196892
0.000280694
0.0196404
0.000301373
0.019588
0.000322288
0.0195318
0.000343474
0.019472
0.000364966
0.0194084
0.000386803
0.019341
0.000409023
0.0192699
0.000431668
0.0191949
0.000454782
0.019116
0.000478412
0.0190333
0.000502607
0.0189466
0.00052742
0.018856
0.000552909
0.0187614
0.000579132
0.0186629
0.000606154
0.0185604
0.000634043
0.018454
0.00066287
0.0183437
0.000692711
0.0182296
0.000723644
0.0181118
0.000755752
0.0179903
0.000789119
0.0178655
0.000823834
0.0177375
0.000859986
0.0176066
0.000897665
0.0174732
0.000936962
0.0173377
0.000977966
0.0172007
0.00102076
0.0170627
0.00106544
0.0169247
0.00111208
0.0167873
0.00116074
0.0166516
0.00121152
0.0165186
0.00126448
0.0163895
0.00131969
0.0162652
0.00137724
0.016147
0.00143721
0.0160359
0.00149971
0.0159325
0.00156487
0.0158373
0.00163284
0.0157503
0.00170381
0.0156708
0.00177795
0.0155975
0.00185548
0.0155281
0.00193655
0.0154592
0.00202129
0.0153866
0.00210967
0.0153047
0.00220151
0.0152069
0.00229638
0.0150857
0.00239351
0.0149326
0.00249174
0.0147388
0.00258945
0.0144952
0.00268456
0.0141932
0.00277451
0.0138254
0.00285636
0.0133858
0.00292692
0.0128709
0.00298294
0.0122804
0.00302136
0.0116173
0.00303959
0.0108886
0.00303582
0.0101047
0.0030093
0.00927936
0.00296058
0.0084287
0.00289161
0.00757013
0.00280579
0.00672137
0.00270776
0.00589941
0.00260295
0.00511959
0.00249683
0.00439459
0.00239371
0.00373326
0.00229518
0.00313886
0.00219843
0.00260723
0.00209554
0.00212668
0.00197503
0.00168089
0.0018264
0.00125847
0.00164619
0.000858488
0.00143884
0.000489457
0.00121176
0.000161698
0.000968408
-0.000118885
0.000706204
-0.000351256
0.000419869
-0.00053629
0.000106259
-0.000670975
-0.000233331
-0.000756437
-0.000597882
-0.000791838
-0.000980796
-0.000778876
-0.00136971
-0.000721386
-0.00174988
-0.000624943
-0.00210578
-0.00050041
-0.00242401
-0.000376054
-0.00270109
-0.00028469
-0.00296693
-0.00308359
0.0199987
1.26625e-05
0.0199947
3.7995e-05
0.0199879
6.30241e-05
0.0199779
8.75916e-05
0.0199645
0.000111752
0.0199478
0.000135659
0.0199276
0.000159409
0.019904
0.000183047
0.0198769
0.000206619
0.0198463
0.000230185
0.0198122
0.000253803
0.0197746
0.000277516
0.0197335
0.000301366
0.0196888
0.000325389
0.0196405
0.000349625
0.0195887
0.00037411
0.0195333
0.000398882
0.0194743
0.000423979
0.0194116
0.000449441
0.0193454
0.000475309
0.0192754
0.000501627
0.0192017
0.000528441
0.0191244
0.0005558
0.0190432
0.000583755
0.0189583
0.000612362
0.0188695
0.000641678
0.0187769
0.000671765
0.0186803
0.000702686
0.0185799
0.000734509
0.0184754
0.000767304
0.018367
0.000801143
0.0182545
0.000836102
0.018138
0.000872255
0.0180175
0.000909679
0.0178929
0.000948448
0.0177642
0.000988637
0.0176316
0.00103031
0.017495
0.00107354
0.0173546
0.00111837
0.0172105
0.00116485
0.0170629
0.00121302
0.0169121
0.00126288
0.0167584
0.00131443
0.0166023
0.00136767
0.0164442
0.00142256
0.0162848
0.00147904
0.016125
0.00153707
0.0159656
0.00159659
0.0158078
0.00165755
0.0156527
0.00171994
0.0155018
0.00178377
0.0153565
0.00184911
0.0152183
0.00191612
0.0150888
0.00198503
0.0149692
0.00205616
0.0148605
0.00212992
0.0147634
0.00220678
0.0146777
0.00228725
0.0146022
0.00237181
0.0145349
0.00246087
0.014472
0.00255465
0.0144083
0.00265308
0.0143372
0.0027557
0.0142502
0.00286154
0.0141375
0.00296907
0.0139883
0.00307607
0.0137915
0.00317972
0.0135363
0.0032766
0.013213
0.00336287
0.0128143
0.00343449
0.0123362
0.00348749
0.0117784
0.00351835
0.0111457
0.00352434
0.0104475
0.0035039
0.00969846
0.00345685
0.00891689
0.00338451
0.00812422
0.0032895
0.00734272
0.00317521
0.00659299
0.00304491
0.00589086
0.00290056
0.00524456
0.00274184
0.00465355
0.00256604
0.00411044
0.00236951
0.00360653
0.0021501
0.00313717
0.00190821
0.00270327
0.00164566
0.00230849
0.00136319
0.00195537
0.00105932
0.00164381
0.000731435
0.00137212
0.000377944
0.00113824
5.46786e-07
0.000937338
-0.000396977
0.00076683
-0.000810288
0.000621028
-0.0012239
0.000494293
-0.00162315
0.0003811
-0.00199258
0.000276242
-0.00231915
0.000172428
-0.00259727
4.83192e-05
-0.00284282
-0.00303527
0.0199986
1.40796e-05
0.0199943
4.22326e-05
0.0199872
7.02051e-05
0.0199769
9.79003e-05
0.0199633
0.000125321
0.0199464
0.000152547
0.0199262
0.000179652
0.0199025
0.000206683
0.0198755
0.00023368
0.019845
0.000260691
0.019811
0.000287765
0.0197736
0.000314946
0.0197326
0.000342276
0.0196882
0.000369791
0.0196403
0.00039753
0.0195889
0.000425532
0.019534
0.000453834
0.0194755
0.000482476
0.0194134
0.000511498
0.0193478
0.000540943
0.0192786
0.000570856
0.0192057
0.000601283
0.0191292
0.000632274
0.0190491
0.00066388
0.0189653
0.000696157
0.0188778
0.000729164
0.0187866
0.000762959
0.0186917
0.000797608
0.018593
0.000833177
0.0184906
0.000869734
0.0183844
0.00090735
0.0182744
0.000946098
0.0181606
0.000986051
0.018043
0.00102728
0.0179216
0.00106986
0.0177964
0.00111387
0.0176673
0.00115935
0.0175345
0.00120638
0.0173979
0.001255
0.0172575
0.00130525
0.0171133
0.00135716
0.0169655
0.00141073
0.0168139
0.00146596
0.0166588
0.0015228
0.0165002
0.00158119
0.0163382
0.00164107
0.0161729
0.00170232
0.0160047
0.00176482
0.0158338
0.00182843
0.0156607
0.00189302
0.015486
0.00195845
0.0153105
0.0020246
0.0151353
0.0020914
0.0149615
0.00215883
0.0147907
0.00222695
0.0146247
0.0022959
0.0144655
0.00236594
0.0143153
0.00243744
0.0141763
0.00251088
0.0140503
0.00258684
0.013939
0.00266596
0.0138431
0.00274892
0.0137625
0.00283634
0.0136953
0.00292871
0.0136382
0.00302624
0.0135855
0.00312876
0.0135296
0.00323554
0.0134611
0.00334518
0.0133684
0.0034555
0.0132394
0.00356348
0.0130616
0.0036653
0.0128235
0.00375647
0.0125158
0.00383204
0.0121328
0.00388696
0.0116732
0.00391642
0.0111414
0.00391629
0.0105474
0.0038835
0.0099064
0.00381622
0.0092373
0.00371402
0.00856024
0.00357762
0.0078935
0.00340858
0.00725067
0.00320887
0.0066395
0.00298069
0.00606308
0.00272651
0.00552235
0.00244894
0.00501795
0.00215006
0.00455034
0.0018308
0.00411886
0.0014908
0.00372104
0.00112926
0.00335282
0.000746165
0.00300985
0.000343518
0.00267948
-6.66072e-05
0.00236158
-0.000492384
0.00204547
-0.000907799
0.00172398
-0.00130165
0.00139294
-0.00166155
0.00105128
-0.00197749
0.000700072
-0.00224606
0.000337202
-0.00247995
-0.00269807
0.0199985
1.5549e-05
0.0199941
4.66322e-05
0.0199867
7.76022e-05
0.0199762
0.000108404
0.0199625
0.000139029
0.0199456
0.000169518
0.0199253
0.000199924
0.0199017
0.000230288
0.0198747
0.000260649
0.0198443
0.000291047
0.0198106
0.000321526
0.0197734
0.000352128
0.0197328
0.000382892
0.0196887
0.000413855
0.0196412
0.000445056
0.0195902
0.000476533
0.0195357
0.000508323
0.0194777
0.000540468
0.0194162
0.000573008
0.0193512
0.000605986
0.0192826
0.000639447
0.0192104
0.000673437
0.0191347
0.000708007
0.0190554
0.000743208
0.0189724
0.000779094
0.0188859
0.000815722
0.0187957
0.000853152
0.0187018
0.000891446
0.0186043
0.000930668
0.0185032
0.000970883
0.0183984
0.00101216
0.0182899
0.00105456
0.0181778
0.00109817
0.018062
0.00114304
0.0179427
0.00118924
0.0178197
0.00123684
0.0176932
0.00128589
0.0175631
0.00133646
0.0174295
0.00138859
0.0172924
0.00144231
0.0171519
0.00149765
0.0170081
0.00155462
0.0168608
0.00161321
0.0167102
0.00167341
0.0165562
0.00173515
0.0163989
0.00179839
0.0162382
0.00186302
0.0160741
0.00192894
0.0159065
0.00199601
0.0157355
0.00206408
0.0155609
0.00213299
0.015383
0.00220256
0.0152017
0.00227261
0.0150176
0.00234299
0.014831
0.00241354
0.0146427
0.00248416
0.0144539
0.00255478
0.014266
0.0026254
0.0140807
0.00269612
0.0139004
0.00276713
0.0137277
0.00283872
0.0135653
0.00291134
0.0134161
0.00298553
0.0132828
0.00306199
0.0131676
0.00314145
0.0130716
0.0032247
0.0129948
0.00331239
0.012935
0.00340496
0.0128881
0.00350243
0.0128474
0.00360419
0.0128039
0.00370879
0.0127466
0.00381376
0.0126631
0.0039155
0.0125408
0.00400929
0.0123678
0.00408939
0.0121348
0.00414931
0.011836
0.00418231
0.0114703
0.00418189
0.0110419
0.00414243
0.0105596
0.00405989
0.010036
0.00393224
0.00948512
0.00375973
0.00892099
0.00354482
0.00835581
0.00329169
0.00779939
0.00300536
0.00725882
0.00269063
0.00673824
0.00235138
0.00623863
0.00199041
0.00575781
0.00161007
0.00529075
0.00121323
0.00482983
0.000804439
0.00437255
0.000390675
0.00389603
-1.58693e-05
0.00340315
-0.000414914
0.00288502
-0.000783527
0.00234087
-0.0011174
0.00177313
-0.00140974
0.00118857
-0.00166151
0.000593066
-0.00188445
-0.002105
0.0199985
1.70468e-05
0.019994
5.1121e-05
0.0199865
8.51211e-05
0.0199759
0.000119019
0.0199621
0.000152809
0.0199451
0.000186515
0.0199249
0.000220174
0.0199013
0.000253824
0.0198745
0.000287499
0.0198443
0.000321235
0.0198107
0.000355071
0.0197738
0.000389046
0.0197335
0.000423198
0.0196898
0.000457564
0.0196427
0.00049218
0.0195921
0.000527086
0.0195381
0.000562319
0.0194807
0.00059792
0.0194198
0.00063393
0.0193553
0.000670392
0.0192874
0.000707351
0.019216
0.000744854
0.0191411
0.000782951
0.0190626
0.000821693
0.0189806
0.000861133
0.018895
0.000901328
0.0188058
0.000942336
0.018713
0.000984217
0.0186166
0.00102703
0.0185167
0.00107084
0.0184131
0.00111572
0.018306
0.00116171
0.0181952
0.0012089
0.0180809
0.00125734
0.0179631
0.00130709
0.0178417
0.0013582
0.0177169
0.00141074
0.0175886
0.00146475
0.0174569
0.00152027
0.0173219
0.00157733
0.0171836
0.00163596
0.017042
0.00169615
0.0168973
0.00175791
0.0167495
0.00182121
0.0165987
0.00188603
0.0164447
0.00195231
0.0162878
0.00201997
0.0161278
0.00208893
0.0159647
0.00215909
0.0157985
0.00223033
0.015629
0.0023025
0.015456
0.00237547
0.0152796
0.00244905
0.0150995
0.00252308
0.0149157
0.00259738
0.0147281
0.00267174
0.0145369
0.00274598
0.0143424
0.00281991
0.0141452
0.00289334
0.0139462
0.00296613
0.0137467
0.00303817
0.0135486
0.00310943
0.0133542
0.00317996
0.0131662
0.00324995
0.0129879
0.00331975
0.0128228
0.00338987
0.0126742
0.00346096
0.0125453
0.00353384
0.0124384
0.00360932
0.0123545
0.00368814
0.0122925
0.00377071
0.0122494
0.00385692
0.0122191
0.00394575
0.0121933
0.00403508
0.0121613
0.00412139
0.012111
0.00419967
0.0120298
0.00426353
0.0119061
0.00430554
0.0117308
0.00431778
0.0114979
0.00429276
0.0112059
0.00422427
0.0108573
0.00410833
0.0104584
0.00394371
0.0100181
0.00373201
0.00954629
0.00347713
0.00905254
0.00318438
0.0085443
0.00285962
0.00802604
0.00250867
0.0074987
0.00213741
0.00695978
0.00175215
0.00640407
0.00136015
0.00582458
0.000970168
0.00521676
0.000591953
0.00456989
0.000231959
0.00387525
-8.8894e-05
0.00314569
-0.000387834
0.00238364
-0.000647694
0.0015998
-0.000877668
0.000802301
-0.00108695
-0.0013027
0.0199985
1.85587e-05
0.019994
5.56533e-05
0.0199864
9.26982e-05
0.0199757
0.000129683
0.0199619
0.000166609
0.0199449
0.000203494
0.0199247
0.000240365
0.0199013
0.000277256
0.0198746
0.000314197
0.0198446
0.000351223
0.0198113
0.000388368
0.0197747
0.000425669
0.0197347
0.000463162
0.0196914
0.000500883
0.0196447
0.000538869
0.0195947
0.000577157
0.0195412
0.000615785
0.0194843
0.000654795
0.019424
0.000694226
0.0193603
0.000734123
0.0192931
0.000774531
0.0192225
0.000815495
0.0191484
0.000857067
0.0190708
0.000899296
0.0189897
0.000942235
0.018905
0.000985941
0.0188169
0.00103047
0.0187252
0.00107588
0.0186301
0.00112223
0.0185313
0.00116958
0.018429
0.00121799
0.0183232
0.00126752
0.0182139
0.00131823
0.0181011
0.00137019
0.0179847
0.00142343
0.0178649
0.00147803
0.0177416
0.00153401
0.0176149
0.00159143
0.0174849
0.00165032
0.0173515
0.0017107
0.0172149
0.00177259
0.017075
0.00183599
0.0169321
0.00190089
0.016786
0.00196728
0.0166369
0.00203512
0.0164849
0.00210435
0.0163299
0.00217493
0.0161721
0.00224677
0.0160114
0.00231979
0.0158478
0.00239388
0.0156814
0.00246893
0.015512
0.00254482
0.0153397
0.00262142
0.0151642
0.00269859
0.0149854
0.00277617
0.0148031
0.00285398
0.0146173
0.00293185
0.0144276
0.00300954
0.0142341
0.00308684
0.0140368
0.00316347
0.0138358
0.00323915
0.0136316
0.00331359
0.0134251
0.00338651
0.0132174
0.00345764
0.0130103
0.0035268
0.0128063
0.00359391
0.0126082
0.00365902
0.0124197
0.00372237
0.0122447
0.00378438
0.0120871
0.00384567
0.0119509
0.00390694
0.0118389
0.00396887
0.0117528
0.00403191
0.0116919
0.004096
0.0116531
0.0041602
0.0116303
0.00422239
0.0116149
0.00427901
0.0115955
0.00432494
0.0115595
0.00435371
0.0114943
0.00435799
0.0113882
0.00433037
0.0112322
0.00426433
0.0110207
0.00415522
0.0107518
0.00400091
0.0104269
0.003802
0.0100497
0.00356159
0.0096246
0.00328473
0.00915532
0.00297795
0.00864393
0.00264881
0.00809026
0.00230581
0.00749213
0.00195827
0.00684617
0.00161613
0.00614897
0.00128915
0.00539504
0.00098589
0.00459195
0.000714191
0.00373381
0.000470307
0.00283343
0.000252689
0.00190447
5.12943e-05
0.000955557
-0.000138037
-0.000347143
0.0199985
2.0075e-05
0.0199939
6.01998e-05
0.0199863
0.000100291
0.0199757
0.000140351
0.0199619
0.000180387
0.019945
0.000220415
0.0199249
0.00026046
0.0199016
0.000300549
0.0198751
0.000340713
0.0198453
0.000380982
0.0198123
0.000421389
0.019776
0.000461969
0.0197364
0.000502756
0.0196935
0.000543786
0.0196473
0.000585093
0.0195977
0.000626716
0.0195448
0.000668693
0.0194885
0.000711063
0.0194289
0.000753867
0.0193659
0.000797149
0.0192994
0.000840954
0.0192296
0.000885329
0.0191564
0.000930321
0.0190797
0.000975984
0.0189995
0.00102237
0.018916
0.00106953
0.0188289
0.00111752
0.0187384
0.0011664
0.0186444
0.00121622
0.0185469
0.00126705
0.018446
0.00131895
0.0183415
0.00137196
0.0182336
0.00142614
0.0181222
0.00148156
0.0180074
0.00153826
0.0178892
0.00159628
0.0177675
0.00165568
0.0176424
0.00171648
0.017514
0.00177872
0.0173823
0.00184241
0.0172473
0.00190757
0.0171091
0.00197419
0.0169678
0.00204227
0.0168233
0.00211178
0.0166757
0.00218269
0.0165251
0.00225495
0.0163715
0.0023285
0.016215
0.00240326
0.0160557
0.00247915
0.0158935
0.00255607
0.0157285
0.00263393
0.0155607
0.00271261
0.0153901
0.002792
0.0152167
0.00287196
0.0150405
0.00295237
0.0148614
0.00303309
0.0146793
0.00311395
0.0144941
0.00319477
0.0143056
0.00327536
0.0141136
0.00335547
0.0139179
0.00343481
0.0137185
0.00351306
0.0135151
0.00358985
0.013308
0.00366475
0.0130975
0.00373731
0.0128843
0.00380709
0.0126697
0.00387364
0.0124555
0.00393659
0.0122442
0.00399569
0.012039
0.00405082
0.0118439
0.00410207
0.0116631
0.00414967
0.011501
0.00419401
0.0113615
0.00423547
0.0112475
0.00427423
0.0111598
0.00431002
0.011097
0.00434181
0.0110545
0.00436747
0.0110246
0.00438365
0.0109968
0.00438576
0.0109589
0.00436829
0.0108978
0.00432544
0.0108011
0.00425188
0.0106584
0.00414363
0.0104617
0.00399867
0.0102059
0.00381738
0.00988809
0.00360258
0.00950673
0.00335931
0.00906094
0.00309459
0.00854976
0.00281699
0.00797188
0.00253615
0.00732592
0.00226209
0.00661076
0.00200432
0.00582616
0.00177049
0.00497549
0.00156486
0.00406096
0.00138484
0.00309179
0.00122186
0.00208172
0.00106137
0.00104634
0.000897346
0.000699196
0.0199985
2.15891e-05
0.0199939
6.47404e-05
0.0199864
0.000107869
0.0199757
0.000150987
0.019962
0.000194107
0.0199452
0.000237246
0.0199252
0.000280426
0.0199021
0.000323673
0.0198758
0.000367015
0.0198463
0.000410483
0.0198136
0.000454107
0.0197776
0.000497919
0.0197384
0.000541954
0.019696
0.000586245
0.0196502
0.000630827
0.0196012
0.000675737
0.0195489
0.000721013
0.0194933
0.000766695
0.0194343
0.000812822
0.019372
0.00085944
0.0193064
0.000906591
0.0192374
0.000954324
0.019165
0.00100269
0.0190893
0.00105173
0.0190101
0.0011015
0.0189276
0.00115206
0.0188417
0.00120346
0.0187523
0.00125575
0.0186595
0.001309
0.0185633
0.00136325
0.0184637
0.00141857
0.0183607
0.00147501
0.0182542
0.00153262
0.0181443
0.00159145
0.018031
0.00165155
0.0179143
0.00171297
0.0177943
0.00177574
0.0176709
0.00183989
0.0175441
0.00190545
0.0174141
0.00197245
0.0172808
0.00204087
0.0171442
0.00211073
0.0170045
0.00218201
0.0168616
0.00225469
0.0167156
0.00232872
0.0165664
0.00240407
0.0164143
0.00248067
0.0162591
0.00255844
0.0161009
0.00263731
0.0159398
0.00271718
0.0157758
0.00279794
0.0156089
0.0028795
0.0154392
0.00296172
0.0152667
0.00304449
0.0150914
0.00312767
0.0149133
0.00321114
0.0147325
0.00329473
0.014549
0.0033783
0.0143627
0.00346167
0.0141735
0.00354464
0.0139814
0.00362696
0.0137861
0.00370836
0.0135874
0.00378851
0.0133852
0.00386701
0.0131791
0.00394339
0.0129691
0.00401711
0.0127551
0.00408758
0.0125376
0.00415413
0.0123172
0.00421609
0.0120952
0.00427278
0.0118737
0.00432361
0.0116553
0.00436807
0.0114435
0.00440583
0.0112422
0.00443671
0.0110558
0.00446066
0.0108881
0.00447772
0.0107421
0.00448778
0.0106191
0.00449046
0.010518
0.00448481
0.0104346
0.00446913
0.0103619
0.00444094
0.0102903
0.00439708
0.0102081
0.00433407
0.010103
0.00424871
0.00996305
0.00413866
0.00977735
0.00400309
0.00953683
0.00384309
0.00923424
0.0036619
0.00886393
0.0034649
0.00842159
0.00325934
0.00790396
0.00305377
0.00730876
0.0028573
0.00663466
0.00267842
0.0058815
0.00252365
0.00505077
0.00239559
0.00414551
0.0022901
0.00317303
0.00219433
0.00214673
0.00208766
0.00108354
0.00196054
0.00178274
0.0199985
2.30963e-05
0.019994
6.92606e-05
0.0199864
0.00011541
0.0199759
0.000161565
0.0199622
0.00020774
0.0199455
0.000253956
0.0199257
0.000300234
0.0199028
0.000346599
0.0198767
0.000393078
0.0198475
0.0004397
0.0198151
0.000486495
0.0197795
0.000533493
0.0197408
0.000580728
0.0196988
0.000628233
0.0196536
0.000676042
0.0196051
0.000724192
0.0195534
0.000772718
0.0194984
0.000821662
0.0194402
0.000871064
0.0193787
0.000920966
0.0193138
0.000971413
0.0192457
0.00102245
0.0191743
0.00107413
0.0190995
0.0011265
0.0190214
0.00117961
0.0189399
0.00123351
0.0188551
0.00128827
0.018767
0.00134392
0.0186754
0.00140054
0.0185805
0.00145816
0.0184822
0.00151685
0.0183806
0.00157666
0.0182755
0.00163765
0.0181672
0.00169985
0.0180554
0.00176331
0.0179403
0.00182808
0.0178218
0.00189419
0.0177001
0.00196167
0.017575
0.00203054
0.0174466
0.00210081
0.017315
0.00217251
0.0171801
0.00224561
0.017042
0.0023201
0.0169007
0.00239597
0.0167563
0.00247317
0.0166087
0.00255165
0.016458
0.00263137
0.0163042
0.00271223
0.0161473
0.00279418
0.0159874
0.0028771
0.0158245
0.00296089
0.0156585
0.00304545
0.0154896
0.00313066
0.0153177
0.00321638
0.0151429
0.00330247
0.0149652
0.00338881
0.0147847
0.00347523
0.0146015
0.00356157
0.0144155
0.00364766
0.0142268
0.00373331
0.0140354
0.00381832
0.0138414
0.00390243
0.0136445
0.00398537
0.0134447
0.00406681
0.0132417
0.00414636
0.0130353
0.00422353
0.0128251
0.00429777
0.0126108
0.0043684
0.0123923
0.00443467
0.0121693
0.0044957
0.0119424
0.00455058
0.0117121
0.00459832
0.01148
0.00463798
0.011248
0.0046687
0.0110189
0.00468975
0.010796
0.00470062
0.0105828
0.00470097
0.0103826
0.00469067
0.0101978
0.00466963
0.0100292
0.00463774
0.00987543
0.00459468
0.00973267
0.00453984
0.00959441
0.00447233
0.00945194
0.00439118
0.009295
0.0042956
0.00911262
0.00418547
0.00889394
0.00406177
0.00862883
0.00392701
0.00830837
0.00378537
0.00792498
0.00364273
0.00747245
0.0035063
0.00694588
0.00338387
0.00634148
0.00328282
0.00565648
0.00320865
0.00488914
0.00316293
0.00403943
0.00313981
0.0031112
0.00312257
0.00211564
0.00308322
0.00107105
0.00300513
0.00285379
0.0199985
2.4593e-05
0.019994
7.37495e-05
0.0199865
0.000122898
0.019976
0.000172062
0.0199625
0.000221263
0.0199459
0.000270521
0.0199263
0.000319859
0.0199036
0.000369301
0.0198778
0.000418875
0.0198489
0.000468607
0.0198169
0.000518527
0.0197817
0.000568666
0.0197434
0.000619055
0.0197019
0.000669726
0.0196572
0.000720714
0.0196094
0.000772053
0.0195583
0.000823782
0.019504
0.000875939
0.0194465
0.000928564
0.0193858
0.0009817
0.0193218
0.00103539
0.0192546
0.00108969
0.0191841
0.00114463
0.0191103
0.00120027
0.0190332
0.00125667
0.0189529
0.00131387
0.0188692
0.00137192
0.0187823
0.00143088
0.018692
0.00149081
0.0185984
0.00155176
0.0185015
0.00161377
0.0184012
0.00167691
0.0182977
0.00174122
0.0181908
0.00180674
0.0180805
0.00187353
0.017967
0.00194162
0.0178502
0.00201103
0.01773
0.00208181
0.0176066
0.00215397
0.0174799
0.00222752
0.0173499
0.00230248
0.0172167
0.00237882
0.0170802
0.00245654
0.0169406
0.00253562
0.0167977
0.00261602
0.0166517
0.00269769
0.0165025
0.00278057
0.0163501
0.0028646
0.0161946
0.00294969
0.016036
0.00303575