/*--------------------------------*- C++ -*----------------------------------*\
| =========                 |                                                 |
| \\      /  F ield         | OpenFOAM: The Open Source CFD Toolbox           |
|  \\    /   O peration     | Version:  4.1                                   |
|   \\  /    A nd           | Web:      www.OpenFOAM.org                      |
|    \\/     M anipulation  |                                                 |
\*---------------------------------------------------------------------------*/
FoamFile
{
    version     2.0;
    format      ascii;
    class       surfaceScalarField;
    location    "80";
    object      phi;
}
// * * * * * * * * * * * * * * * * * * * * * * * * * * * * * * * * * * * * * //

dimensions      [0 3 -1 0 0 0 0];

internalField   nonuniform List<scalar> 
87025
(
1.89913e-05
1.00874e-06
1.72896e-05
1.7017e-06
1.54841e-05
1.80543e-06
1.37422e-05
1.7419e-06
1.21317e-05
1.61056e-06
1.07032e-05
1.42847e-06
9.47684e-06
1.22636e-06
8.44688e-06
1.02996e-06
7.59522e-06
8.51668e-07
6.89839e-06
6.96826e-07
6.33158e-06
5.6681e-07
5.87094e-06
4.60645e-07
5.49504e-06
3.75893e-07
5.1856e-06
3.09439e-07
4.92756e-06
2.58043e-07
4.7089e-06
2.18656e-07
4.52034e-06
1.88566e-07
4.35486e-06
1.65476e-07
4.20734e-06
1.47524e-07
4.07409e-06
1.33246e-07
3.95256e-06
1.21538e-07
3.84095e-06
1.11604e-07
3.73803e-06
1.02917e-07
3.64287e-06
9.51688e-08
3.55464e-06
8.82286e-08
3.47254e-06
8.20935e-08
3.39571e-06
7.68341e-08
3.32318e-06
7.25335e-08
3.25394e-06
6.92327e-08
3.18705e-06
6.68943e-08
3.12166e-06
6.53906e-08
3.05714e-06
6.45191e-08
2.9931e-06
6.40383e-08
2.92939e-06
6.37105e-08
2.86605e-06
6.33388e-08
2.80326e-06
6.27915e-08
2.74125e-06
6.2012e-08
2.68023e-06
6.10163e-08
2.62035e-06
5.988e-08
2.56164e-06
5.87164e-08
2.50398e-06
5.76501e-08
2.44719e-06
5.67915e-08
2.39098e-06
5.6217e-08
2.33502e-06
5.59576e-08
2.27902e-06
5.59984e-08
2.22273e-06
5.62879e-08
2.16598e-06
5.67539e-08
2.10866e-06
5.73211e-08
2.05073e-06
5.79246e-08
1.99222e-06
5.85171e-08
1.93315e-06
5.90692e-08
1.87358e-06
5.95659e-08
1.81358e-06
6.00009e-08
1.75321e-06
6.03724e-08
1.69253e-06
6.06797e-08
1.63161e-06
6.09219e-08
1.57051e-06
6.10976e-08
1.5093e-06
6.12045e-08
1.44806e-06
6.12398e-08
1.38686e-06
6.12006e-08
1.32578e-06
6.10832e-08
1.2649e-06
6.08842e-08
1.2043e-06
6.05995e-08
1.14407e-06
6.02253e-08
1.08431e-06
5.97578e-08
1.02512e-06
5.9193e-08
9.66593e-07
5.85273e-08
9.08835e-07
5.77572e-08
8.51956e-07
5.68796e-08
7.96064e-07
5.58915e-08
7.41274e-07
5.47907e-08
6.87698e-07
5.35754e-08
6.35454e-07
5.22446e-08
5.84656e-07
5.07979e-08
5.3542e-07
4.92359e-08
4.8786e-07
4.75603e-08
4.42086e-07
4.57738e-08
3.98205e-07
4.38804e-08
3.5632e-07
4.18858e-08
3.16523e-07
3.97969e-08
2.789e-07
3.76225e-08
2.43527e-07
3.53733e-08
2.10465e-07
3.3062e-08
1.79761e-07
3.07035e-08
1.51446e-07
2.83148e-08
1.25531e-07
2.59159e-08
1.02001e-07
2.35293e-08
8.08202e-08
2.1181e-08
6.19191e-08
1.89011e-08
4.51935e-08
1.67256e-08
3.04934e-08
1.47001e-08
1.76062e-08
1.28872e-08
6.22716e-09
1.13791e-08
-4.08823e-09
1.03154e-08
-1.39542e-08
9.86594e-09
-2.39185e-08
9.96438e-09
-3.32918e-08
9.37322e-09
-3.7548e-08
4.25625e-09
-2.63001e-08
-1.12479e-08
-2.63001e-08
2.06192e-05
3.89523e-07
2.12423e-05
1.07866e-06
2.15564e-05
1.49126e-06
2.15684e-05
1.72994e-06
2.13199e-05
1.8591e-06
2.08633e-05
1.88506e-06
2.02621e-05
1.82748e-06
1.95741e-05
1.71798e-06
1.88439e-05
1.58191e-06
1.81047e-05
1.43598e-06
1.73802e-05
1.29135e-06
1.66856e-05
1.15527e-06
1.60297e-05
1.03178e-06
1.54168e-05
9.22339e-07
1.4848e-05
8.26801e-07
1.43226e-05
7.44062e-07
1.38386e-05
6.72564e-07
1.33935e-05
6.10593e-07
1.29845e-05
5.5653e-07
1.26088e-05
5.08931e-07
1.22638e-05
4.66596e-07
1.19468e-05
4.28609e-07
1.16553e-05
3.94348e-07
1.1387e-05
3.63474e-07
1.11393e-05
3.35902e-07
1.09097e-05
3.11731e-07
1.06954e-05
2.9115e-07
1.04936e-05
2.7432e-07
1.03016e-05
2.61252e-07
1.01168e-05
2.51724e-07
9.9369e-06
2.45247e-07
9.76033e-06
2.4109e-07
9.586e-06
2.38364e-07
9.41355e-06
2.36158e-07
9.24321e-06
2.33682e-07
9.0756e-06
2.30403e-07
8.91149e-06
2.26117e-07
8.75155e-06
2.20963e-07
8.59608e-06
2.15345e-07
8.44498e-06
2.09816e-07
8.2977e-06
2.04927e-07
8.15338e-06
2.01112e-07
8.011e-06
1.98603e-07
7.86953e-06
1.97423e-07
7.72811e-06
1.97417e-07
7.58608e-06
1.98326e-07
7.44297e-06
1.99858e-07
7.29854e-06
2.0175e-07
7.15267e-06
2.03799e-07
7.00531e-06
2.05873e-07
6.85648e-06
2.07897e-07
6.70621e-06
2.09835e-07
6.55454e-06
2.11675e-07
6.4015e-06
2.1341e-07
6.24715e-06
2.15036e-07
6.09152e-06
2.16547e-07
5.93469e-06
2.17934e-07
5.7767e-06
2.19187e-07
5.61765e-06
2.20297e-07
5.4576e-06
2.21249e-07
5.29665e-06
2.22033e-07
5.1349e-06
2.22633e-07
4.97246e-06
2.23038e-07
4.80945e-06
2.23231e-07
4.64601e-06
2.232e-07
4.48227e-06
2.2293e-07
4.31839e-06
2.22408e-07
4.15453e-06
2.2162e-07
3.99086e-06
2.20553e-07
3.82755e-06
2.19197e-07
3.6648e-06
2.1754e-07
3.5028e-06
2.15574e-07
3.34176e-06
2.13293e-07
3.18186e-06
2.1069e-07
3.02333e-06
2.07765e-07
2.86638e-06
2.04518e-07
2.7112e-06
2.00953e-07
2.558e-06
1.97077e-07
2.40698e-06
1.92902e-07
2.25834e-06
1.88446e-07
2.11223e-06
1.83728e-07
1.96883e-06
1.78775e-07
1.82827e-06
1.7362e-07
1.69068e-06
1.68299e-07
1.55613e-06
1.62859e-07
1.4247e-06
1.57349e-07
1.2964e-06
1.51828e-07
1.17122e-06
1.46363e-07
1.04909e-06
1.4103e-07
9.29896e-07
1.35918e-07
8.13462e-07
1.31134e-07
6.99534e-07
1.26816e-07
5.87765e-07
1.23148e-07
4.77701e-07
1.2038e-07
3.68837e-07
1.1873e-07
2.61082e-07
1.17719e-07
1.56701e-07
1.13754e-07
6.5303e-08
9.56547e-08
7.5772e-09
4.64779e-08
-1.87229e-08
2.01349e-05
2.54656e-07
2.05113e-05
7.02209e-07
2.09623e-05
1.04029e-06
2.14124e-05
1.27979e-06
2.18143e-05
1.45721e-06
2.21212e-05
1.57818e-06
2.23086e-05
1.64009e-06
2.23751e-05
1.65146e-06
2.23315e-05
1.62554e-06
2.21936e-05
1.57382e-06
2.19794e-05
1.50553e-06
2.17064e-05
1.42827e-06
2.13904e-05
1.34784e-06
2.10446e-05
1.26816e-06
2.06798e-05
1.19155e-06
2.03047e-05
1.11918e-06
1.99258e-05
1.05141e-06
1.95483e-05
9.88138e-07
1.91758e-05
9.29014e-07
1.88111e-05
8.73609e-07
1.84562e-05
8.21538e-07
1.81123e-05
7.72543e-07
1.77801e-05
7.26553e-07
1.74598e-05
6.83692e-07
1.71515e-05
6.44276e-07
1.68544e-05
6.08754e-07
1.6568e-05
5.7763e-07
1.62909e-05
5.51349e-07
1.6022e-05
5.30185e-07
1.57596e-05
5.14136e-07
1.5502e-05
5.02859e-07
1.52474e-05
4.95637e-07
1.49944e-05
4.91409e-07
1.47417e-05
4.8884e-07
1.44889e-05
4.86463e-07
1.42364e-05
4.82878e-07
1.39856e-05
4.77001e-07
1.37382e-05
4.68299e-07
1.34966e-05
4.56955e-07
1.32626e-05
4.4385e-07
1.30371e-05
4.30363e-07
1.28203e-05
4.18006e-07
1.26108e-05
4.08039e-07
1.2407e-05
4.01188e-07
1.22069e-05
3.97553e-07
1.20085e-05
3.96719e-07
1.18104e-05
3.97983e-07
1.16115e-05
4.00597e-07
1.14114e-05
4.03945e-07
1.12097e-05
4.07617e-07
1.10062e-05
4.11386e-07
1.08008e-05
4.15158e-07
1.05936e-05
4.18901e-07
1.03844e-05
4.22604e-07
1.01732e-05
4.26258e-07
9.95991e-06
4.29846e-07
9.74449e-06
4.33345e-07
9.52695e-06
4.36733e-07
9.30726e-06
4.39985e-07
9.08543e-06
4.43075e-07
8.86149e-06
4.45978e-07
8.63546e-06
4.48666e-07
8.40738e-06
4.51112e-07
8.17733e-06
4.53288e-07
7.94536e-06
4.55167e-07
7.71157e-06
4.5672e-07
7.47606e-06
4.57919e-07
7.23894e-06
4.58737e-07
7.00035e-06
4.59148e-07
6.76042e-06
4.59126e-07
6.51931e-06
4.58649e-07
6.27719e-06
4.57695e-07
6.03423e-06
4.56245e-07
5.79064e-06
4.54285e-07
5.5466e-06
4.51804e-07
5.30233e-06
4.48794e-07
5.05802e-06
4.45254e-07
4.81391e-06
4.41189e-07
4.57021e-06
4.3661e-07
4.32712e-06
4.31535e-07
4.08485e-06
4.25991e-07
3.84361e-06
4.20014e-07
3.60359e-06
4.13648e-07
3.36494e-06
4.06947e-07
3.12782e-06
3.99977e-07
2.89235e-06
3.92814e-07
2.65864e-06
3.85544e-07
2.42673e-06
3.7827e-07
2.19666e-06
3.71104e-07
1.96839e-06
3.6418e-07
1.74188e-06
3.5765e-07
1.51699e-06
3.517e-07
1.29359e-06
3.46557e-07
1.07147e-06
3.42491e-07
8.50555e-07
3.39649e-07
6.31256e-07
3.37018e-07
4.1643e-07
3.28579e-07
2.17068e-07
2.95017e-07
6.22236e-08
2.01323e-07
4.35007e-08
2.00747e-05
1.79987e-07
2.02528e-05
5.24091e-07
2.04863e-05
8.06758e-07
2.07485e-05
1.01765e-06
2.1032e-05
1.17366e-06
2.13227e-05
1.28751e-06
2.15998e-05
1.36294e-06
2.18463e-05
1.40495e-06
2.20509e-05
1.42102e-06
2.22068e-05
1.41783e-06
2.23119e-05
1.40048e-06
2.23671e-05
1.37312e-06
2.23757e-05
1.33923e-06
2.23423e-05
1.3015e-06
2.22721e-05
1.2618e-06
2.21699e-05
1.22132e-06
2.20406e-05
1.18075e-06
2.18883e-05
1.14046e-06
2.17167e-05
1.10061e-06
2.1529e-05
1.06126e-06
2.13281e-05
1.02248e-06
2.11162e-05
9.8442e-07
2.08954e-05
9.47365e-07
2.06673e-05
9.11745e-07
2.04335e-05
8.78134e-07
2.0195e-05
8.47214e-07
1.99529e-05
8.19702e-07
1.9708e-05
7.96269e-07
1.94608e-05
7.77434e-07
1.92114e-05
7.63491e-07
1.89598e-05
7.54444e-07
1.87055e-05
7.49979e-07
1.84475e-05
7.49446e-07
1.81845e-05
7.51837e-07
1.79152e-05
7.55764e-07
1.76386e-05
7.5946e-07
1.73547e-05
7.60921e-07
1.70647e-05
7.58215e-07
1.67717e-05
7.49977e-07
1.64797e-05
7.3591e-07
1.6193e-05
7.17058e-07
1.59153e-05
6.95646e-07
1.56489e-05
6.74506e-07
1.53938e-05
6.56282e-07
1.51486e-05
6.42743e-07
1.49108e-05
6.34476e-07
1.46778e-05
6.3101e-07
1.44471e-05
6.31241e-07
1.42172e-05
6.33921e-07
1.39868e-05
6.38016e-07
1.37553e-05
6.42844e-07
1.35224e-05
6.48051e-07
1.32878e-05
6.53489e-07
1.30513e-05
6.59105e-07
1.28127e-05
6.64872e-07
1.25718e-05
6.70756e-07
1.23284e-05
6.76716e-07
1.20825e-05
6.82706e-07
1.18338e-05
6.88681e-07
1.15822e-05
6.94598e-07
1.13278e-05
7.00412e-07
1.10704e-05
7.06082e-07
1.08099e-05
7.11565e-07
1.05464e-05
7.16818e-07
1.02798e-05
7.21797e-07
1.001e-05
7.2646e-07
9.73719e-06
7.30763e-07
9.46126e-06
7.34665e-07
9.18229e-06
7.38123e-07
8.90032e-06
7.41097e-07
8.61542e-06
7.43548e-07
8.32768e-06
7.45439e-07
8.03718e-06
7.46738e-07
7.74405e-06
7.47414e-07
7.44842e-06
7.47442e-07
7.15041e-06
7.46802e-07
6.85018e-06
7.4548e-07
6.5479e-06
7.4347e-07
6.24374e-06
7.40773e-07
5.93787e-06
7.37401e-07
5.63049e-06
7.33374e-07
5.32178e-06
7.28726e-07
5.01192e-06
7.235e-07
4.70112e-06
7.17754e-07
4.38954e-06
7.11558e-07
4.07735e-06
7.04999e-07
3.76472e-06
6.98176e-07
3.45178e-06
6.91206e-07
3.13867e-06
6.84222e-07
2.82547e-06
6.77374e-07
2.51229e-06
6.70836e-07
2.19918e-06
6.64805e-07
1.88623e-06
6.59505e-07
1.57355e-06
6.5517e-07
1.26138e-06
6.51824e-07
9.50425e-07
6.47971e-07
6.43672e-07
6.35332e-07
3.52794e-07
5.85895e-07
1.12997e-07
4.4112e-07
1.56498e-07
2.00412e-05
1.38783e-07
2.0152e-05
4.13303e-07
2.03055e-05
6.53261e-07
2.04785e-05
8.44625e-07
2.0661e-05
9.91201e-07
2.08474e-05
1.10107e-06
2.10314e-05
1.17893e-06
2.12073e-05
1.22907e-06
2.13711e-05
1.25725e-06
2.15197e-05
1.26923e-06
2.16506e-05
1.26956e-06
2.1762e-05
1.26173e-06
2.18528e-05
1.24843e-06
2.19226e-05
1.23171e-06
2.19714e-05
1.21297e-06
2.19997e-05
1.19309e-06
2.20079e-05
1.17256e-06
2.19967e-05
1.15164e-06
2.19669e-05
1.13043e-06
2.19192e-05
1.10897e-06
2.18543e-05
1.08733e-06
2.17731e-05
1.06566e-06
2.16762e-05
1.0442e-06
2.15646e-05
1.02334e-06
2.14392e-05
1.00359e-06
2.13008e-05
9.8558e-07
2.11505e-05
9.69968e-07
2.09894e-05
9.57411e-07
2.08184e-05
9.48474e-07
2.06383e-05
9.43579e-07
2.04497e-05
9.42975e-07
2.0253e-05
9.46733e-07
2.00477e-05
9.54759e-07
1.98328e-05
9.66728e-07
1.96066e-05
9.81934e-07
1.9367e-05
9.99031e-07
1.91121e-05
1.01582e-06
1.8841e-05
1.02933e-06
1.85547e-05
1.03627e-06
1.82566e-05
1.03402e-06
1.79521e-05
1.02158e-06
1.76476e-05
1.00018e-06
1.7349e-05
9.73122e-07
1.70604e-05
9.44824e-07
1.67837e-05
9.19493e-07
1.65181e-05
9.00022e-07
1.62616e-05
8.87497e-07
1.60115e-05
8.81414e-07
1.5765e-05
8.80352e-07
1.55204e-05
8.82691e-07
1.52761e-05
8.87112e-07
1.50314e-05
8.92766e-07
1.47857e-05
8.9921e-07
1.45385e-05
9.06245e-07
1.42896e-05
9.13776e-07
1.40386e-05
9.21736e-07
1.37853e-05
9.30052e-07
1.35293e-05
9.38651e-07
1.32706e-05
9.47458e-07
1.30088e-05
9.56406e-07
1.27437e-05
9.65431e-07
1.24754e-05
9.74472e-07
1.22034e-05
9.83471e-07
1.19279e-05
9.92368e-07
1.16486e-05
1.00111e-06
1.13654e-05
1.00963e-06
1.10783e-05
1.01788e-06
1.07872e-05
1.0258e-06
1.0492e-05
1.03333e-06
1.01926e-05
1.04042e-06
9.88917e-06
1.04702e-06
9.58154e-06
1.05307e-06
9.26975e-06
1.05853e-06
8.95382e-06
1.06334e-06
8.63378e-06
1.06748e-06
8.30969e-06
1.0709e-06
7.9816e-06
1.07357e-06
7.64961e-06
1.07547e-06
7.3138e-06
1.07658e-06
6.97429e-06
1.07691e-06
6.63121e-06
1.07646e-06
6.28469e-06
1.07524e-06
5.9349e-06
1.0733e-06
5.58198e-06
1.07067e-06
5.22612e-06
1.06742e-06
4.86749e-06
1.06363e-06
4.50628e-06
1.05939e-06
4.14267e-06
1.05481e-06
3.77688e-06
1.05002e-06
3.40908e-06
1.04517e-06
3.0395e-06
1.04042e-06
2.66834e-06
1.03596e-06
2.29588e-06
1.03197e-06
1.92243e-06
1.02862e-06
1.54842e-06
1.02583e-06
1.17473e-06
1.02166e-06
8.04403e-07
1.00566e-06
4.49692e-07
9.40606e-07
1.50175e-07
7.40636e-07
3.06673e-07
2.00256e-05
1.13152e-07
2.01009e-05
3.38065e-07
2.02118e-05
5.42324e-07
2.03419e-05
7.14514e-07
2.04798e-05
8.53319e-07
2.06185e-05
9.62351e-07
2.07526e-05
1.04485e-06
2.0878e-05
1.10369e-06
2.09925e-05
1.14271e-06
2.10955e-05
1.16624e-06
2.11869e-05
1.17819e-06
2.12668e-05
1.18175e-06
2.13358e-05
1.17949e-06
2.13941e-05
1.17342e-06
2.1442e-05
1.16503e-06
2.14798e-05
1.15533e-06
2.15074e-05
1.14497e-06
2.15247e-05
1.13432e-06
2.15315e-05
1.1236e-06
2.15275e-05
1.11295e-06
2.15124e-05
1.10246e-06
2.14858e-05
1.09226e-06
2.14474e-05
1.08255e-06
2.13972e-05
1.07361e-06
2.13349e-05
1.06583e-06
2.12609e-05
1.05966e-06
2.11752e-05
1.0556e-06
2.10785e-05
1.05416e-06
2.09711e-05
1.05582e-06
2.08537e-05
1.06095e-06
2.07268e-05
1.06988e-06
2.05907e-05
1.08292e-06
2.0445e-05
1.1004e-06
2.02891e-05
1.12268e-06
2.01211e-05
1.14994e-06
1.99384e-05
1.18172e-06
1.97379e-05
1.21633e-06
1.95167e-05
1.25048e-06
1.92735e-05
1.27953e-06
1.9009e-05
1.29844e-06
1.87272e-05
1.30339e-06
1.84342e-05
1.29326e-06
1.8137e-05
1.27026e-06
1.78425e-05
1.23936e-06
1.75553e-05
1.20667e-06
1.72777e-05
1.17761e-06
1.70096e-05
1.15559e-06
1.67494e-05
1.14164e-06
1.64948e-05
1.13497e-06
1.62436e-05
1.13386e-06
1.59942e-05
1.13654e-06
1.57453e-05
1.14166e-06
1.54961e-05
1.1484e-06
1.5246e-05
1.15633e-06
1.49946e-05
1.16522e-06
1.47414e-05
1.17494e-06
1.4486e-05
1.18538e-06
1.42283e-05
1.19642e-06
1.39678e-05
1.20795e-06
1.37043e-05
1.21989e-06
1.34376e-05
1.23215e-06
1.31674e-05
1.24464e-06
1.28936e-05
1.25729e-06
1.26159e-05
1.27003e-06
1.23343e-05
1.28278e-06
1.20484e-05
1.29548e-06
1.17582e-05
1.30805e-06
1.14636e-05
1.32043e-06
1.11644e-05
1.33255e-06
1.08605e-05
1.34434e-06
1.05517e-05
1.35574e-06
1.02381e-05
1.36668e-06
9.91956e-06
1.3771e-06
9.59597e-06
1.38693e-06
9.26732e-06
1.39613e-06
8.93357e-06
1.40464e-06
8.59471e-06
1.41242e-06
8.25076e-06
1.41942e-06
7.90172e-06
1.42562e-06
7.54764e-06
1.43099e-06
7.18858e-06
1.43552e-06
6.82461e-06
1.4392e-06
6.45585e-06
1.44206e-06
6.0824e-06
1.44412e-06
5.70441e-06
1.44541e-06
5.32204e-06
1.446e-06
4.93547e-06
1.44596e-06
4.5449e-06
1.44538e-06
4.15055e-06
1.44437e-06
3.75268e-06
1.44304e-06
3.35156e-06
1.44154e-06
2.94751e-06
1.44001e-06
2.54089e-06
1.43859e-06
2.13212e-06
1.43739e-06
1.72174e-06
1.43621e-06
1.31068e-06
1.43273e-06
9.02077e-07
1.41427e-06
5.0874e-07
1.33394e-06
1.73115e-07
1.07626e-06
4.79789e-07
2.00179e-05
9.5213e-08
2.00712e-05
2.84758e-07
2.01524e-05
4.6112e-07
2.02511e-05
6.15823e-07
2.03585e-05
7.45924e-07
2.04684e-05
8.52475e-07
2.05758e-05
9.37434e-07
2.06767e-05
1.00279e-06
2.07684e-05
1.05105e-06
2.08494e-05
1.08523e-06
2.09193e-05
1.10829e-06
2.09782e-05
1.12281e-06
2.10267e-05
1.13098e-06
2.10655e-05
1.13462e-06
2.10954e-05
1.13516e-06
2.11171e-05
1.13369e-06
2.1131e-05
1.13102e-06
2.11376e-05
1.12769e-06
2.11371e-05
1.12411e-06
2.11295e-05
1.12057e-06
2.11147e-05
1.11731e-06
2.10924e-05
1.11456e-06
2.10624e-05
1.11255e-06
2.10244e-05
1.11158e-06
2.09783e-05
1.11197e-06
2.09238e-05
1.1141e-06
2.0861e-05
1.11837e-06
2.079e-05
1.12518e-06
2.0711e-05
1.13489e-06
2.06241e-05
1.14784e-06
2.05296e-05
1.16434e-06
2.04277e-05
1.18482e-06
2.03182e-05
1.20993e-06
2.02003e-05
1.24058e-06
2.00725e-05
1.27777e-06
1.99322e-05
1.32199e-06
1.97761e-05
1.3724e-06
1.96006e-05
1.42597e-06
1.94028e-05
1.47738e-06
1.91814e-05
1.51984e-06
1.89378e-05
1.54696e-06
1.86761e-05
1.55492e-06
1.84025e-05
1.54395e-06
1.81234e-05
1.51838e-06
1.78449e-05
1.48516e-06
1.7571e-05
1.45157e-06
1.73034e-05
1.42319e-06
1.70421e-05
1.4029e-06
1.67861e-05
1.39102e-06
1.65337e-05
1.38627e-06
1.62834e-05
1.38681e-06
1.6034e-05
1.391e-06
1.57847e-05
1.39771e-06
1.55348e-05
1.40627e-06
1.52837e-05
1.41631e-06
1.5031e-05
1.42763e-06
1.47764e-05
1.44004e-06
1.45194e-05
1.45341e-06
1.42597e-05
1.46759e-06
1.39972e-05
1.48246e-06
1.37314e-05
1.49791e-06
1.34622e-05
1.51384e-06
1.31893e-05
1.53016e-06
1.29126e-05
1.54678e-06
1.26317e-05
1.56362e-06
1.23466e-05
1.58059e-06
1.20571e-05
1.59762e-06
1.17629e-05
1.61463e-06
1.14639e-05
1.63153e-06
1.116e-05
1.64826e-06
1.0851e-05
1.66474e-06
1.05367e-05
1.68089e-06
1.02172e-05
1.69664e-06
9.89223e-06
1.71191e-06
9.56172e-06
1.72664e-06
9.2256e-06
1.74076e-06
8.8838e-06
1.75422e-06
8.53628e-06
1.76695e-06
8.183e-06
1.7789e-06
7.82395e-06
1.79004e-06
7.45914e-06
1.80033e-06
7.08859e-06
1.80975e-06
6.71236e-06
1.81829e-06
6.33053e-06
1.82595e-06
5.9432e-06
1.83274e-06
5.55051e-06
1.83869e-06
5.15261e-06
1.84386e-06
4.74971e-06
1.84829e-06
4.34202e-06
1.85205e-06
3.92982e-06
1.85524e-06
3.51341e-06
1.85795e-06
3.09314e-06
1.86028e-06
2.66941e-06
1.86231e-06
2.24269e-06
1.86411e-06
1.81354e-06
1.86537e-06
1.38289e-06
1.86337e-06
9.53984e-07
1.84317e-06
5.40079e-07
1.74785e-06
1.85349e-07
1.43099e-06
6.65138e-07
2.0013e-05
8.2197e-08
2.00518e-05
2.46011e-07
2.0112e-05
4.00862e-07
2.01873e-05
5.40558e-07
2.02712e-05
6.62027e-07
2.03586e-05
7.6504e-07
2.04455e-05
8.50576e-07
2.05283e-05
9.19949e-07
2.06045e-05
9.7485e-07
2.06724e-05
1.01737e-06
2.0731e-05
1.04969e-06
2.078e-05
1.07385e-06
2.08193e-05
1.09164e-06
2.08493e-05
1.10458e-06
2.08705e-05
1.11396e-06
2.08834e-05
1.1208e-06
2.08885e-05
1.12591e-06
2.08863e-05
1.12991e-06
2.08771e-05
1.1333e-06
2.08612e-05
1.13646e-06
2.08388e-05
1.13973e-06
2.08099e-05
1.14342e-06
2.07747e-05
1.14783e-06
2.0733e-05
1.15328e-06
2.06848e-05
1.16009e-06
2.06303e-05
1.16863e-06
2.05694e-05
1.17925e-06
2.05023e-05
1.1923e-06
2.04291e-05
1.2081e-06
2.035e-05
1.22694e-06
2.02652e-05
1.24916e-06
2.01747e-05
1.27527e-06
2.00785e-05
1.30616e-06
1.99759e-05
1.3432e-06
1.98656e-05
1.38804e-06
1.97456e-05
1.442e-06
1.9613e-05
1.50501e-06
1.94644e-05
1.57454e-06
1.92967e-05
1.64506e-06
1.91079e-05
1.70873e-06
1.88975e-05
1.7573e-06
1.86677e-05
1.7847e-06
1.84225e-05
1.78915e-06
1.81671e-05
1.77379e-06
1.79068e-05
1.74552e-06
1.76457e-05
1.7126e-06
1.73868e-05
1.68214e-06
1.71311e-05
1.65859e-06
1.68786e-05
1.64347e-06
1.66287e-05
1.6362e-06
1.63803e-05
1.63517e-06
1.61326e-05
1.6387e-06
1.58848e-05
1.64552e-06
1.56363e-05
1.65479e-06
1.53866e-05
1.66605e-06
1.51352e-05
1.679e-06
1.48818e-05
1.69343e-06
1.46261e-05
1.70914e-06
1.43677e-05
1.72598e-06
1.41064e-05
1.7438e-06
1.38418e-05
1.76246e-06
1.35738e-05
1.78184e-06
1.33021e-05
1.80185e-06
1.30265e-05
1.82238e-06
1.27468e-05
1.84334e-06
1.24628e-05
1.86463e-06
1.21742e-05
1.88617e-06
1.1881e-05
1.90788e-06
1.15828e-05
1.92965e-06
1.12797e-05
1.95142e-06
1.09713e-05
1.97309e-06
1.06576e-05
1.99458e-06
1.03385e-05
2.01581e-06
1.00137e-05
2.03669e-06
9.68316e-06
2.05715e-06
9.34681e-06
2.07711e-06
9.00455e-06
2.09648e-06
8.65628e-06
2.11521e-06
8.30196e-06
2.13323e-06
7.94153e-06
2.15047e-06
7.57499e-06
2.16688e-06
7.20232e-06
2.18242e-06
6.82356e-06
2.19705e-06
6.43876e-06
2.21075e-06
6.048e-06
2.2235e-06
5.65139e-06
2.2353e-06
5.24908e-06
2.24617e-06
4.84125e-06
2.25612e-06
4.42813e-06
2.26518e-06
4.00997e-06
2.2734e-06
3.58709e-06
2.28083e-06
3.15984e-06
2.28752e-06
2.72864e-06
2.29351e-06
2.29395e-06
2.2988e-06
1.8563e-06
2.30302e-06
1.41665e-06
2.30303e-06
9.78265e-07
2.28155e-06
5.54716e-07
2.1714e-06
1.91077e-07
1.79463e-06
8.56215e-07
2.00097e-05
7.25377e-08
2.00385e-05
2.17169e-07
2.0084e-05
3.55396e-07
2.01419e-05
4.82674e-07
2.02076e-05
5.96307e-07
2.02771e-05
6.9552e-07
2.0347e-05
7.80621e-07
2.04146e-05
8.52386e-07
2.04775e-05
9.11939e-07
2.05342e-05
9.60733e-07
2.05835e-05
1.00038e-06
2.06248e-05
1.03248e-06
2.0658e-05
1.05846e-06
2.0683e-05
1.07962e-06
2.06998e-05
1.09707e-06
2.07089e-05
1.11172e-06
2.07105e-05
1.12436e-06
2.07048e-05
1.1356e-06
2.06921e-05
1.14596e-06
2.06727e-05
1.15586e-06
2.06468e-05
1.16568e-06
2.06144e-05
1.17576e-06
2.05758e-05
1.18643e-06
2.05311e-05
1.19803e-06
2.04803e-05
1.21087e-06
2.04236e-05
1.22531e-06
2.03612e-05
1.24168e-06
2.02932e-05
1.2603e-06
2.02198e-05
1.28146e-06
2.01413e-05
1.30545e-06
2.00579e-05
1.33262e-06
1.99696e-05
1.36358e-06
1.98763e-05
1.39944e-06
1.97775e-05
1.44194e-06
1.96723e-05
1.4933e-06
1.95588e-05
1.55545e-06
1.94349e-05
1.62892e-06
1.92979e-05
1.71155e-06
1.91452e-05
1.79777e-06
1.89748e-05
1.87912e-06
1.8786e-05
1.94616e-06
1.85794e-05
1.99126e-06
1.83575e-05
2.01104e-06
1.81238e-05
2.00749e-06
1.78822e-05
1.98708e-06
1.76365e-05
1.95838e-06
1.73892e-05
1.92939e-06
1.71422e-05
1.90562e-06
1.6896e-05
1.88962e-06
1.66508e-05
1.88147e-06
1.6406e-05
1.87996e-06
1.61611e-05
1.88354e-06
1.59157e-05
1.89093e-06
1.56693e-05
1.90125e-06
1.54213e-05
1.91398e-06
1.51716e-05
1.92877e-06
1.49196e-05
1.94536e-06
1.46652e-05
1.96356e-06
1.4408e-05
1.98317e-06
1.41478e-05
2.00402e-06
1.38843e-05
2.02597e-06
1.36173e-05
2.04889e-06
1.33465e-05
2.07265e-06
1.30717e-05
2.09716e-06
1.27927e-05
2.1223e-06
1.25094e-05
2.14798e-06
1.22215e-05
2.17409e-06
1.19288e-05
2.20056e-06
1.16312e-05
2.22727e-06
1.13284e-05
2.25414e-06
1.10205e-05
2.28108e-06
1.0707e-05
2.30799e-06
1.03881e-05
2.33479e-06
1.00634e-05
2.36137e-06
9.73289e-06
2.38765e-06
9.39646e-06
2.41354e-06
9.05399e-06
2.43895e-06
8.7054e-06
2.4638e-06
8.35063e-06
2.488e-06
7.98963e-06
2.51147e-06
7.62235e-06
2.53415e-06
7.24881e-06
2.55596e-06
6.86901e-06
2.57685e-06
6.483e-06
2.59676e-06
6.09085e-06
2.61565e-06
5.69267e-06
2.63348e-06
5.2886e-06
2.65024e-06
4.87882e-06
2.6659e-06
4.46354e-06
2.68046e-06
4.04303e-06
2.69391e-06
3.6176e-06
2.70626e-06
3.1876e-06
2.71752e-06
2.75343e-06
2.72768e-06
2.31554e-06
2.73669e-06
1.87445e-06
2.74411e-06
1.43108e-06
2.7464e-06
9.88741e-07
2.72389e-06
5.61102e-07
2.59904e-06
1.93618e-07
2.16211e-06
1.04983e-06
2.00073e-05
6.52293e-08
2.00292e-05
1.95312e-07
2.00639e-05
3.20649e-07
2.01087e-05
4.37857e-07
2.01603e-05
5.44702e-07
2.02156e-05
6.40242e-07
2.02718e-05
7.24389e-07
2.03267e-05
7.97533e-07
2.03782e-05
8.60396e-07
2.0425e-05
9.13983e-07
2.04659e-05
9.59476e-07
2.05003e-05
9.98093e-07
2.05277e-05
1.031e-06
2.05481e-05
1.05926e-06
2.05613e-05
1.08384e-06
2.05675e-05
1.10555e-06
2.05667e-05
1.12512e-06
2.05592e-05
1.14313e-06
2.05451e-05
1.1601e-06
2.05245e-05
1.17646e-06
2.04975e-05
1.19262e-06
2.04644e-05
1.20891e-06
2.04251e-05
1.22568e-06
2.03799e-05
1.24325e-06
2.03288e-05
1.26195e-06
2.0272e-05
1.28211e-06
2.02097e-05
1.30403e-06
2.01419e-05
1.32803e-06
2.0069e-05
1.35436e-06
1.99912e-05
1.3833e-06
1.99086e-05
1.41524e-06
1.98213e-05
1.45087e-06
1.97292e-05
1.49154e-06
1.96318e-05
1.53935e-06
1.95281e-05
1.59695e-06
1.94168e-05
1.66681e-06
1.92958e-05
1.74986e-06
1.91632e-05
1.84413e-06
1.90171e-05
1.94394e-06
1.88558e-05
2.04034e-06
1.86789e-05
2.12307e-06
1.84867e-05
2.18346e-06
1.82807e-05
2.21708e-06
1.80631e-05
2.22505e-06
1.78368e-05
2.21339e-06
1.76045e-05
2.19068e-06
1.73685e-05
2.16535e-06
1.71306e-05
2.14361e-06
1.68915e-05
2.12866e-06
1.66518e-05
2.12119e-06
1.64114e-05
2.12035e-06
1.61701e-05
2.12482e-06
1.59277e-05
2.1334e-06
1.56837e-05
2.14523e-06
1.54379e-05
2.15977e-06
1.519e-05
2.17668e-06
1.49397e-05
2.19568e-06
1.46867e-05
2.21655e-06
1.44308e-05
2.23909e-06
1.41717e-05
2.26312e-06
1.39091e-05
2.28848e-06
1.3643e-05
2.31505e-06
1.3373e-05
2.34268e-06
1.30989e-05
2.37125e-06
1.28205e-05
2.40067e-06
1.25376e-05
2.43083e-06
1.22501e-05
2.46161e-06
1.19578e-05
2.49291e-06
1.16604e-05
2.52465e-06
1.13578e-05
2.55671e-06
1.10499e-05
2.58901e-06
1.07365e-05
2.62142e-06
1.04174e-05
2.65387e-06
1.00925e-05
2.68623e-06
9.76175e-06
2.71842e-06
9.42496e-06
2.75033e-06
9.08206e-06
2.78186e-06
8.73295e-06
2.8129e-06
8.37758e-06
2.84337e-06
8.0159e-06
2.87316e-06
7.64787e-06
2.90217e-06
7.2735e-06
2.93033e-06
6.89281e-06
2.95754e-06
6.50583e-06
2.98373e-06
6.11266e-06
3.00882e-06
5.7134e-06
3.03274e-06
5.3082e-06
3.05544e-06
4.89723e-06
3.07686e-06
4.48073e-06
3.09696e-06
4.05896e-06
3.11569e-06
3.63221e-06
3.13301e-06
3.20086e-06
3.14888e-06
2.76528e-06
3.16326e-06
2.32591e-06
3.17606e-06
1.88326e-06
3.18676e-06
1.43823e-06
3.19142e-06
9.94115e-07
3.16801e-06
5.6455e-07
3.0286e-06
1.95063e-07
2.5316e-06
1.2449e-06
2.00056e-05
5.9628e-08
2.00224e-05
1.7855e-07
2.00492e-05
2.93854e-07
2.0084e-05
4.02975e-07
2.01246e-05
5.04104e-07
2.01686e-05
5.96305e-07
2.02137e-05
6.79294e-07
2.0258e-05
7.53201e-07
2.02999e-05
8.18466e-07
2.03381e-05
8.75777e-07
2.03716e-05
9.25988e-07
2.03997e-05
9.70029e-07
2.04219e-05
1.00883e-06
2.04379e-05
1.04326e-06
2.04476e-05
1.07414e-06
2.04509e-05
1.10219e-06
2.0448e-05
1.12806e-06
2.04388e-05
1.15231e-06
2.04235e-05
1.17544e-06
2.04021e-05
1.19786e-06
2.03747e-05
1.21999e-06
2.03414e-05
1.24216e-06
2.03024e-05
1.26472e-06
2.02577e-05
1.28799e-06
2.02073e-05
1.31228e-06
2.01515e-05
1.33791e-06
2.00904e-05
1.36517e-06
2.00241e-05
1.39435e-06
1.99527e-05
1.4257e-06
1.98766e-05
1.45947e-06
1.97957e-05
1.49608e-06
1.97103e-05
1.53633e-06
1.962e-05
1.58179e-06
1.95245e-05
1.63489e-06
1.94227e-05
1.69875e-06
1.93132e-05
1.77627e-06
1.91944e-05
1.86869e-06
1.90644e-05
1.97409e-06
1.89218e-05
2.08653e-06
1.87656e-05
2.19655e-06
1.85955e-05
2.29321e-06
1.84119e-05
2.36707e-06
1.8216e-05
2.41299e-06
1.80094e-05
2.43158e-06
1.77943e-05
2.42852e-06
1.75726e-05
2.41237e-06
1.73462e-05
2.3918e-06
1.71164e-05
2.37341e-06
1.68842e-05
2.36086e-06
1.66501e-05
2.35527e-06
1.64144e-05
2.3561e-06
1.61769e-05
2.36223e-06
1.59377e-05
2.3726e-06
1.56965e-05
2.38642e-06
1.54532e-05
2.40316e-06
1.52074e-05
2.42249e-06
1.49589e-05
2.44414e-06
1.47075e-05
2.4679e-06
1.44531e-05
2.49355e-06
1.41953e-05
2.52093e-06
1.39339e-05
2.54986e-06
1.36687e-05
2.5802e-06
1.33996e-05
2.61181e-06
1.31263e-05
2.64458e-06
1.28485e-05
2.67839e-06
1.25662e-05
2.71312e-06
1.22792e-05
2.74867e-06
1.19872e-05
2.78493e-06
1.169e-05
2.8218e-06
1.13876e-05
2.85915e-06
1.10797e-05
2.8969e-06
1.07662e-05
2.93492e-06
1.04469e-05
2.97312e-06
1.01218e-05
3.01137e-06
9.79063e-06
3.04957e-06
9.45337e-06
3.0876e-06
9.10989e-06
3.12534e-06
8.76011e-06
3.16268e-06
8.40398e-06
3.1995e-06
8.04145e-06
3.23569e-06
7.6725e-06
3.27112e-06
7.29713e-06
3.3057e-06
6.91538e-06
3.3393e-06
6.52728e-06
3.37182e-06
6.13294e-06
3.40316e-06
5.73247e-06
3.43321e-06
5.32603e-06
3.46188e-06
4.9138e-06
3.48909e-06
4.49603e-06
3.51473e-06
4.07298e-06
3.53874e-06
3.64496e-06
3.56102e-06
3.21233e-06
3.58151e-06
2.77548e-06
3.60011e-06
2.33484e-06
3.61671e-06
1.8909e-06
3.6307e-06
1.44455e-06
3.63777e-06
9.99032e-07
3.61353e-06
5.67864e-07
3.45977e-06
1.96511e-07
2.90295e-06
1.44141e-06
2.00043e-05
5.5301e-08
2.00173e-05
1.65595e-07
2.00381e-05
2.73065e-07
2.00653e-05
3.75735e-07
2.00973e-05
4.72146e-07
2.01321e-05
5.61449e-07
2.01681e-05
6.43274e-07
2.02038e-05
7.17595e-07
2.02376e-05
7.84655e-07
2.02684e-05
8.44916e-07
2.02954e-05
8.98994e-07
2.03179e-05
9.47592e-07
2.03352e-05
9.91441e-07
2.03472e-05
1.03126e-06
2.03536e-05
1.06773e-06
2.03543e-05
1.10149e-06
2.03493e-05
1.13311e-06
2.03385e-05
1.1631e-06
2.0322e-05
1.19193e-06
2.02999e-05
1.22002e-06
2.02721e-05
1.24774e-06
2.02388e-05
1.27545e-06
2.02001e-05
1.30347e-06
2.0156e-05
1.33212e-06
2.01065e-05
1.36171e-06
2.00519e-05
1.39253e-06
1.99922e-05
1.42488e-06
1.99275e-05
1.45901e-06
1.98581e-05
1.49517e-06
1.97839e-05
1.5336e-06
1.97053e-05
1.57474e-06
1.96221e-05
1.61951e-06
1.95342e-05
1.66967e-06
1.94411e-05
1.72802e-06
1.93417e-05
1.79813e-06
1.92347e-05
1.88329e-06
1.91184e-05
1.98503e-06
1.8991e-05
2.10139e-06
1.88515e-05
2.22611e-06
1.86989e-05
2.34912e-06
1.85333e-05
2.45878e-06
1.83554e-05
2.545e-06
1.81663e-05
2.60213e-06
1.79674e-05
2.63045e-06
1.77604e-05
2.63551e-06
1.75469e-05
2.62592e-06
1.73281e-05
2.61052e-06
1.71054e-05
2.59618e-06
1.68794e-05
2.58687e-06
1.66506e-05
2.58398e-06
1.64195e-05
2.58723e-06
1.61861e-05
2.59568e-06
1.59503e-05
2.60838e-06
1.57121e-05
2.62461e-06
1.54714e-05
2.6439e-06
1.52279e-05
2.66595e-06
1.49815e-05
2.69052e-06
1.4732e-05
2.71738e-06
1.44792e-05
2.74634e-06
1.42229e-05
2.77723e-06
1.39629e-05
2.80987e-06
1.3699e-05
2.84412e-06
1.3431e-05
2.87986e-06
1.31586e-05
2.91694e-06
1.28817e-05
2.95526e-06
1.26002e-05
2.99469e-06
1.23137e-05
3.03512e-06
1.20222e-05
3.07644e-06
1.17255e-05
3.11854e-06
1.14233e-05
3.16131e-06
1.11156e-05
3.20462e-06
1.08022e-05
3.24837e-06
1.04828e-05
3.29244e-06
1.01575e-05
3.33669e-06
9.82606e-06
3.38102e-06
9.48837e-06
3.42528e-06
9.14435e-06
3.46936e-06
8.79392e-06
3.51311e-06
8.43701e-06
3.5564e-06
8.07359e-06
3.5991e-06
7.70364e-06
3.64107e-06
7.32717e-06
3.68217e-06
6.94421e-06
3.72226e-06
6.55483e-06
3.76121e-06
6.15912e-06
3.79887e-06
5.75721e-06
3.83512e-06
5.34926e-06
3.86983e-06
4.93549e-06
3.90286e-06
4.51612e-06
3.9341e-06
4.09145e-06
3.96341e-06
3.66178e-06
3.99069e-06
3.22748e-06
4.0158e-06
2.78895e-06
4.03864e-06
2.34661e-06
4.05905e-06
1.90096e-06
4.07635e-06
1.45288e-06
4.08585e-06
1.00553e-06
4.06088e-06
5.72261e-07
3.89304e-06
1.98429e-07
3.27679e-06
1.63984e-06
2.00034e-05
5.1944e-08
2.00134e-05
1.55542e-07
2.00296e-05
2.56889e-07
2.00509e-05
3.54443e-07
2.0076e-05
4.47029e-07
2.01035e-05
5.33903e-07
2.01321e-05
6.14677e-07
2.01605e-05
6.89237e-07
2.01875e-05
7.57696e-07
2.0212e-05
8.20355e-07
2.02334e-05
8.77655e-07
2.02508e-05
9.30128e-07
2.02639e-05
9.78349e-07
2.02723e-05
1.0229e-06
2.02756e-05
1.06436e-06
2.02739e-05
1.10326e-06
2.02669e-05
1.14011e-06
2.02546e-05
1.17539e-06
2.0237e-05
1.20951e-06
2.02141e-05
1.24288e-06
2.0186e-05
1.27585e-06
2.01527e-05
1.30877e-06
2.01142e-05
1.34194e-06
2.00707e-05
1.37568e-06
2.00221e-05
1.41029e-06
1.99686e-05
1.44604e-06
1.99102e-05
1.48323e-06
1.98472e-05
1.52209e-06
1.97795e-05
1.56286e-06
1.97073e-05
1.60577e-06
1.96308e-05
1.65128e-06
1.95498e-05