# vtk DataFile Version 2.0
sampleSurface
ASCII
DATASET POLYDATA
POINTS 652 double
0 0 0
0.02 0 0
0.02 0 0.1
0 0 0.1
0.04 0 0
0.04 0 0.1
0.06 0 0
0.06 0 0.1
0.08 0 0
0.08 0 0.1
0.1 0 0
0.1 0 0.1
0.12 0 0
0.12 0 0.1
0.14 0 0
0.14 0 0.1
0.16 0 0
0.16 0 0.1
0.18 0 0
0.18 0 0.1
0.2 0 0
0.2 0 0.1
0.22 0 0
0.22 0 0.1
0.24 0 0
0.24 0 0.1
0.26 0 0
0.26 0 0.1
0.28 0 0
0.28 0 0.1
0.3 0 0
0.3 0 0.1
0.32 0 0
0.32 0 0.1
0.34 0 0
0.34 0 0.1
0.36 0 0
0.36 0 0.1
0.38 0 0
0.38 0 0.1
0.4 0 0
0.4 0 0.1
0.42 0 0
0.42 0 0.1
0.44 0 0
0.44 0 0.1
0.46 0 0
0.46 0 0.1
0.48 0 0
0.48 0 0.1
0.5 0 0
0.5 0 0.1
0.52 0 0
0.52 0 0.1
0.54 0 0
0.54 0 0.1
0.56 0 0
0.56 0 0.1
0.58 0 0
0.58 0 0.1
0.6 0 0
0.6 0 0.1
0.62 0 0
0.62 0 0.1
0.64 0 0
0.64 0 0.1
0.66 0 0
0.66 0 0.1
0.68 0 0
0.68 0 0.1
0.7 0 0
0.7 0 0.1
0.72 0 0
0.72 0 0.1
0.74 0 0
0.74 0 0.1
0.76 0 0
0.76 0 0.1
0.78 0 0
0.78 0 0.1
0.8 0 0
0.8 0 0.1
0.82 0 0
0.82 0 0.1
0.84 0 0
0.84 0 0.1
0.86 0 0
0.86 0 0.1
0.88 0 0
0.88 0 0.1
0.9 0 0
0.9 0 0.1
0.92 0 0
0.92 0 0.1
0.94 0 0
0.94 0 0.1
0.96 0 0
0.96 0 0.1
0.98 0 0
0.98 0 0.1
1 0 0
1 0 0.1
1.02 0 0
1.02 0 0.1
1.04 0 0
1.04 0 0.1
1.06 0 0
1.06 0 0.1
1.08 0 0
1.08 0 0.1
1.1 0 0
1.1 0 0.1
1.12 0 0
1.12 0 0.1
1.14 0 0
1.14 0 0.1
1.16 0 0
1.16 0 0.1
1.18 0 0
1.18 0 0.1
1.2 0 0
1.2 0 0.1
1.22 0 0
1.22 0 0.1
1.24 0 0
1.24 0 0.1
1.26 0 0
1.26 0 0.1
1.28 0 0
1.28 0 0.1
1.3 0 0
1.3 0 0.1
1.32 0 0
1.32 0 0.1
1.34 0 0
1.34 0 0.1
1.36 0 0
1.36 0 0.1
1.38 0 0
1.38 0 0.1
1.4 0 0
1.4 0 0.1
1.42 0 0
1.42 0 0.1
1.44 0 0
1.44 0 0.1
1.46 0 0
1.46 0 0.1
1.48 0 0
1.48 0 0.1
1.5 0 0
1.5 0 0.1
1.52 0 0
1.52 0 0.1
1.54 0 0
1.54 0 0.1
1.56 0 0
1.56 0 0.1
1.58 0 0
1.58 0 0.1
1.6 0 0
1.6 0 0.1
1.62 0 0
1.62 0 0.1
1.64 0 0
1.64 0 0.1
1.66 0 0
1.66 0 0.1
1.68 0 0
1.68 0 0.1
1.7 0 0
1.7 0 0.1
1.72 0 0
1.72 0 0.1
1.74 0 0
1.74 0 0.1
1.76 0 0
1.76 0 0.1
1.78 0 0
1.78 0 0.1
1.8 0 0
1.8 0 0.1
1.82 0 0
1.82 0 0.1
1.84 0 0
1.84 0 0.1
1.86 0 0
1.86 0 0.1
1.88 0 0
1.88 0 0.1
1.9 0 0
1.9 0 0.1
1.92 0 0
1.92 0 0.1
1.94 0 0
1.94 0 0.1
1.96 0 0
1.96 0 0.1
1.98 0 0
1.98 0 0.1
2 0 0
2 0 0.1
2 0.02 0
2 0.02 0.1
2 0.04 0
2 0.04 0.1
2 0.06 0
2 0.06 0.1
2 0.08 0
2 0.08 0.1
2 0.1 0
2 0.1 0.1
2 0.12 0
2 0.12 0.1
2 0.14 0
2 0.14 0.1
2 0.16 0
2 0.16 0.1
2 0.18 0
2 0.18 0.1
2 0.2 0
2 0.2 0.1
2 0.22 0
2 0.22 0.1
2 0.24 0
2 0.24 0.1
2 0.26 0
2 0.26 0.1
2 0.28 0
2 0.28 0.1
2 0.3 0
2 0.3 0.1
2 0.32 0
2 0.32 0.1
2 0.34 0
2 0.34 0.1
2 0.36 0
2 0.36 0.1
2 0.38 0
2 0.38 0.1
2 0.4 0
2 0.4 0.1
2 0.42 0
2 0.42 0.1
2 0.44 0
2 0.44 0.1
2 0.46 0
2 0.46 0.1
2 0.48 0
2 0.48 0.1
2 0.5 0
2 0.5 0.1
2 0.52 0
2 0.52 0.1
2 0.54 0
2 0.54 0.1
2 0.56 0
2 0.56 0.1
2 0.58 0
2 0.58 0.1
2 0.6 0
2 0.6 0.1
2 0.62 0
2 0.62 0.1
2 0.64 0
2 0.64 0.1
2 0.66 0
2 0.66 0.1
2 0.68 0
2 0.68 0.1
2 0.7 0
2 0.7 0.1
2 0.72 0
2 0.72 0.1
2 0.74 0
2 0.74 0.1
2 0.76 0
2 0.76 0.1
2 0.78 0
2 0.78 0.1
2 0.8 0
2 0.8 0.1
2 0.82 0
2 0.82 0.1
2 0.84 0
2 0.84 0.1
2 0.86 0
2 0.86 0.1
2 0.88 0
2 0.88 0.1
2 0.9 0
2 0.9 0.1
2 0.92 0
2 0.92 0.1
2 0.94 0
2 0.94 0.1
2 0.96 0
2 0.96 0.1
2 0.98 0
2 0.98 0.1
2 1 0
2 1 0.1
2.02 1 0
2.02 1 0.1
2.04 1 0
2.04 1 0.1
2.06 1 0
2.06 1 0.1
2.08 1 0
2.08 1 0.1
2.1 1 0
2.1 1 0.1
2.12 1 0
2.12 1 0.1
2.14 1 0
2.14 1 0.1
2.16 1 0
2.16 1 0.1
2.18 1 0
2.18 1 0.1
2.2 1 0
2.2 1 0.1
2.22 1 0
2.22 1 0.1
2.24 1 0
2.24 1 0.1
2.26 1 0
2.26 1 0.1
2.28 1 0
2.28 1 0.1
2.3 1 0
2.3 1 0.1
2.32 1 0
2.32 1 0.1
2.34 1 0
2.34 1 0.1
2.36 1 0
2.36 1 0.1
2.38 1 0
2.38 1 0.1
2.4 1 0
2.4 1 0.1
2.42 1 0
2.42 1 0.1
2.44 1 0
2.44 1 0.1
2.46 1 0
2.46 1 0.1
2.48 1 0
2.48 1 0.1
2.5 1 0
2.5 1 0.1
2.5 0 0
2.5 0 0.1
2.5 0.02 0.1
2.5 0.02 0
2.5 0.04 0.1
2.5 0.04 0
2.5 0.06 0.1
2.5 0.06 0
2.5 0.08 0.1
2.5 0.08 0
2.5 0.1 0.1
2.5 0.1 0
2.5 0.12 0.1
2.5 0.12 0
2.5 0.14 0.1
2.5 0.14 0
2.5 0.16 0.1
2.5 0.16 0
2.5 0.18 0.1
2.5 0.18 0
2.5 0.2 0.1
2.5 0.2 0
2.5 0.22 0.1
2.5 0.22 0
2.5 0.24 0.1
2.5 0.24 0
2.5 0.26 0.1
2.5 0.26 0
2.5 0.28 0.1
2.5 0.28 0
2.5 0.3 0.1
2.5 0.3 0
2.5 0.32 0.1
2.5 0.32 0
2.5 0.34 0.1
2.5 0.34 0
2.5 0.36 0.1
2.5 0.36 0
2.5 0.38 0.1
2.5 0.38 0
2.5 0.4 0.1
2.5 0.4 0
2.5 0.42 0.1
2.5 0.42 0
2.5 0.44 0.1
2.5 0.44 0
2.5 0.46 0.1
2.5 0.46 0
2.5 0.48 0.1
2.5 0.48 0
2.5 0.5 0.1
2.5 0.5 0
2.5 0.52 0.1
2.5 0.52 0
2.5 0.54 0.1
2.5 0.54 0
2.5 0.56 0.1
2.5 0.56 0
2.5 0.58 0.1
2.5 0.58 0
2.5 0.6 0.1
2.5 0.6 0
2.5 0.62 0.1
2.5 0.62 0
2.5 0.64 0.1
2.5 0.64 0
2.5 0.66 0.1
2.5 0.66 0
2.5 0.68 0.1
2.5 0.68 0
2.5 0.7 0.1
2.5 0.7 0
2.5 0.72 0.1
2.5 0.72 0
2.5 0.74 0.1
2.5 0.74 0
2.5 0.76 0.1
2.5 0.76 0
2.5 0.78 0.1
2.5 0.78 0
2.5 0.8 0.1
2.5 0.8 0
2.5 0.82 0.1
2.5 0.82 0
2.5 0.84 0.1
2.5 0.84 0
2.5 0.86 0.1
2.5 0.86 0
2.5 0.88 0.1
2.5 0.88 0
2.5 0.9 0.1
2.5 0.9 0
2.5 0.92 0.1
2.5 0.92 0
2.5 0.94 0.1
2.5 0.94 0
2.5 0.96 0.1
2.5 0.96 0
2.5 0.98 0.1
2.5 0.98 0
2.52 0 0
2.52 0 0.1
2.54 0 0
2.54 0 0.1
2.56 0 0
2.56 0 0.1
2.58 0 0
2.58 0 0.1
2.6 0 0
2.6 0 0.1
2.62 0 0
2.62 0 0.1
2.64 0 0
2.64 0 0.1
2.66 0 0
2.66 0 0.1
2.68 0 0
2.68 0 0.1
2.7 0 0
2.7 0 0.1
2.72 0 0
2.72 0 0.1
2.74 0 0
2.74 0 0.1
2.76 0 0
2.76 0 0.1
2.78 0 0
2.78 0 0.1
2.8 0 0
2.8 0 0.1
2.82 0 0
2.82 0 0.1
2.84 0 0
2.84 0 0.1
2.86 0 0
2.86 0 0.1
2.88 0 0
2.88 0 0.1
2.9 0 0
2.9 0 0.1
2.92 0 0
2.92 0 0.1
2.94 0 0
2.94 0 0.1
2.96 0 0
2.96 0 0.1
2.98 0 0
2.98 0 0.1
3 0 0
3 0 0.1
3.02 0 0
3.02 0 0.1
3.04 0 0
3.04 0 0.1
3.06 0 0
3.06 0 0.1
3.08 0 0
3.08 0 0.1
3.1 0 0
3.1 0 0.1
3.12 0 0
3.12 0 0.1
3.14 0 0
3.14 0 0.1
3.16 0 0
3.16 0 0.1
3.18 0 0
3.18 0 0.1
3.2 0 0
3.2 0 0.1
3.22 0 0
3.22 0 0.1
3.24 0 0
3.24 0 0.1
3.26 0 0
3.26 0 0.1
3.28 0 0
3.28 0 0.1
3.3 0 0
3.3 0 0.1
3.32 0 0
3.32 0 0.1
3.34 0 0
3.34 0 0.1
3.36 0 0
3.36 0 0.1
3.38 0 0
3.38 0 0.1
3.4 0 0
3.4 0 0.1
3.42 0 0
3.42 0 0.1
3.44 0 0
3.44 0 0.1
3.46 0 0
3.46 0 0.1
3.48 0 0
3.48 0 0.1
3.5 0 0
3.5 0 0.1
3.52 0 0
3.52 0 0.1
3.54 0 0
3.54 0 0.1
3.56 0 0
3.56 0 0.1
3.58 0 0
3.58 0 0.1
3.6 0 0
3.6 0 0.1
3.62 0 0
3.62 0 0.1
3.64 0 0
3.64 0 0.1
3.66 0 0
3.66 0 0.1
3.68 0 0
3.68 0 0.1
3.7 0 0
3.7 0 0.1
3.72 0 0
3.72 0 0.1
3.74 0 0
3.74 0 0.1
3.76 0 0
3.76 0 0.1
3.78 0 0
3.78 0 0.1
3.8 0 0
3.8 0 0.1
3.82 0 0
3.82 0 0.1
3.84 0 0
3.84 0 0.1
3.86 0 0
3.86 0 0.1
3.88 0 0
3.88 0 0.1
3.9 0 0
3.9 0 0.1
3.92 0 0
3.92 0 0.1
3.94 0 0
3.94 0 0.1
3.96 0 0
3.96 0 0.1
3.98 0 0
3.98 0 0.1
4 0 0
4 0 0.1
4.02 0 0
4.02 0 0.1
4.04 0 0
4.04 0 0.1
4.06 0 0
4.06 0 0.1
4.08 0 0
4.08 0 0.1
4.1 0 0
4.1 0 0.1
4.12 0 0
4.12 0 0.1
4.14 0 0
4.14 0 0.1
4.16 0 0
4.16 0 0.1
4.18 0 0
4.18 0 0.1
4.2 0 0
4.2 0 0.1
4.22 0 0
4.22 0 0.1
4.24 0 0
4.24 0 0.1
4.26 0 0
4.26 0 0.1
4.28 0 0
4.28 0 0.1
4.3 0 0
4.3 0 0.1
4.32 0 0
4.32 0 0.1
4.34 0 0
4.34 0 0.1
4.36 0 0
4.36 0 0.1
4.38 0 0
4.38 0 0.1
4.4 0 0
4.4 0 0.1
4.42 0 0
4.42 0 0.1
4.44 0 0
4.44 0 0.1
4.46 0 0
4.46 0 0.1
4.48 0 0
4.48 0 0.1
4.5 0 0
4.5 0 0.1

POLYGONS 325 1625
4 0 1 2 3
4 1 4 5 2
4 4 6 7 5
4 6 8 9 7
4 8 10 11 9
4 10 12 13 11
4 12 14 15 13
4 14 16 17 15
4 16 18 19 17
4 18 20 21 19
4 20 22 23 21
4 22 24 25 23
4 24 26 27 25
4 26 28 29 27
4 28 30 31 29
4 30 32 33 31
4 32 34 35 33
4 34 36 37 35
4 36 38 39 37
4 38 40 41 39
4 40 42 43 41
4 42 44 45 43
4 44 46 47 45
4 46 48 49 47
4 48 50 51 49
4 50 52 53 51
4 52 54 55 53
4 54 56 57 55
4 56 58 59 57
4 58 60 61 59
4 60 62 63 61
4 62 64 65 63
4 64 66 67 65
4 66 68 69 67
4 68 70 71 69
4 70 72 73 71
4 72 74 75 73
4 74 76 77 75
4 76 78 79 77
4 78 80 81 79
4 80 82 83 81
4 82 84 85 83
4 84 86 87 85
4 86 88 89 87
4 88 90 91 89
4 90 92 93 91
4 92 94 95 93
4 94 96 97 95
4 96 98 99 97
4 98 100 101 99
4 100 102 103 101
4 102 104 105 103
4 104 106 107 105
4 106 108 109 107
4 108 110 111 109
4 110 112 113 111
4 112 114 115 113
4 114 116 117 115
4 116 118 119 117
4 118 120 121 119
4 120 122 123 121
4 122 124 125 123
4 124 126 127 125
4 126 128 129 127
4 128 130 131 129
4 130 132 133 131
4 132 134 135 133
4 134 136 137 135
4 136 138 139 137
4 138 140 141 139
4 140 142 143 141
4 142 144 145 143
4 144 146 147 145
4 146 148 149 147
4 148 150 151 149
4 150 152 153 151
4 152 154 155 153
4 154 156 157 155
4 156 158 159 157
4 158 160 161 159
4 160 162 163 161
4 162 164 165 163
4 164 166 167 165
4 166 168 169 167
4 168 170 171 169
4 170 172 173 171
4 172 174 175 173
4 174 176 177 175
4 176 178 179 177
4 178 180 181 179
4 180 182 183 181
4 182 184 185 183
4 184 186 187 185
4 186 188 189 187
4 188 190 191 189
4 190 192 193 191
4 192 194 195 193
4 194 196 197 195
4 196 198 199 197
4 198 200 201 199
4 200 202 203 201
4 202 204 205 203
4 204 206 207 205
4 206 208 209 207
4 208 210 211 209
4 210 212 213 211
4 212 214 215 213
4 214 216 217 215
4 216 218 219 217
4 218 220 221 219
4 220 222 223 221
4 222 224 225 223
4 224 226 227 225
4 226 228 229 227
4 228 230 231 229
4 230 232 233 231
4 232 234 235 233
4 234 236 237 235
4 236 238 239 237
4 238 240 241 239
4 240 242 243 241
4 242 244 245 243
4 244 246 247 245
4 246 248 249 247
4 248 250 251 249
4 250 252 253 251
4 252 254 255 253
4 254 256 257 255
4 256 258 259 257
4 258 260 261 259
4 260 262 263 261
4 262 264 265 263
4 264 266 267 265
4 266 268 269 267
4 268 270 271 269
4 270 272 273 271
4 272 274 275 273
4 274 276 277 275
4 276 278 279 277
4 278 280 281 279
4 280 282 283 281
4 282 284 285 283
4 284 286 287 285
4 286 288 289 287
4 288 290 291 289
4 290 292 293 291
4 292 294 295 293
4 294 296 297 295
4 296 298 299 297
4 298 300 301 299
4 300 302 303 301
4 302 304 305 303
4 304 306 307 305
4 306 308 309 307
4 308 310 311 309
4 310 312 313 311
4 312 314 315 313
4 314 316 317 315
4 316 318 319 317
4 318 320 321 319
4 320 322 323 321
4 322 324 325 323
4 324 326 327 325
4 326 328 329 327
4 328 330 331 329
4 330 332 333 331
4 332 334 335 333
4 334 336 337 335
4 336 338 339 337
4 338 340 341 339
4 340 342 343 341
4 342 344 345 343
4 344 346 347 345
4 346 348 349 347
4 348 350 351 349
4 352 353 354 355
4 355 354 356 357
4 357 356 358 359
4 359 358 360 361
4 361 360 362 363
4 363 362 364 365
4 365 364 366 367
4 367 366 368 369
4 369 368 370 371
4 371 370 372 373
4 373 372 374 375
4 375 374 376 377
4 377 376 378 379
4 379 378 380 381
4 381 380 382 383
4 383 382 384 385
4 385 384 386 387
4 387 386 388 389
4 389 388 390 391
4 391 390 392 393
4 393 392 394 395
4 395 394 396 397
4 397 396 398 399
4 399 398 400 401
4 401 400 402 403
4 403 402 404 405
4 405 404 406 407
4 407 406 408 409
4 409 408 410 411
4 411 410 412 413
4 413 412 414 415
4 415 414 416 417
4 417 416 418 419
4 419 418 420 421
4 421 420 422 423
4 423 422 424 425
4 425 424 426 427
4 427 426 428 429
4 429 428 430 431
4 431 430 432 433
4 433 432 434 435
4 435 434 436 437
4 437 436 438 439
4 439 438 440 441
4 441 440 442 443
4 443 442 444 445
4 445 444 446 447
4 447 446 448 449
4 449 448 450 451
4 451 450 351 350
4 352 452 453 353
4 452 454 455 453
4 454 456 457 455
4 456 458 459 457
4 458 460 461 459
4 460 462 463 461
4 462 464 465 463
4 464 466 467 465
4 466 468 469 467
4 468 470 471 469
4 470 472 473 471
4 472 474 475 473
4 474 476 477 475
4 476 478 479 477
4 478 480 481 479
4 480 482 483 481
4 482 484 485 483
4 484 486 487 485
4 486 488 489 487
4 488 490 491 489
4 490 492 493 491
4 492 494 495 493
4 494 496 497 495
4 496 498 499 497
4 498 500 501 499
4 500 502 503 501
4 502 504 505 503
4 504 506 507 505
4 506 508 509 507
4 508 510 511 509
4 510 512 513 511
4 512 514 515 513
4 514 516 517 515
4 516 518 519 517
4 518 520 521 519
4 520 522 523 521
4 522 524 525 523
4 524 526 527 525
4 526 528 529 527
4 528 530 531 529
4 530 532 533 531
4 532 534 535 533
4 534 536 537 535
4 536 538 539 537
4 538 540 541 539
4 540 542 543 541
4 542 544 545 543
4 544 546 547 545
4 546 548 549 547
4 548 550 551 549
4 550 552 553 551
4 552 554 555 553
4 554 556 557 555
4 556 558 559 557
4 558 560 561 559
4 560 562 563 561
4 562 564 565 563
4 564 566 567 565
4 566 568 569 567
4 568 570 571 569
4 570 572 573 571
4 572 574 575 573
4 574 576 577 575
4 576 578 579 577
4 578 580 581 579
4 580 582 583 581
4 582 584 585 583
4 584 586 587 585
4 586 588 589 587
4 588 590 591 589
4 590 592 593 591
4 592 594 595 593
4 594 596 597 595
4 596 598 599 597
4 598 600 601 599
4 600 602 603 601
4 602 604 605 603
4 604 606 607 605
4 606 608 609 607
4 608 610 611 609
4 610 612 613 611
4 612 614 615 613
4 614 616 617 615
4 616 618 619 617
4 618 620 621 619
4 620 622 623 621
4 622 624 625 623
4 624 626 627 625
4 626 628 629 627
4 628 630 631 629
4 630 632 633 631
4 632 634 635 633
4 634 636 637 635
4 636 638 639 637
4 638 640 641 639
4 640 642 643 641
4 642 644 645 643
4 644 646 647 645
4 646 648 649 647
4 648 650 651 649
POINT_DATA 652
FIELD attributes 1
U 3 652 float
2.50915 -0.0174475 -0.0421332
1.25507 -0.00872535 -0.0210666
1.25507 -0.00872535 -0.0210666
2.50915 -0.0174475 -0.0421332
0.000996188 -1.5274e-06 0
0.000996188 -1.5274e-06 0
0.000996429 -1.45913e-07 0
0.000996429 -1.45913e-07 0
0.000997484 -8.15886e-07 0
0.000997484 -8.15886e-07 0
0.000999005 -5.35609e-07 0
0.000999005 -5.35609e-07 0
0.00099878 1.213e-06 0
0.00099878 1.213e-06 0
0.000996678 2.42095e-06 0
0.000996678 2.42095e-06 0
0.000994314 1.90822e-06 0
0.000994314 1.90822e-06 0
0.000992851 7.12187e-07 0
0.000992851 7.12187e-07 0
0.00099214 5.38541e-07 0
0.00099214 5.38541e-07 0
0.000991221 1.97322e-06 0
0.000991221 1.97322e-06 0
0.000989229 4.0697e-06 0
0.000989229 4.0697e-06 0
0.000985994 5.1557e-06 0
0.000985994 5.1557e-06 0
0.00098217 4.1294e-06 0
0.00098217 4.1294e-06 0
0.000978832 1.40395e-06 0
0.000978832 1.40395e-06 0
0.000976676 -1.27967e-06 0
0.000976676 -1.27967e-06 0
0.000975376 -2.11686e-06 0
0.000975376 -2.11686e-06 0
0.000973707 -5.6868e-07 0
0.000973707 -5.6868e-07 0
0.000970404 2.30496e-06 0
0.000970404 2.30496e-06 0
0.000965073 4.70371e-06 0
0.000965073 4.70371e-06 0
0.000958403 5.32935e-06 0
0.000958403 5.32935e-06 0
0.00095163 4.09349e-06 0
0.00095163 4.09349e-06 0
0.000945826 2.01364e-06 0
0.000945826 2.01364e-06 0
0.000941521 5.07296e-07 0
0.000941521 5.07296e-07 0
0.000938585 5.47542e-07 0
0.000938585 5.47542e-07 0
0.000936263 2.1481e-06 0
0.000936263 2.1481e-06 0
0.000933449 4.33426e-06 0
0.000933449 4.33426e-06 0
0.000929264 5.70088e-06 0
0.000929264 5.70088e-06 0
0.000923619 5.38599e-06 0
0.000923619 5.38599e-06 0
0.000917255 3.74854e-06 0
0.000917255 3.74854e-06 0
0.000911102 2.11791e-06 0
0.000911102 2.11791e-06 0
0.000905491 1.75546e-06 0
0.000905491 1.75546e-06 0
0.000899957 2.87882e-06 0
0.000899957 2.87882e-06 0
0.00089376 4.59018e-06 0
0.00089376 4.59018e-06 0
0.00088658 5.74055e-06 0
0.00088658 5.74055e-06 0
0.000878668 5.87072e-06 0
0.000878668 5.87072e-06 0
0.000870449 5.35503e-06 0
0.000870449 5.35503e-06 0
0.000862112 4.75391e-06 0
0.000862112 4.75391e-06 0
0.00085365 4.18919e-06 0
0.00085365 4.18919e-06 0
0.000845156 3.4298e-06 0
0.000845156 3.4298e-06 0
0.000836864 2.48488e-06 0
0.000836864 2.48488e-06 0
0.000828853 1.8898e-06 0
0.000828853 1.8898e-06 0
0.000820809 2.26058e-06 0
0.000820809 2.26058e-06 0
0.000812241 3.60919e-06 0
0.000812241 3.60919e-06 0
0.00080297 5.24231e-06 0
0.00080297 5.24231e-06 0
0.000793294 6.41067e-06 0
0.000793294 6.41067e-06 0
0.000783576 7.00711e-06 0
0.000783576 7.00711e-06 0
0.000773681 7.54182e-06 0
0.000773681 7.54182e-06 0
0.00076294 8.44359e-06 0
0.00076294 8.44359e-06 0
0.00075078 9.49639e-06 0
0.00075078 9.49639e-06 0
0.000737387 1.00656e-05 0
0.000737387 1.00656e-05 0
0.000723645 9.89532e-06 0
0.000723645 9.89532e-06 0
0.00071031 9.591e-06 0
0.00071031 9.591e-06 0
0.000697151 1.01825e-05 0
0.000697151 1.01825e-05 0
0.000682881 1.21337e-05 0
0.000682881 1.21337e-05 0
0.000666021 1.47695e-05 0
0.000666021 1.47695e-05 0
0.000646022 1.67122e-05 0
0.000646022 1.67122e-05 0
0.00062371 1.69347e-05 0
0.00062371 1.69347e-05 0
0.000600747 1.54462e-05 0
0.000600747 1.54462e-05 0
0.000578679 1.3091e-05 0
0.000578679 1.3091e-05 0
0.000558327 1.08486e-05 0
0.000558327 1.08486e-05 0
0.000539744 9.29668e-06 0
0.000539744 9.29668e-06 0
0.000522509 8.51373e-06 0
0.000522509 8.51373e-06 0
0.000506042 8.28724e-06 0
0.000506042 8.28724e-06 0
0.000489835 8.35586e-06 0
0.000489835 8.35586e-06 0
0.000473552 8.53048e-06 0
0.000473552 8.53048e-06 0
0.00045701 8.71438e-06 0
0.00045701 8.71438e-06 0
0.000440139 8.87598e-06 0
0.000440139 8.87598e-06 0
0.000422922 9.01308e-06 0
0.000422922 9.01308e-06 0
0.000405373 9.13004e-06 0
0.000405373 9.13004e-06 0
0.000387511 9.22898e-06 0
0.000387511 9.22898e-06 0
0.000369362 9.30784e-06 0
0.000369362 9.30784e-06 0
0.000350953 9.36163e-06 0
0.000350953 9.36163e-06 0
0.000332317 9.38454e-06 0
0.000332317 9.38454e-06 0
0.000313491 9.37022e-06 0
0.000313491 9.37022e-06 0
0.000294524 9.31193e-06 0
0.000294524 9.31193e-06 0
0.00027547 9.20317e-06 0
0.00027547 9.20317e-06 0
0.000256394 9.03751e-06 0
0.000256394 9.03751e-06 0
0.000237371 8.80831e-06 0
0.000237371 8.80831e-06 0
0.000218486 8.50937e-06 0
0.000218486 8.50937e-06 0
0.000199832 8.13539e-06 0
0.000199832 8.13539e-06 0
0.000181514 7.68271e-06 0
0.000181514 7.68271e-06 0
0.000163641 7.14988e-06 0
0.000163641 7.14988e-06 0
0.000146329 6.5376e-06 0
0.000146329 6.5376e-06 0
0.000129696 5.84953e-06 0
0.000129696 5.84953e-06 0
0.000113854 5.09276e-06 0
0.000113854 5.09276e-06 0
9.89141e-05 4.27787e-06 0
9.89141e-05 4.27787e-06 0
8.49721e-05 3.4187e-06 0
8.49721e-05 3.4187e-06 0
7.21099e-05 2.53197e-06 0
7.21099e-05 2.53197e-06 0
6.03894e-05 1.63685e-06 0
6.03894e-05 1.63685e-06 0
4.98483e-05 7.5434e-07 0
4.98483e-05 7.5434e-07 0
4.04972e-05 -9.39156e-08 0
4.04972e-05 -9.39156e-08 0
3.23175e-05 -8.86878e-07 0
3.23175e-05 -8.86878e-07 0
2.52605e-05 -1.60511e-06 0
2.52605e-05 -1.60511e-06 0
1.92455e-05 -2.23252e-06 0
1.92455e-05 -2.23252e-06 0
1.41639e-05 -2.75671e-06 0
1.41639e-05 -2.75671e-06 0
9.87231e-06 -3.17222e-06 0
9.87231e-06 -3.17222e-06 0
6.21261e-06 -3.48377e-06 0
6.21261e-06 -3.48377e-06 0
2.99216e-06 -3.66871e-06 0
2.99216e-06 -3.66871e-06 0
1.46237e-06 -3.7227e-06 0
1.46237e-06 -3.7227e-06 0
5.6723e-06 3.04252e-06 0
5.6723e-06 3.04252e-06 0
1.1493e-05 2.28879e-05 0
1.1493e-05 2.28879e-05 0
1.32793e-05 4.92265e-05 0
1.32793e-05 4.92265e-05 0
1.31041e-05 7.58809e-05 0
1.31041e-05 7.58809e-05 0
1.22997e-05 0.000101518 0
1.22997e-05 0.000101518 0
1.14694e-05 0.000125199 0
1.14694e-05 0.000125199 0
1.08405e-05 0.000147472 0
1.08405e-05 0.000147472 0
1.04509e-05 0.000168771 0
1.04509e-05 0.000168771 0
1.0264e-05 0.000189519 0
1.0264e-05 0.000189519 0
1.02233e-05 0.00021005 0
1.02233e-05 0.00021005 0
1.0277e-05 0.000230607 0
1.0277e-05 0.000230607 0
1.0387e-05 0.000251341 0
1.0387e-05 0.000251341 0
1.05282e-05 0.000272333 0
1.05282e-05 0.000272333 0
1.0686e-05 0.000293627 0
1.0686e-05 0.000293627 0
1.08529e-05 0.000315245 0
1.08529e-05 0.000315245 0
1.1026e-05 0.000337201 0
1.1026e-05 0.000337201 0
1.12055e-05 0.000359507 0
1.12055e-05 0.000359507 0
1.13927e-05 0.000382178 0
1.13927e-05 0.000382178 0
1.15897e-05 0.00040523 0
1.15897e-05 0.00040523 0
1.17987e-05 0.000428686 0
1.17987e-05 0.000428686 0
1.20218e-05 0.000452571 0
1.20218e-05 0.000452571 0
1.22616e-05 0.000476918 0
1.22616e-05 0.000476918 0
1.25204e-05 0.00050176 0
1.25204e-05 0.00050176 0
1.28014e-05 0.000527141 0
1.28014e-05 0.000527141 0
1.31063e-05 0.000553104 0
1.31063e-05 0.000553104 0
1.34404e-05 0.000579705 0
1.34404e-05 0.000579705 0
1.38033e-05 0.000606997 0
1.38033e-05 0.000606997 0
1.42055e-05 0.000635055 0
1.42055e-05 0.000635055 0
1.46417e-05 0.000663942 0
1.46417e-05 0.000663942 0
1.51336e-05 0.00069376 0
1.51336e-05 0.00069376 0
1.56634e-05 0.000724585 0
1.56634e-05 0.000724585 0
1.62761e-05 0.000756561 0
1.62761e-05 0.000756561 0
1.69268e-05 0.000789774 0
1.69268e-05 0.000789774 0
1.77106e-05 0.00082444 0
1.77106e-05 0.00082444 0
1.85187e-05 0.000860646 0
1.85187e-05 0.000860646 0
1.95591e-05 0.000898747 0
1.95591e-05 0.000898747 0
2.05698e-05 0.000938787 0
2.05698e-05 0.000938787 0
2.20359e-05 0.000981411 0
2.20359e-05 0.000981411 0
2.32768e-05 0.00102651 0
2.32768e-05 0.00102651 0
2.55333e-05 0.00107532 0
2.55333e-05 0.00107532 0
2.69997e-05 0.00112739 0
2.69997e-05 0.00112739 0
3.08303e-05 0.00118512 0
3.08303e-05 0.00118512 0
3.24116e-05 0.00124739 0
3.24116e-05 0.00124739 0
3.97639e-05 0.001319 0
3.97639e-05 0.001319 0
4.14083e-05 0.00139802 0
4.14083e-05 0.00139802 0
5.77177e-05 0.0014942 0
5.77177e-05 0.0014942 0
6.14572e-05 0.00160726 0
6.14572e-05 0.00160726 0
0.00010704 0.00175576 0
0.00010704 0.00175576 0
0.000129301 0.00195234 0
0.000129301 0.00195234 0
0.000119175 0.00123125 0
0.000119175 0.00123125 0
-0.000335144 0.000254654 0
-0.000335144 0.000254654 0
-0.000725122 0.000108535 0
-0.000725122 0.000108535 0
-0.000885285 9.2772e-05 0
-0.000885285 9.2772e-05 0
-0.000998815 6.50176e-06 0
-0.000998815 6.50176e-06 0
-0.000833678 -0.000197951 0
-0.000833678 -0.000197951 0
-0.000348386 -0.000492683 0
-0.000348386 -0.000492683 0
0.000564779 -0.000605985 0
0.000564779 -0.000605985 0
0.00140687 -0.000452721 0
0.00140687 -0.000452721 0
0.00199733 -0.000277744 0
0.00199733 -0.000277744 0
0.00228534 -0.000144097 0
0.00228534 -0.000144097 0
0.00238345 1.70399e-05 0
0.00238345 1.70399e-05 0
0.00229411 0.000123158 0
0.00229411 0.000123158 0
0.00194491 0.000188661 0
0.00194491 0.000188661 0
0.00146768 0.000276195 0
0.00146768 0.000276195 0
0.00120033 0.000165303 0
0.00120033 0.000165303 0
0.00115623 -0.000113032 0
0.00115623 -0.000113032 0
0.00110521 -0.000141565 0
0.00110521 -0.000141565 0
0.000825742 0.000194388 0
0.000825742 0.000194388 0
0.000263084 0.000492514 0
0.000263084 0.000492514 0
-0.000310122 0.000530654 0
-0.000310122 0.000530654 0
-0.000764461 0.000501623 0
-0.000764461 0.000501623 0
-0.00119515 0.00053841 0
-0.00119515 0.00053841 0
-0.00146739 0.000737365 0
-0.00146739 0.000737365 0
-0.00229228 0.00101133 0
-0.00229228 0.00101133 0
-0.00164537 0.00170079 0
-0.00164537 0.00170079 0
-8.68608e-06 7.55884e-06 0
-8.68608e-06 7.55884e-06 0
-9.2979e-06 1.66463e-05 0
-9.2979e-06 1.66463e-05 0
-9.76064e-06 3.53308e-05 0
-9.76064e-06 3.53308e-05 0
-9.52353e-06 5.3811e-05 0
-9.52353e-06 5.3811e-05 0
-9.40872e-06 7.1677e-05 0
-9.40872e-06 7.1677e-05 0
-9.37101e-06 8.96191e-05 0
-9.37101e-06 8.96191e-05 0
-9.34784e-06 0.000107521 0
-9.34784e-06 0.000107521 0
-9.31713e-06 0.000125392 0
-9.31713e-06 0.000125392 0
-9.27225e-06 0.000143225 0
-9.27225e-06 0.000143225 0
-9.20984e-06 0.00016099 0
-9.20984e-06 0.00016099 0
-9.12615e-06 0.000178651 0
-9.12615e-06 0.000178651 0
-9.01669e-06 0.000196163 0
-9.01669e-06 0.000196163 0
-8.87632e-06 0.000213474 0
-8.87632e-06 0.000213474 0
-8.70016e-06 0.000230516 0
-8.70016e-06 0.000230516 0
-8.48248e-06 0.000247216 0
-8.48248e-06 0.000247216 0
-8.21735e-06 0.000263484 0
-8.21735e-06 0.000263484 0
-7.8998e-06 0.000279221 0
-7.8998e-06 0.000279221 0
-7.52395e-06 0.000294319 0
-7.52395e-06 0.000294319 0
-7.08554e-06 0.000308656 0
-7.08554e-06 0.000308656 0
-6.5831e-06 0.000322101 0
-6.5831e-06 0.000322101 0
-6.01451e-06 0.000334517 0
-6.01451e-06 0.000334517 0
-5.37721e-06 0.000345763 0
-5.37721e-06 0.000345763 0
-4.67259e-06 0.000355693 0
-4.67259e-06 0.000355693 0
-3.9051e-06 0.000364169 0
-3.9051e-06 0.000364169 0
-3.07852e-06 0.000371059 0
-3.07852e-06 0.000371059 0
-2.18979e-06 0.000376249 0
-2.18979e-06 0.000376249 0
-1.24196e-06 0.00037961 0
-1.24196e-06 0.00037961 0
-2.20793e-07 0.000381107 0
-2.20793e-07 0.000381107 0
9.02661e-07 0.000380576 0
9.02661e-07 0.000380576 0
2.09665e-06 0.000377986 0
2.09665e-06 0.000377986 0
3.3138e-06 0.00037319 0
3.3138e-06 0.00037319 0
4.48883e-06 0.000366609 0
4.48883e-06 0.000366609 0
5.62059e-06 0.000357662 0
5.62059e-06 0.000357662 0
6.63547e-06 0.00034795 0
6.63547e-06 0.00034795 0
7.57866e-06 0.000335105 0
7.57866e-06 0.000335105 0
8.29172e-06 0.000323971 0
8.29172e-06 0.000323971 0
8.77975e-06 0.000308457 0
8.77975e-06 0.000308457 0
8.96987e-06 0.00029797 0
8.96987e-06 0.00029797 0
8.61108e-06 0.000281829 0
8.61108e-06 0.000281829 0
7.50517e-06 0.000274952 0
7.50517e-06 0.000274952 0
5.51369e-06 0.000261553 0
5.51369e-06 0.000261553 0
2.44926e-06 0.000263616 0
2.44926e-06 0.000263616 0
-2.65348e-06 0.00025664 0
-2.65348e-06 0.00025664 0
5.23129e-06 0.00028931 0
5.23129e-06 0.00028931 0
-2.73463e-05 0.000264932 0
-2.73463e-05 0.000264932 0
-3.1152e-05 0.000396903 0
-3.1152e-05 0.000396903 0
-0.000115077 0.000422475 0
-0.000115077 0.000422475 0
-0.000228913 0.000692494 0
-0.000228913 0.000692494 0
-0.000466984 0.00105186 0
-0.000466984 0.00105186 0
-0.00047265 0.0016091 0
-0.00047265 0.0016091 0
-1.659e-05 7.48683e-06 0
-1.659e-05 7.48683e-06 0
-3.27654e-05 7.51916e-06 0
-3.27654e-05 7.51916e-06 0
-4.9379e-05 7.69382e-06 0
-4.9379e-05 7.69382e-06 0
-6.60529e-05 7.84701e-06 0
-6.60529e-05 7.84701e-06 0
-8.2866e-05 8.02422e-06 0
-8.2866e-05 8.02422e-06 0
-9.98442e-05 8.2135e-06 0
-9.98442e-05 8.2135e-06 0
-0.000116953 8.39735e-06 0
-0.000116953 8.39735e-06 0
-0.000134188 8.56161e-06 0
-0.000134188 8.56161e-06 0
-0.000151485 8.69133e-06 0
-0.000151485 8.69133e-06 0
-0.0001688 8.77254e-06 0
-0.0001688 8.77254e-06 0
-0.000186048 8.79401e-06 0
-0.000186048 8.79401e-06 0
-0.000203153 8.75104e-06 0
-0.000203153 8.75104e-06 0
-0.00022001 8.64429e-06 0
-0.00022001 8.64429e-06 0
-0.000236513 8.47159e-06 0
-0.000236513 8.47159e-06 0
-0.00025254 8.22792e-06 0
-0.00025254 8.22792e-06 0
-0.000267969 7.9096e-06 0
-0.000267969 7.9096e-06 0
-0.000282666 7.51327e-06 0
-0.000282666 7.51327e-06 0
-0.000296494 7.03565e-06 0
-0.000296494 7.03565e-06 0
-0.000309307 6.47447e-06 0
-0.000309307 6.47447e-06 0
-0.000320953 5.82864e-06 0
-0.000320953 5.82864e-06 0
-0.000331281 5.09811e-06 0
-0.000331281 5.09811e-06 0
-0.000340137 4.28468e-06 0
-0.000340137 4.28468e-06 0
-0.000347375 3.39341e-06 0
-0.000347375 3.39341e-06 0
-0.000352861 2.43331e-06 0
-0.000352861 2.43331e-06 0
-0.000356474 1.41812e-06 0
-0.000356474 1.41812e-06 0
-0.000358102 3.7111e-07 0
-0.000358102 3.7111e-07 0
-0.000357681 -6.83453e-07 0
-0.000357681 -6.83453e-07 0
-0.000355188 -1.73568e-06 0
-0.000355188 -1.73568e-06 0
-0.000350598 -2.78637e-06 0
-0.000350598 -2.78637e-06 0
-0.0003439 -3.83305e-06 0
-0.0003439 -3.83305e-06 0
-0.000335109 -4.86603e-06 0
-0.000335109 -4.86603e-06 0
-0.000324265 -5.87327e-06 0
-0.000324265 -5.87327e-06 0
-0.000311434 -6.84263e-06 0
-0.000311434 -6.84263e-06 0
-0.000296704 -7.76282e-06 0
-0.000296704 -7.76282e-06 0
-0.000280186 -8.62397e-06 0
-0.000280186 -8.62397e-06 0
-0.000262006 -9.41768e-06 0
-0.000262006 -9.41768e-06 0
-0.000242309 -1.01375e-05 0
-0.000242309 -1.01375e-05 0
-0.000221248 -1.07788e-05 0
-0.000221248 -1.07788e-05 0
-0.000198985 -1.13385e-05 0
-0.000198985 -1.13385e-05 0
-0.000175685 -1.1816e-05 0
-0.000175685 -1.1816e-05 0
-0.000151512 -1.22119e-05 0
-0.000151512 -1.22119e-05 0
-0.00012663 -1.25285e-05 0
-0.00012663 -1.25285e-05 0
-0.000101195 -1.27684e-05 0
-0.000101195 -1.27684e-05 0
-7.53556e-05 -1.2936e-05 0
-7.53556e-05 -1.2936e-05 0
-4.92508e-05 -1.30363e-05 0
-4.92508e-05 -1.30363e-05 0
-2.30112e-05 -1.30745e-05 0
-2.30112e-05 -1.30745e-05 0
3.24498e-06 -1.30569e-05 0
3.24498e-06 -1.30569e-05 0
2.94111e-05 -1.29889e-05 0
2.94111e-05 -1.29889e-05 0
5.53936e-05 -1.28765e-05 0
5.53936e-05 -1.28765e-05 0
8.11099e-05 -1.27257e-05 0
8.11099e-05 -1.27257e-05 0
0.000106488 -1.25418e-05 0
0.000106488 -1.25418e-05 0
0.000131468 -1.233e-05 0
0.000131468 -1.233e-05 0
0.000155999 -1.2095e-05 0
0.000155999 -1.2095e-05 0
0.000180039 -1.18414e-05 0
0.000180039 -1.18414e-05 0
0.000203554 -1.15732e-05 0
0.000203554 -1.15732e-05 0
0.000226521 -1.12942e-05 0
0.000226521 -1.12942e-05 0
0.00024892 -1.10075e-05 0
0.00024892 -1.10075e-05 0
0.000270739 -1.07159e-05 0
0.000270739 -1.07159e-05 0
0.000291971 -1.04218e-05 0
0.000291971 -1.04218e-05 0
0.000312613 -1.01274e-05 0
0.000312613 -1.01274e-05 0
0.000332666 -9.83433e-06 0
0.000332666 -9.83433e-06 0
0.000352135 -9.5442e-06 0
0.000352135 -9.5442e-06 0
0.000371026 -9.25816e-06 0
0.000371026 -9.25816e-06 0
0.000389349 -8.97727e-06 0
0.000389349 -8.97727e-06 0
0.000407116 -8.70236e-06 0
0.000407116 -8.70236e-06 0
0.000424338 -8.43402e-06 0
0.000424338 -8.43402e-06 0
0.000441029 -8.17274e-06 0
0.000441029 -8.17274e-06 0
0.000457205 -7.91894e-06 0
0.000457205 -7.91894e-06 0
0.00047288 -7.67285e-06 0
0.00047288 -7.67285e-06 0
0.000488069 -7.43457e-06 0
0.000488069 -7.43457e-06 0
0.00050279 -7.20425e-06 0
0.00050279 -7.20425e-06 0
0.000517056 -6.98203e-06 0
0.000517056 -6.98203e-06 0
0.000530886 -6.76789e-06 0
0.000530886 -6.76789e-06 0
0.000544295 -6.56169e-06 0
0.000544295 -6.56169e-06 0
0.000557298 -6.36327e-06 0
0.000557298 -6.36327e-06 0
0.000569911 -6.17252e-06 0
0.000569911 -6.17252e-06 0
0.00058215 -5.98933e-06 0
0.00058215 -5.98933e-06 0
0.000594029 -5.81358e-06 0
0.000594029 -5.81358e-06 0
0.000605563 -5.64511e-06 0
0.000605563 -5.64511e-06 0
0.000616766 -5.48373e-06 0
0.000616766 -5.48373e-06 0
0.000627653 -5.32926e-06 0
0.000627653 -5.32926e-06 0
0.000638236 -5.18151e-06 0
0.000638236 -5.18151e-06 0
0.000648531 -5.04026e-06 0
0.000648531 -5.04026e-06 0
0.000658546 -4.90535e-06 0
0.000658546 -4.90535e-06 0
0.0006683 -4.77653e-06 0
0.0006683 -4.77653e-06 0
0.000677796 -4.65369e-06 0
0.000677796 -4.65369e-06 0
0.000687061 -4.53651e-06 0
0.000687061 -4.53651e-06 0
0.00069608 -4.42506e-06 0
0.00069608 -4.42506e-06 0
0.000704906 -4.31889e-06 0
0.000704906 -4.31889e-06 0
0.000713486 -4.21834e-06 0
0.000713486 -4.21834e-06 0
0.000721927 -4.12244e-06 0
0.000721927 -4.12244e-06 0
0.000730091 -4.03223e-06 0
0.000730091 -4.03223e-06 0
0.000738216 -3.9459e-06 0
0.000738216 -3.9459e-06 0
0.000745963 -3.86596e-06 0
0.000745963 -3.86596e-06 0
0.000753872 -3.7883e-06 0
0.000753872 -3.7883e-06 0
0.000761143 -3.71868e-06 0
0.000761143 -3.71868e-06 0
0.000769011 -3.64796e-06 0
0.000769011 -3.64796e-06 0
0.000775622 -3.58974e-06 0
0.000775622 -3.58974e-06 0
0.98848 -0.00434445 0
0.98848 -0.00434445 0
1.97618 -0.00868532 0
1.97618 -0.00868532 0
