# vtk DataFile Version 2.0
sampleSurface
ASCII
DATASET POLYDATA
POINTS 652 double
0 0 0
0.02 0 0
0.02 0 0.1
0 0 0.1
0.04 0 0
0.04 0 0.1
0.06 0 0
0.06 0 0.1
0.08 0 0
0.08 0 0.1
0.1 0 0
0.1 0 0.1
0.12 0 0
0.12 0 0.1
0.14 0 0
0.14 0 0.1
0.16 0 0
0.16 0 0.1
0.18 0 0
0.18 0 0.1
0.2 0 0
0.2 0 0.1
0.22 0 0
0.22 0 0.1
0.24 0 0
0.24 0 0.1
0.26 0 0
0.26 0 0.1
0.28 0 0
0.28 0 0.1
0.3 0 0
0.3 0 0.1
0.32 0 0
0.32 0 0.1
0.34 0 0
0.34 0 0.1
0.36 0 0
0.36 0 0.1
0.38 0 0
0.38 0 0.1
0.4 0 0
0.4 0 0.1
0.42 0 0
0.42 0 0.1
0.44 0 0
0.44 0 0.1
0.46 0 0
0.46 0 0.1
0.48 0 0
0.48 0 0.1
0.5 0 0
0.5 0 0.1
0.52 0 0
0.52 0 0.1
0.54 0 0
0.54 0 0.1
0.56 0 0
0.56 0 0.1
0.58 0 0
0.58 0 0.1
0.6 0 0
0.6 0 0.1
0.62 0 0
0.62 0 0.1
0.64 0 0
0.64 0 0.1
0.66 0 0
0.66 0 0.1
0.68 0 0
0.68 0 0.1
0.7 0 0
0.7 0 0.1
0.72 0 0
0.72 0 0.1
0.74 0 0
0.74 0 0.1
0.76 0 0
0.76 0 0.1
0.78 0 0
0.78 0 0.1
0.8 0 0
0.8 0 0.1
0.82 0 0
0.82 0 0.1
0.84 0 0
0.84 0 0.1
0.86 0 0
0.86 0 0.1
0.88 0 0
0.88 0 0.1
0.9 0 0
0.9 0 0.1
0.92 0 0
0.92 0 0.1
0.94 0 0
0.94 0 0.1
0.96 0 0
0.96 0 0.1
0.98 0 0
0.98 0 0.1
1 0 0
1 0 0.1
1.02 0 0
1.02 0 0.1
1.04 0 0
1.04 0 0.1
1.06 0 0
1.06 0 0.1
1.08 0 0
1.08 0 0.1
1.1 0 0
1.1 0 0.1
1.12 0 0
1.12 0 0.1
1.14 0 0
1.14 0 0.1
1.16 0 0
1.16 0 0.1
1.18 0 0
1.18 0 0.1
1.2 0 0
1.2 0 0.1
1.22 0 0
1.22 0 0.1
1.24 0 0
1.24 0 0.1
1.26 0 0
1.26 0 0.1
1.28 0 0
1.28 0 0.1
1.3 0 0
1.3 0 0.1
1.32 0 0
1.32 0 0.1
1.34 0 0
1.34 0 0.1
1.36 0 0
1.36 0 0.1
1.38 0 0
1.38 0 0.1
1.4 0 0
1.4 0 0.1
1.42 0 0
1.42 0 0.1
1.44 0 0
1.44 0 0.1
1.46 0 0
1.46 0 0.1
1.48 0 0
1.48 0 0.1
1.5 0 0
1.5 0 0.1
1.52 0 0
1.52 0 0.1
1.54 0 0
1.54 0 0.1
1.56 0 0
1.56 0 0.1
1.58 0 0
1.58 0 0.1
1.6 0 0
1.6 0 0.1
1.62 0 0
1.62 0 0.1
1.64 0 0
1.64 0 0.1
1.66 0 0
1.66 0 0.1
1.68 0 0
1.68 0 0.1
1.7 0 0
1.7 0 0.1
1.72 0 0
1.72 0 0.1
1.74 0 0
1.74 0 0.1
1.76 0 0
1.76 0 0.1
1.78 0 0
1.78 0 0.1
1.8 0 0
1.8 0 0.1
1.82 0 0
1.82 0 0.1
1.84 0 0
1.84 0 0.1
1.86 0 0
1.86 0 0.1
1.88 0 0
1.88 0 0.1
1.9 0 0
1.9 0 0.1
1.92 0 0
1.92 0 0.1
1.94 0 0
1.94 0 0.1
1.96 0 0
1.96 0 0.1
1.98 0 0
1.98 0 0.1
2 0 0
2 0 0.1
2 0.02 0
2 0.02 0.1
2 0.04 0
2 0.04 0.1
2 0.06 0
2 0.06 0.1
2 0.08 0
2 0.08 0.1
2 0.1 0
2 0.1 0.1
2 0.12 0
2 0.12 0.1
2 0.14 0
2 0.14 0.1
2 0.16 0
2 0.16 0.1
2 0.18 0
2 0.18 0.1
2 0.2 0
2 0.2 0.1
2 0.22 0
2 0.22 0.1
2 0.24 0
2 0.24 0.1
2 0.26 0
2 0.26 0.1
2 0.28 0
2 0.28 0.1
2 0.3 0
2 0.3 0.1
2 0.32 0
2 0.32 0.1
2 0.34 0
2 0.34 0.1
2 0.36 0
2 0.36 0.1
2 0.38 0
2 0.38 0.1
2 0.4 0
2 0.4 0.1
2 0.42 0
2 0.42 0.1
2 0.44 0
2 0.44 0.1
2 0.46 0
2 0.46 0.1
2 0.48 0
2 0.48 0.1
2 0.5 0
2 0.5 0.1
2 0.52 0
2 0.52 0.1
2 0.54 0
2 0.54 0.1
2 0.56 0
2 0.56 0.1
2 0.58 0
2 0.58 0.1
2 0.6 0
2 0.6 0.1
2 0.62 0
2 0.62 0.1
2 0.64 0
2 0.64 0.1
2 0.66 0
2 0.66 0.1
2 0.68 0
2 0.68 0.1
2 0.7 0
2 0.7 0.1
2 0.72 0
2 0.72 0.1
2 0.74 0
2 0.74 0.1
2 0.76 0
2 0.76 0.1
2 0.78 0
2 0.78 0.1
2 0.8 0
2 0.8 0.1
2 0.82 0
2 0.82 0.1
2 0.84 0
2 0.84 0.1
2 0.86 0
2 0.86 0.1
2 0.88 0
2 0.88 0.1
2 0.9 0
2 0.9 0.1
2 0.92 0
2 0.92 0.1
2 0.94 0
2 0.94 0.1
2 0.96 0
2 0.96 0.1
2 0.98 0
2 0.98 0.1
2 1 0
2 1 0.1
2.02 1 0
2.02 1 0.1
2.04 1 0
2.04 1 0.1
2.06 1 0
2.06 1 0.1
2.08 1 0
2.08 1 0.1
2.1 1 0
2.1 1 0.1
2.12 1 0
2.12 1 0.1
2.14 1 0
2.14 1 0.1
2.16 1 0
2.16 1 0.1
2.18 1 0
2.18 1 0.1
2.2 1 0
2.2 1 0.1
2.22 1 0
2.22 1 0.1
2.24 1 0
2.24 1 0.1
2.26 1 0
2.26 1 0.1
2.28 1 0
2.28 1 0.1
2.3 1 0
2.3 1 0.1
2.32 1 0
2.32 1 0.1
2.34 1 0
2.34 1 0.1
2.36 1 0
2.36 1 0.1
2.38 1 0
2.38 1 0.1
2.4 1 0
2.4 1 0.1
2.42 1 0
2.42 1 0.1
2.44 1 0
2.44 1 0.1
2.46 1 0
2.46 1 0.1
2.48 1 0
2.48 1 0.1
2.5 1 0
2.5 1 0.1
2.5 0 0
2.5 0 0.1
2.5 0.02 0.1
2.5 0.02 0
2.5 0.04 0.1
2.5 0.04 0
2.5 0.06 0.1
2.5 0.06 0
2.5 0.08 0.1
2.5 0.08 0
2.5 0.1 0.1
2.5 0.1 0
2.5 0.12 0.1
2.5 0.12 0
2.5 0.14 0.1
2.5 0.14 0
2.5 0.16 0.1
2.5 0.16 0
2.5 0.18 0.1
2.5 0.18 0
2.5 0.2 0.1
2.5 0.2 0
2.5 0.22 0.1
2.5 0.22 0
2.5 0.24 0.1
2.5 0.24 0
2.5 0.26 0.1
2.5 0.26 0
2.5 0.28 0.1
2.5 0.28 0
2.5 0.3 0.1
2.5 0.3 0
2.5 0.32 0.1
2.5 0.32 0
2.5 0.34 0.1
2.5 0.34 0
2.5 0.36 0.1
2.5 0.36 0
2.5 0.38 0.1
2.5 0.38 0
2.5 0.4 0.1
2.5 0.4 0
2.5 0.42 0.1
2.5 0.42 0
2.5 0.44 0.1
2.5 0.44 0
2.5 0.46 0.1
2.5 0.46 0
2.5 0.48 0.1
2.5 0.48 0
2.5 0.5 0.1
2.5 0.5 0
2.5 0.52 0.1
2.5 0.52 0
2.5 0.54 0.1
2.5 0.54 0
2.5 0.56 0.1
2.5 0.56 0
2.5 0.58 0.1
2.5 0.58 0
2.5 0.6 0.1
2.5 0.6 0
2.5 0.62 0.1
2.5 0.62 0
2.5 0.64 0.1
2.5 0.64 0
2.5 0.66 0.1
2.5 0.66 0
2.5 0.68 0.1
2.5 0.68 0
2.5 0.7 0.1
2.5 0.7 0
2.5 0.72 0.1
2.5 0.72 0
2.5 0.74 0.1
2.5 0.74 0
2.5 0.76 0.1
2.5 0.76 0
2.5 0.78 0.1
2.5 0.78 0
2.5 0.8 0.1
2.5 0.8 0
2.5 0.82 0.1
2.5 0.82 0
2.5 0.84 0.1
2.5 0.84 0
2.5 0.86 0.1
2.5 0.86 0
2.5 0.88 0.1
2.5 0.88 0
2.5 0.9 0.1
2.5 0.9 0
2.5 0.92 0.1
2.5 0.92 0
2.5 0.94 0.1
2.5 0.94 0
2.5 0.96 0.1
2.5 0.96 0
2.5 0.98 0.1
2.5 0.98 0
2.52 0 0
2.52 0 0.1
2.54 0 0
2.54 0 0.1
2.56 0 0
2.56 0 0.1
2.58 0 0
2.58 0 0.1
2.6 0 0
2.6 0 0.1
2.62 0 0
2.62 0 0.1
2.64 0 0
2.64 0 0.1
2.66 0 0
2.66 0 0.1
2.68 0 0
2.68 0 0.1
2.7 0 0
2.7 0 0.1
2.72 0 0
2.72 0 0.1
2.74 0 0
2.74 0 0.1
2.76 0 0
2.76 0 0.1
2.78 0 0
2.78 0 0.1
2.8 0 0
2.8 0 0.1
2.82 0 0
2.82 0 0.1
2.84 0 0
2.84 0 0.1
2.86 0 0
2.86 0 0.1
2.88 0 0
2.88 0 0.1
2.9 0 0
2.9 0 0.1
2.92 0 0
2.92 0 0.1
2.94 0 0
2.94 0 0.1
2.96 0 0
2.96 0 0.1
2.98 0 0
2.98 0 0.1
3 0 0
3 0 0.1
3.02 0 0
3.02 0 0.1
3.04 0 0
3.04 0 0.1
3.06 0 0
3.06 0 0.1
3.08 0 0
3.08 0 0.1
3.1 0 0
3.1 0 0.1
3.12 0 0
3.12 0 0.1
3.14 0 0
3.14 0 0.1
3.16 0 0
3.16 0 0.1
3.18 0 0
3.18 0 0.1
3.2 0 0
3.2 0 0.1
3.22 0 0
3.22 0 0.1
3.24 0 0
3.24 0 0.1
3.26 0 0
3.26 0 0.1
3.28 0 0
3.28 0 0.1
3.3 0 0
3.3 0 0.1
3.32 0 0
3.32 0 0.1
3.34 0 0
3.34 0 0.1
3.36 0 0
3.36 0 0.1
3.38 0 0
3.38 0 0.1
3.4 0 0
3.4 0 0.1
3.42 0 0
3.42 0 0.1
3.44 0 0
3.44 0 0.1
3.46 0 0
3.46 0 0.1
3.48 0 0
3.48 0 0.1
3.5 0 0
3.5 0 0.1
3.52 0 0
3.52 0 0.1
3.54 0 0
3.54 0 0.1
3.56 0 0
3.56 0 0.1
3.58 0 0
3.58 0 0.1
3.6 0 0
3.6 0 0.1
3.62 0 0
3.62 0 0.1
3.64 0 0
3.64 0 0.1
3.66 0 0
3.66 0 0.1
3.68 0 0
3.68 0 0.1
3.7 0 0
3.7 0 0.1
3.72 0 0
3.72 0 0.1
3.74 0 0
3.74 0 0.1
3.76 0 0
3.76 0 0.1
3.78 0 0
3.78 0 0.1
3.8 0 0
3.8 0 0.1
3.82 0 0
3.82 0 0.1
3.84 0 0
3.84 0 0.1
3.86 0 0
3.86 0 0.1
3.88 0 0
3.88 0 0.1
3.9 0 0
3.9 0 0.1
3.92 0 0
3.92 0 0.1
3.94 0 0
3.94 0 0.1
3.96 0 0
3.96 0 0.1
3.98 0 0
3.98 0 0.1
4 0 0
4 0 0.1
4.02 0 0
4.02 0 0.1
4.04 0 0
4.04 0 0.1
4.06 0 0
4.06 0 0.1
4.08 0 0
4.08 0 0.1
4.1 0 0
4.1 0 0.1
4.12 0 0
4.12 0 0.1
4.14 0 0
4.14 0 0.1
4.16 0 0
4.16 0 0.1
4.18 0 0
4.18 0 0.1
4.2 0 0
4.2 0 0.1
4.22 0 0
4.22 0 0.1
4.24 0 0
4.24 0 0.1
4.26 0 0
4.26 0 0.1
4.28 0 0
4.28 0 0.1
4.3 0 0
4.3 0 0.1
4.32 0 0
4.32 0 0.1
4.34 0 0
4.34 0 0.1
4.36 0 0
4.36 0 0.1
4.38 0 0
4.38 0 0.1
4.4 0 0
4.4 0 0.1
4.42 0 0
4.42 0 0.1
4.44 0 0
4.44 0 0.1
4.46 0 0
4.46 0 0.1
4.48 0 0
4.48 0 0.1
4.5 0 0
4.5 0 0.1

POLYGONS 325 1625
4 0 1 2 3
4 1 4 5 2
4 4 6 7 5
4 6 8 9 7
4 8 10 11 9
4 10 12 13 11
4 12 14 15 13
4 14 16 17 15
4 16 18 19 17
4 18 20 21 19
4 20 22 23 21
4 22 24 25 23
4 24 26 27 25
4 26 28 29 27
4 28 30 31 29
4 30 32 33 31
4 32 34 35 33
4 34 36 37 35
4 36 38 39 37
4 38 40 41 39
4 40 42 43 41
4 42 44 45 43
4 44 46 47 45
4 46 48 49 47
4 48 50 51 49
4 50 52 53 51
4 52 54 55 53
4 54 56 57 55
4 56 58 59 57
4 58 60 61 59
4 60 62 63 61
4 62 64 65 63
4 64 66 67 65
4 66 68 69 67
4 68 70 71 69
4 70 72 73 71
4 72 74 75 73
4 74 76 77 75
4 76 78 79 77
4 78 80 81 79
4 80 82 83 81
4 82 84 85 83
4 84 86 87 85
4 86 88 89 87
4 88 90 91 89
4 90 92 93 91
4 92 94 95 93
4 94 96 97 95
4 96 98 99 97
4 98 100 101 99
4 100 102 103 101
4 102 104 105 103
4 104 106 107 105
4 106 108 109 107
4 108 110 111 109
4 110 112 113 111
4 112 114 115 113
4 114 116 117 115
4 116 118 119 117
4 118 120 121 119
4 120 122 123 121
4 122 124 125 123
4 124 126 127 125
4 126 128 129 127
4 128 130 131 129
4 130 132 133 131
4 132 134 135 133
4 134 136 137 135
4 136 138 139 137
4 138 140 141 139
4 140 142 143 141
4 142 144 145 143
4 144 146 147 145
4 146 148 149 147
4 148 150 151 149
4 150 152 153 151
4 152 154 155 153
4 154 156 157 155
4 156 158 159 157
4 158 160 161 159
4 160 162 163 161
4 162 164 165 163
4 164 166 167 165
4 166 168 169 167
4 168 170 171 169
4 170 172 173 171
4 172 174 175 173
4 174 176 177 175
4 176 178 179 177
4 178 180 181 179
4 180 182 183 181
4 182 184 185 183
4 184 186 187 185
4 186 188 189 187
4 188 190 191 189
4 190 192 193 191
4 192 194 195 193
4 194 196 197 195
4 196 198 199 197
4 198 200 201 199
4 200 202 203 201
4 202 204 205 203
4 204 206 207 205
4 206 208 209 207
4 208 210 211 209
4 210 212 213 211
4 212 214 215 213
4 214 216 217 215
4 216 218 219 217
4 218 220 221 219
4 220 222 223 221
4 222 224 225 223
4 224 226 227 225
4 226 228 229 227
4 228 230 231 229
4 230 232 233 231
4 232 234 235 233
4 234 236 237 235
4 236 238 239 237
4 238 240 241 239
4 240 242 243 241
4 242 244 245 243
4 244 246 247 245
4 246 248 249 247
4 248 250 251 249
4 250 252 253 251
4 252 254 255 253
4 254 256 257 255
4 256 258 259 257
4 258 260 261 259
4 260 262 263 261
4 262 264 265 263
4 264 266 267 265
4 266 268 269 267
4 268 270 271 269
4 270 272 273 271
4 272 274 275 273
4 274 276 277 275
4 276 278 279 277
4 278 280 281 279
4 280 282 283 281
4 282 284 285 283
4 284 286 287 285
4 286 288 289 287
4 288 290 291 289
4 290 292 293 291
4 292 294 295 293
4 294 296 297 295
4 296 298 299 297
4 298 300 301 299
4 300 302 303 301
4 302 304 305 303
4 304 306 307 305
4 306 308 309 307
4 308 310 311 309
4 310 312 313 311
4 312 314 315 313
4 314 316 317 315
4 316 318 319 317
4 318 320 321 319
4 320 322 323 321
4 322 324 325 323
4 324 326 327 325
4 326 328 329 327
4 328 330 331 329
4 330 332 333 331
4 332 334 335 333
4 334 336 337 335
4 336 338 339 337
4 338 340 341 339
4 340 342 343 341
4 342 344 345 343
4 344 346 347 345
4 346 348 349 347
4 348 350 351 349
4 352 353 354 355
4 355 354 356 357
4 357 356 358 359
4 359 358 360 361
4 361 360 362 363
4 363 362 364 365
4 365 364 366 367
4 367 366 368 369
4 369 368 370 371
4 371 370 372 373
4 373 372 374 375
4 375 374 376 377
4 377 376 378 379
4 379 378 380 381
4 381 380 382 383
4 383 382 384 385
4 385 384 386 387
4 387 386 388 389
4 389 388 390 391
4 391 390 392 393
4 393 392 394 395
4 395 394 396 397
4 397 396 398 399
4 399 398 400 401
4 401 400 402 403
4 403 402 404 405
4 405 404 406 407
4 407 406 408 409
4 409 408 410 411
4 411 410 412 413
4 413 412 414 415
4 415 414 416 417
4 417 416 418 419
4 419 418 420 421
4 421 420 422 423
4 423 422 424 425
4 425 424 426 427
4 427 426 428 429
4 429 428 430 431
4 431 430 432 433
4 433 432 434 435
4 435 434 436 437
4 437 436 438 439
4 439 438 440 441
4 441 440 442 443
4 443 442 444 445
4 445 444 446 447
4 447 446 448 449
4 449 448 450 451
4 451 450 351 350
4 352 452 453 353
4 452 454 455 453
4 454 456 457 455
4 456 458 459 457
4 458 460 461 459
4 460 462 463 461
4 462 464 465 463
4 464 466 467 465
4 466 468 469 467
4 468 470 471 469
4 470 472 473 471
4 472 474 475 473
4 474 476 477 475
4 476 478 479 477
4 478 480 481 479
4 480 482 483 481
4 482 484 485 483
4 484 486 487 485
4 486 488 489 487
4 488 490 491 489
4 490 492 493 491
4 492 494 495 493
4 494 496 497 495
4 496 498 499 497
4 498 500 501 499
4 500 502 503 501
4 502 504 505 503
4 504 506 507 505
4 506 508 509 507
4 508 510 511 509
4 510 512 513 511
4 512 514 515 513
4 514 516 517 515
4 516 518 519 517
4 518 520 521 519
4 520 522 523 521
4 522 524 525 523
4 524 526 527 525
4 526 528 529 527
4 528 530 531 529
4 530 532 533 531
4 532 534 535 533
4 534 536 537 535
4 536 538 539 537
4 538 540 541 539
4 540 542 543 541
4 542 544 545 543
4 544 546 547 545
4 546 548 549 547
4 548 550 551 549
4 550 552 553 551
4 552 554 555 553
4 554 556 557 555
4 556 558 559 557
4 558 560 561 559
4 560 562 563 561
4 562 564 565 563
4 564 566 567 565
4 566 568 569 567
4 568 570 571 569
4 570 572 573 571
4 572 574 575 573
4 574 576 577 575
4 576 578 579 577
4 578 580 581 579
4 580 582 583 581
4 582 584 585 583
4 584 586 587 585
4 586 588 589 587
4 588 590 591 589
4 590 592 593 591
4 592 594 595 593
4 594 596 597 595
4 596 598 599 597
4 598 600 601 599
4 600 602 603 601
4 602 604 605 603
4 604 606 607 605
4 606 608 609 607
4 608 610 611 609
4 610 612 613 611
4 612 614 615 613
4 614 616 617 615
4 616 618 619 617
4 618 620 621 619
4 620 622 623 621
4 622 624 625 623
4 624 626 627 625
4 626 628 629 627
4 628 630 631 629
4 630 632 633 631
4 632 634 635 633
4 634 636 637 635
4 636 638 639 637
4 638 640 641 639
4 640 642 643 641
4 642 644 645 643
4 644 646 647 645
4 646 648 649 647
4 648 650 651 649
POINT_DATA 652
FIELD attributes 1
U 3 652 float
2.5595 0.0333082 0.0249852
1.28025 0.01666 0.0124926
1.28025 0.01666 0.0124926
2.5595 0.0333082 0.0249852
0.000993363 8.0936e-06 0
0.000993363 8.0936e-06 0
0.000989412 2.29285e-06 0
0.000989412 2.29285e-06 0
0.000989437 1.73698e-08 0
0.000989437 1.73698e-08 0
0.000990392 3.73196e-07 0
0.000990392 3.73196e-07 0
0.00099094 1.05126e-06 0
0.00099094 1.05126e-06 0
0.000990996 7.04735e-07 0
0.000990996 7.04735e-07 0
0.000990272 -1.66107e-07 0
0.000990272 -1.66107e-07 0
0.000988411 -6.92284e-07 0
0.000988411 -6.92284e-07 0
0.000985536 -5.4783e-07 0
0.000985536 -5.4783e-07 0
0.00098247 9.57435e-08 0
0.00098247 9.57435e-08 0
0.000980195 8.40711e-07 0
0.000980195 8.40711e-07 0
0.000978968 1.40913e-06 0
0.000978968 1.40913e-06 0
0.000978021 1.77854e-06 0
0.000978021 1.77854e-06 0
0.000976154 1.99608e-06 0
0.000976154 1.99608e-06 0
0.000972769 1.95903e-06 0
0.000972769 1.95903e-06 0
0.000968392 1.49885e-06 0
0.000968392 1.49885e-06 0
0.000964126 6.96239e-07 0
0.000964126 6.96239e-07 0
0.000960594 7.10189e-09 0
0.000960594 7.10189e-09 0
0.00095748 -1.04621e-07 0
0.00095748 -1.04621e-07 0
0.000954066 3.32653e-07 0
0.000954066 3.32653e-07 0
0.000950066 8.32097e-07 0
0.000950066 8.32097e-07 0
0.000945869 1.03628e-06 0
0.000945869 1.03628e-06 0
0.000941997 1.18777e-06 0
0.000941997 1.18777e-06 0
0.000938459 1.87709e-06 0
0.000938459 1.87709e-06 0
0.000934715 3.27369e-06 0
0.000934715 3.27369e-06 0
0.000930248 4.73744e-06 0
0.000930248 4.73744e-06 0
0.000925101 5.3258e-06 0
0.000925101 5.3258e-06 0
0.000919797 4.73012e-06 0
0.000919797 4.73012e-06 0
0.000914742 3.6857e-06 0
0.000914742 3.6857e-06 0
0.000909759 3.37739e-06 0
0.000909759 3.37739e-06 0
0.000904226 4.36951e-06 0
0.000904226 4.36951e-06 0
0.000897676 6.07909e-06 0
0.000897676 6.07909e-06 0
0.00089028 7.27195e-06 0
0.00089028 7.27195e-06 0
0.000882742 7.11061e-06 0
0.000882742 7.11061e-06 0
0.00087571 5.83861e-06 0
0.00087571 5.83861e-06 0
0.000869226 4.55526e-06 0
0.000869226 4.55526e-06 0
0.000862626 4.34902e-06 0
0.000862626 4.34902e-06 0
0.000854903 5.53985e-06 0
0.000854903 5.53985e-06 0
0.000845295 7.55296e-06 0
0.000845295 7.55296e-06 0
0.000833695 9.39772e-06 0
0.000833695 9.39772e-06 0
0.000820664 1.03162e-05 0
0.000820664 1.03162e-05 0
0.000807081 1.01389e-05 0
0.000807081 1.01389e-05 0
0.00079372 9.20226e-06 0
0.00079372 9.20226e-06 0
0.000781002 8.0204e-06 0
0.000781002 8.0204e-06 0
0.000768979 6.995e-06 0
0.000768979 6.995e-06 0
0.000757473 6.30428e-06 0
0.000757473 6.30428e-06 0
0.000746235 5.94375e-06 0
0.000746235 5.94375e-06 0
0.000735051 5.82197e-06 0
0.000735051 5.82197e-06 0
0.000723779 5.83862e-06 0
0.000723779 5.83862e-06 0
0.000712344 5.92128e-06 0
0.000712344 5.92128e-06 0
0.000700714 6.02978e-06 0
0.000700714 6.02978e-06 0
0.000688876 6.14649e-06 0
0.000688876 6.14649e-06 0
0.000676828 6.26547e-06 0
0.000676828 6.26547e-06 0
0.000664568 6.3853e-06 0
0.000664568 6.3853e-06 0
0.000652093 6.50579e-06 0
0.000652093 6.50579e-06 0
0.000639402 6.62681e-06 0
0.000639402 6.62681e-06 0
0.000626492 6.74814e-06 0
0.000626492 6.74814e-06 0
0.000613361 6.86945e-06 0
0.000613361 6.86945e-06 0
0.000600007 6.9904e-06 0
0.000600007 6.9904e-06 0
0.000586428 7.11065e-06 0
0.000586428 7.11065e-06 0
0.000572623 7.22983e-06 0
0.000572623 7.22983e-06 0
0.000558592 7.34733e-06 0
0.000558592 7.34733e-06 0
0.000544336 7.46215e-06 0
0.000544336 7.46215e-06 0
0.000529855 7.57302e-06 0
0.000529855 7.57302e-06 0
0.000515152 7.67874e-06 0
0.000515152 7.67874e-06 0
0.00050023 7.77814e-06 0
0.00050023 7.77814e-06 0
0.000485091 7.87008e-06 0
0.000485091 7.87008e-06 0
0.000469744 7.95338e-06 0
0.000469744 7.95338e-06 0
0.000454194 8.02673e-06 0
0.000454194 8.02673e-06 0
0.00043845 8.08874e-06 0
0.00043845 8.08874e-06 0
0.000422524 8.1379e-06 0
0.000422524 8.1379e-06 0
0.000406429 8.17256e-06 0
0.000406429 8.17256e-06 0
0.00039018 8.19101e-06 0
0.00039018 8.19101e-06 0
0.000373794 8.19142e-06 0
0.000373794 8.19142e-06 0
0.000357292 8.17195e-06 0
0.000357292 8.17195e-06 0
0.000340697 8.13071e-06 0
0.000340697 8.13071e-06 0
0.000324036 8.06587e-06 0
0.000324036 8.06587e-06 0
0.000307335 7.97579e-06 0
0.000307335 7.97579e-06 0
0.000290627 7.85901e-06 0
0.000290627 7.85901e-06 0
0.000273944 7.71437e-06 0
0.000273944 7.71437e-06 0
0.000257323 7.5411e-06 0
0.000257323 7.5411e-06 0
0.000240801 7.33893e-06 0
0.000240801 7.33893e-06 0
0.000224416 7.10827e-06 0
0.000224416 7.10827e-06 0
0.000208207 6.85034e-06 0
0.000208207 6.85034e-06 0
0.000192212 6.56724e-06 0
0.000192212 6.56724e-06 0
0.000176466 6.26206e-06 0
0.000176466 6.26206e-06 0
0.000161003 5.93886e-06 0
0.000161003 5.93886e-06 0
0.000145851 5.60272e-06 0
0.000145851 5.60272e-06 0
0.000131033 5.25964e-06 0
0.000131033 5.25964e-06 0
0.000116564 4.91647e-06 0
0.000116564 4.91647e-06 0
0.000102452 4.58068e-06 0
0.000102452 4.58068e-06 0
8.86932e-05 4.26017e-06 0
8.86932e-05 4.26017e-06 0
7.5276e-05 3.96297e-06 0
7.5276e-05 3.96297e-06 0
6.2177e-05 3.69674e-06 0
6.2177e-05 3.69674e-06 0
4.93634e-05 3.46859e-06 0
4.93634e-05 3.46859e-06 0
3.67913e-05 3.28365e-06 0
3.67913e-05 3.28365e-06 0
2.44129e-05 3.14241e-06 0
2.44129e-05 3.14241e-06 0
1.21661e-05 3.0599e-06 0
1.21661e-05 3.0599e-06 0
6.06578e-06 3.03738e-06 0
6.06578e-06 3.03738e-06 0
8.39714e-06 1.22708e-05 0
8.39714e-06 1.22708e-05 0
1.09475e-05 3.35591e-05 0
1.09475e-05 3.35591e-05 0
1.08948e-05 5.61709e-05 0
1.08948e-05 5.61709e-05 0
1.03811e-05 7.72325e-05 0
1.03811e-05 7.72325e-05 0
1.00098e-05 9.77215e-05 0
1.00098e-05 9.77215e-05 0
9.83694e-06 0.00011753 0
9.83694e-06 0.00011753 0
9.79754e-06 0.00013717 0
9.79754e-06 0.00013717 0
9.82908e-06 0.00015684 0
9.82908e-06 0.00015684 0
9.8941e-06 0.000176617 0
9.8941e-06 0.000176617 0
9.97491e-06 0.000196541 0
9.97491e-06 0.000196541 0
1.00648e-05 0.000216635 0
1.00648e-05 0.000216635 0
1.01623e-05 0.000236917 0
1.01623e-05 0.000236917 0
1.02677e-05 0.000257402 0
1.02677e-05 0.000257402 0
1.03819e-05 0.000278105 0
1.03819e-05 0.000278105 0
1.0506e-05 0.000299046 0
1.0506e-05 0.000299046 0
1.06411e-05 0.000320245 0
1.06411e-05 0.000320245 0
1.07881e-05 0.000341725 0
1.07881e-05 0.000341725 0
1.09483e-05 0.000363512 0
1.09483e-05 0.000363512 0
1.11227e-05 0.000385632 0
1.11227e-05 0.000385632 0
1.13126e-05 0.000408116 0
1.13126e-05 0.000408116 0
1.15194e-05 0.000430995 0
1.15194e-05 0.000430995 0
1.17454e-05 0.000454306 0
1.17454e-05 0.000454306 0
1.19914e-05 0.000478086 0
1.19914e-05 0.000478086 0
1.22605e-05 0.000502381 0
1.22605e-05 0.000502381 0
1.25542e-05 0.000527236 0
1.25542e-05 0.000527236 0
1.28778e-05 0.000552708 0
1.28778e-05 0.000552708 0
1.32298e-05 0.000578849 0
1.32298e-05 0.000578849 0
1.36215e-05 0.000605736 0
1.36215e-05 0.000605736 0
1.40477e-05 0.000633433 0
1.40477e-05 0.000633433 0
1.45281e-05 0.000662039 0
1.45281e-05 0.000662039 0
1.50492e-05 0.000691632 0
1.50492e-05 0.000691632 0
1.56493e-05 0.000722354 0
1.56493e-05 0.000722354 0
1.62892e-05 0.000754292 0
1.62892e-05 0.000754292 0
1.70619e-05 0.000787661 0
1.70619e-05 0.000787661 0
1.78614e-05 0.000822551 0
1.78614e-05 0.000822551 0
1.88874e-05 0.000859308 0
1.88874e-05 0.000859308 0
1.98898e-05 0.00089799 0
1.98898e-05 0.00089799 0
2.13353e-05 0.000939223 0
2.13353e-05 0.000939223 0
2.25894e-05 0.000982922 0
2.25894e-05 0.000982922 0
2.48026e-05 0.00103032 0
2.48026e-05 0.00103032 0
2.6309e-05 0.00108092 0
2.6309e-05 0.00108092 0
3.01058e-05 0.00113726 0
3.01058e-05 0.00113726 0
3.17287e-05 0.00119799 0
3.17287e-05 0.00119799 0
3.91375e-05 0.00126837 0
3.91375e-05 0.00126837 0
4.07491e-05 0.00134577 0
4.07491e-05 0.00134577 0
5.77084e-05 0.00144118 0
5.77084e-05 0.00144118 0
6.11893e-05 0.00155318 0
6.11893e-05 0.00155318 0
0.000109549 0.00170213 0
0.000109549 0.00170213 0
0.000132331 0.00190094 0
0.000132331 0.00190094 0
0.0001374 0.00121706 0
0.0001374 0.00121706 0
-0.000317022 0.000199154 0
-0.000317022 0.000199154 0
-0.000467367 -7.52725e-05 0
-0.000467367 -7.52725e-05 0
-0.000162547 -0.000145568 0
-0.000162547 -0.000145568 0
0.0002674 -0.000288474 0
0.0002674 -0.000288474 0
0.000913296 -0.000237006 0
0.000913296 -0.000237006 0
0.000970701 6.08712e-05 0
0.000970701 6.08712e-05 0
0.000672464 0.000141826 0
0.000672464 0.000141826 0
0.000294757 0.000148152 0
0.000294757 0.000148152 0
-0.000326353 0.000330352 0
-0.000326353 0.000330352 0
-0.00116529 0.000444775 0
-0.00116529 0.000444775 0
-0.0019069 0.00039465 0
-0.0019069 0.00039465 0
-0.0025154 0.000314004 0
-0.0025154 0.000314004 0
-0.00298212 0.000228019 0
-0.00298212 0.000228019 0
-0.00329961 0.000143405 0
-0.00329961 0.000143405 0
-0.00346969 6.41498e-05 0
-0.00346969 6.41498e-05 0
-0.00349996 -6.91725e-06 0
-0.00349996 -6.91725e-06 0
-0.00340999 -6.75955e-05 0
-0.00340999 -6.75955e-05 0
-0.00321827 -0.000116807 0
-0.00321827 -0.000116807 0
-0.00294445 -0.000154337 0
-0.00294445 -0.000154337 0
-0.0026113 -0.000181216 0
-0.0026113 -0.000181216 0
-0.00223809 -0.000199276 0
-0.00223809 -0.000199276 0
-0.00184092 -0.000211053 0
-0.00184092 -0.000211053 0
-0.00143207 -0.000217859 0
-0.00143207 -0.000217859 0
-0.00102289 -0.000212443 0
-0.00102289 -0.000212443 0
-0.00040143 -1.40507e-05 0
-0.00040143 -1.40507e-05 0
-6.66981e-06 5.95334e-06 0
-6.66981e-06 5.95334e-06 0
-6.75733e-06 1.20146e-05 0
-6.75733e-06 1.20146e-05 0
-6.84697e-06 2.4238e-05 0
-6.84697e-06 2.4238e-05 0
-6.89885e-06 3.66098e-05 0
-6.89885e-06 3.66098e-05 0
-7.01921e-06 4.91697e-05 0
-7.01921e-06 4.91697e-05 0
-7.17782e-06 6.20486e-05 0
-7.17782e-06 6.20486e-05 0
-7.37187e-06 7.53232e-05 0
-7.37187e-06 7.53232e-05 0
-7.60102e-06 8.9072e-05 0
-7.60102e-06 8.9072e-05 0
-7.86502e-06 0.000103374 0
-7.86502e-06 0.000103374 0
-8.16343e-06 0.000118309 0
-8.16343e-06 0.000118309 0
-8.49497e-06 0.000133952 0
-8.49497e-06 0.000133952 0
-8.85854e-06 0.000150379 0
-8.85854e-06 0.000150379 0
-9.25187e-06 0.00016766 0
-9.25187e-06 0.00016766 0
-9.67179e-06 0.000185862 0
-9.67179e-06 0.000185862 0
-1.01141e-05 0.000205041 0
-1.01141e-05 0.000205041 0
-1.05731e-05 0.000225243 0
-1.05731e-05 0.000225243 0
-1.10409e-05 0.000246502 0
-1.10409e-05 0.000246502 0
-1.15081e-05 0.000268827 0
-1.15081e-05 0.000268827 0
-1.19608e-05 0.000292213 0
-1.19608e-05 0.000292213 0
-1.23852e-05 0.000316605 0
-1.23852e-05 0.000316605 0
-1.27567e-05 0.000341938 0
-1.27567e-05 0.000341938 0
-1.30588e-05 0.000368076 0
-1.30588e-05 0.000368076 0
-1.32595e-05 0.00039486 0
-1.32595e-05 0.00039486 0
-1.33204e-05 0.000422054 0
-1.33204e-05 0.000422054 0
-1.32239e-05 0.000449344 0
-1.32239e-05 0.000449344 0
-1.29256e-05 0.000476379 0
-1.29256e-05 0.000476379 0
-1.23708e-05 0.0005027 0
-1.23708e-05 0.0005027 0
-1.15372e-05 0.000527724 0
-1.15372e-05 0.000527724 0
-1.04121e-05 0.000550873 0
-1.04121e-05 0.000550873 0
-8.94325e-06 0.000571464 0
-8.94325e-06 0.000571464 0
-7.06783e-06 0.000588755 0
-7.06783e-06 0.000588755 0
-4.77366e-06 0.000601872 0
-4.77366e-06 0.000601872 0
-2.08939e-06 0.000610065 0
-2.08939e-06 0.000610065 0
1.05542e-06 0.000612539 0
1.05542e-06 0.000612539 0
4.779e-06 0.000608541 0
4.779e-06 0.000608541 0
9.03428e-06 0.000597023 0
9.03428e-06 0.000597023 0
1.37375e-05 0.000577687 0
1.37375e-05 0.000577687 0
1.87911e-05 0.000549553 0
1.87911e-05 0.000549553 0
2.42475e-05 0.000512607 0
2.42475e-05 0.000512607 0
3.0233e-05 0.000465794 0
3.0233e-05 0.000465794 0
3.72936e-05 0.000409183 0
3.72936e-05 0.000409183 0
4.4898e-05 0.000340523 0
4.4898e-05 0.000340523 0
5.39653e-05 0.000260187 0
5.39653e-05 0.000260187 0
6.33287e-05 0.000166064 0
6.33287e-05 0.000166064 0
7.37995e-05 5.74415e-05 0
7.37995e-05 5.74415e-05 0
6.13239e-05 -5.83683e-05 0
6.13239e-05 -5.83683e-05 0
-1.41736e-05 -0.000150178 0
-1.41736e-05 -0.000150178 0
-0.000131607 -0.000123376 0
-0.000131607 -0.000123376 0
-0.000196498 -1.30568e-05 0
-0.000196498 -1.30568e-05 0
-9.20191e-05 0.000107552 0
-9.20191e-05 0.000107552 0
-1.20126e-05 5.65009e-06 0
-1.20126e-05 5.65009e-06 0
-2.2738e-05 5.41239e-06 0
-2.2738e-05 5.41239e-06 0
-3.3754e-05 5.4503e-06 0
-3.3754e-05 5.4503e-06 0
-4.46762e-05 5.34644e-06 0
-4.46762e-05 5.34644e-06 0
-5.52326e-05 5.17153e-06 0
-5.52326e-05 5.17153e-06 0
-6.54112e-05 4.95252e-06 0
-6.54112e-05 4.95252e-06 0
-7.50543e-05 4.69114e-06 0
-7.50543e-05 4.69114e-06 0
-8.41469e-05 4.38641e-06 0
-8.41469e-05 4.38641e-06 0
-9.25487e-05 4.03902e-06 0
-9.25487e-05 4.03902e-06 0
-0.000100216 3.65017e-06 0
-0.000100216 3.65017e-06 0
-0.000107039 3.2194e-06 0
-0.000107039 3.2194e-06 0
-0.000112955 2.74773e-06 0
-0.000112955 2.74773e-06 0
-0.00011788 2.23639e-06 0
-0.00011788 2.23639e-06 0
-0.000121748 1.68827e-06 0
-0.000121748 1.68827e-06 0
-0.000124493 1.10789e-06 0
-0.000124493 1.10789e-06 0
-0.000126061 5.02449e-07 0
-0.000126061 5.02449e-07 0
-0.000126405 -1.19123e-07 0
-0.000126405 -1.19123e-07 0
-0.000125502 -7.48237e-07 0
-0.000125502 -7.48237e-07 0
-0.000123339 -1.38019e-06 0
-0.000123339 -1.38019e-06 0
-0.000119905 -2.01321e-06 0
-0.000119905 -2.01321e-06 0
-0.000115203 -2.64248e-06 0
-0.000115203 -2.64248e-06 0
-0.000109245 -3.26299e-06 0
-0.000109245 -3.26299e-06 0
-0.000102055 -3.86993e-06 0
-0.000102055 -3.86993e-06 0
-9.36657e-05 -4.45731e-06 0
-9.36657e-05 -4.45731e-06 0
-8.41207e-05 -5.02089e-06 0
-8.41207e-05 -5.02089e-06 0
-7.34725e-05 -5.55632e-06 0
-7.34725e-05 -5.55632e-06 0
-6.17828e-05 -6.05977e-06 0
-6.17828e-05 -6.05977e-06 0
-4.91203e-05 -6.52832e-06 0
-4.91203e-05 -6.52832e-06 0
-3.55577e-05 -6.95923e-06 0
-3.55577e-05 -6.95923e-06 0
-2.11731e-05 -7.35107e-06 0
-2.11731e-05 -7.35107e-06 0
-6.03277e-06 -7.70223e-06 0
-6.03277e-06 -7.70223e-06 0
9.79105e-06 -8.01226e-06 0
9.79105e-06 -8.01226e-06 0
2.61919e-05 -8.28161e-06 0
2.61919e-05 -8.28161e-06 0
4.30785e-05 -8.5104e-06 0
4.30785e-05 -8.5104e-06 0
6.03785e-05 -8.69966e-06 0
6.03785e-05 -8.69966e-06 0
7.80136e-05 -8.85082e-06 0
7.80136e-05 -8.85082e-06 0
9.59099e-05 -8.96562e-06 0
9.59099e-05 -8.96562e-06 0
0.000113998 -9.04602e-06 0
0.000113998 -9.04602e-06 0
0.000132212 -9.09416e-06 0
0.000132212 -9.09416e-06 0
0.000150492 -9.11235e-06 0
0.000150492 -9.11235e-06 0
0.000168782 -9.10301e-06 0
0.000168782 -9.10301e-06 0
0.000187027 -9.06857e-06 0
0.000187027 -9.06857e-06 0
0.00020518 -9.01145e-06 0
0.00020518 -9.01145e-06 0
0.000223197 -8.93402e-06 0
0.000223197 -8.93402e-06 0
0.000241041 -8.83856e-06 0
0.000241041 -8.83856e-06 0
0.000258676 -8.72728e-06 0
0.000258676 -8.72728e-06 0
0.000276074 -8.60224e-06 0
0.000276074 -8.60224e-06 0
0.000293208 -8.4654e-06 0
0.000293208 -8.4654e-06 0
0.000310058 -8.31857e-06 0
0.000310058 -8.31857e-06 0
0.000326604 -8.16343e-06 0
0.000326604 -8.16343e-06 0
0.000342832 -8.00151e-06 0
0.000342832 -8.00151e-06 0
0.00035873 -7.83421e-06 0
0.00035873 -7.83421e-06 0
0.000374288 -7.66281e-06 0
0.000374288 -7.66281e-06 0
0.000389499 -7.48845e-06 0
0.000389499 -7.48845e-06 0
0.000404358 -7.31214e-06 0
0.000404358 -7.31214e-06 0
0.000418862 -7.13479e-06 0
0.000418862 -7.13479e-06 0
0.000433011 -6.9572e-06 0
0.000433011 -6.9572e-06 0
0.000446803 -6.78006e-06 0
0.000446803 -6.78006e-06 0
0.000460242 -6.60399e-06 0
0.000460242 -6.60399e-06 0
0.000473328 -6.42951e-06 0
0.000473328 -6.42951e-06 0
0.000486067 -6.25707e-06 0
0.000486067 -6.25707e-06 0
0.000498463 -6.08706e-06 0
0.000498463 -6.08706e-06 0
0.000510521 -5.91979e-06 0
0.000510521 -5.91979e-06 0
0.000522246 -5.75552e-06 0
0.000522246 -5.75552e-06 0
0.000533645 -5.59449e-06 0
0.000533645 -5.59449e-06 0
0.000544724 -5.43686e-06 0
0.000544724 -5.43686e-06 0
0.000555491 -5.28276e-06 0
0.000555491 -5.28276e-06 0
0.000565953 -5.13229e-06 0
0.000565953 -5.13229e-06 0
0.000576116 -4.98553e-06 0
0.000576116 -4.98553e-06 0
0.000585989 -4.84252e-06 0
0.000585989 -4.84252e-06 0
0.000595579 -4.70328e-06 0
0.000595579 -4.70328e-06 0
0.000604894 -4.56782e-06 0
0.000604894 -4.56782e-06 0
0.00061394 -4.43612e-06 0
0.00061394 -4.43612e-06 0
0.000622726 -4.30815e-06 0
0.000622726 -4.30815e-06 0
0.00063126 -4.18388e-06 0
0.00063126 -4.18388e-06 0
0.000639547 -4.06325e-06 0
0.000639547 -4.06325e-06 0
0.000647596 -3.9462e-06 0
0.000647596 -3.9462e-06 0
0.000655414 -3.83267e-06 0
0.000655414 -3.83267e-06 0
0.000663008 -3.72258e-06 0
0.000663008 -3.72258e-06 0
0.000670384 -3.61586e-06 0
0.000670384 -3.61586e-06 0
0.00067755 -3.51243e-06 0
0.00067755 -3.51243e-06 0
0.00068451 -3.41222e-06 0
0.00068451 -3.41222e-06 0
0.000691274 -3.31512e-06 0
0.000691274 -3.31512e-06 0
0.000697844 -3.22107e-06 0
0.000697844 -3.22107e-06 0
0.000704231 -3.12994e-06 0
0.000704231 -3.12994e-06 0
0.000710434 -3.04173e-06 0
0.000710434 -3.04173e-06 0
0.000716468 -2.95621e-06 0
0.000716468 -2.95621e-06 0
0.000722325 -2.87352e-06 0
0.000722325 -2.87352e-06 0
0.000728032 -2.79323e-06 0
0.000728032 -2.79323e-06 0
0.000733559 -2.71576e-06 0
0.000733559 -2.71576e-06 0
0.000738965 -2.64027e-06 0
0.000738965 -2.64027e-06 0
0.000744173 -2.56784e-06 0
0.000744173 -2.56784e-06 0
0.000749313 -2.49661e-06 0
0.000749313 -2.49661e-06 0
0.000754196 -2.4292e-06 0
0.000754196 -2.4292e-06 0
0.000759125 -2.36144e-06 0
0.000759125 -2.36144e-06 0
0.000763642 -2.29945e-06 0
0.000763642 -2.29945e-06 0
0.00076846 -2.23374e-06 0
0.00076846 -2.23374e-06 0
0.000772492 -2.17855e-06 0
0.000772492 -2.17855e-06 0
0.977216 -0.00257681 0
0.977216 -0.00257681 0
1.95366 -0.00515145 0
1.95366 -0.00515145 0
