# vtk DataFile Version 2.0
sampleSurface
ASCII
DATASET POLYDATA
POINTS 652 double
0 0 0
0.02 0 0
0.02 0 0.1
0 0 0.1
0.04 0 0
0.04 0 0.1
0.06 0 0
0.06 0 0.1
0.08 0 0
0.08 0 0.1
0.1 0 0
0.1 0 0.1
0.12 0 0
0.12 0 0.1
0.14 0 0
0.14 0 0.1
0.16 0 0
0.16 0 0.1
0.18 0 0
0.18 0 0.1
0.2 0 0
0.2 0 0.1
0.22 0 0
0.22 0 0.1
0.24 0 0
0.24 0 0.1
0.26 0 0
0.26 0 0.1
0.28 0 0
0.28 0 0.1
0.3 0 0
0.3 0 0.1
0.32 0 0
0.32 0 0.1
0.34 0 0
0.34 0 0.1
0.36 0 0
0.36 0 0.1
0.38 0 0
0.38 0 0.1
0.4 0 0
0.4 0 0.1
0.42 0 0
0.42 0 0.1
0.44 0 0
0.44 0 0.1
0.46 0 0
0.46 0 0.1
0.48 0 0
0.48 0 0.1
0.5 0 0
0.5 0 0.1
0.52 0 0
0.52 0 0.1
0.54 0 0
0.54 0 0.1
0.56 0 0
0.56 0 0.1
0.58 0 0
0.58 0 0.1
0.6 0 0
0.6 0 0.1
0.62 0 0
0.62 0 0.1
0.64 0 0
0.64 0 0.1
0.66 0 0
0.66 0 0.1
0.68 0 0
0.68 0 0.1
0.7 0 0
0.7 0 0.1
0.72 0 0
0.72 0 0.1
0.74 0 0
0.74 0 0.1
0.76 0 0
0.76 0 0.1
0.78 0 0
0.78 0 0.1
0.8 0 0
0.8 0 0.1
0.82 0 0
0.82 0 0.1
0.84 0 0
0.84 0 0.1
0.86 0 0
0.86 0 0.1
0.88 0 0
0.88 0 0.1
0.9 0 0
0.9 0 0.1
0.92 0 0
0.92 0 0.1
0.94 0 0
0.94 0 0.1
0.96 0 0
0.96 0 0.1
0.98 0 0
0.98 0 0.1
1 0 0
1 0 0.1
1.02 0 0
1.02 0 0.1
1.04 0 0
1.04 0 0.1
1.06 0 0
1.06 0 0.1
1.08 0 0
1.08 0 0.1
1.1 0 0
1.1 0 0.1
1.12 0 0
1.12 0 0.1
1.14 0 0
1.14 0 0.1
1.16 0 0
1.16 0 0.1
1.18 0 0
1.18 0 0.1
1.2 0 0
1.2 0 0.1
1.22 0 0
1.22 0 0.1
1.24 0 0
1.24 0 0.1
1.26 0 0
1.26 0 0.1
1.28 0 0
1.28 0 0.1
1.3 0 0
1.3 0 0.1
1.32 0 0
1.32 0 0.1
1.34 0 0
1.34 0 0.1
1.36 0 0
1.36 0 0.1
1.38 0 0
1.38 0 0.1
1.4 0 0
1.4 0 0.1
1.42 0 0
1.42 0 0.1
1.44 0 0
1.44 0 0.1
1.46 0 0
1.46 0 0.1
1.48 0 0
1.48 0 0.1
1.5 0 0
1.5 0 0.1
1.52 0 0
1.52 0 0.1
1.54 0 0
1.54 0 0.1
1.56 0 0
1.56 0 0.1
1.58 0 0
1.58 0 0.1
1.6 0 0
1.6 0 0.1
1.62 0 0
1.62 0 0.1
1.64 0 0
1.64 0 0.1
1.66 0 0
1.66 0 0.1
1.68 0 0
1.68 0 0.1
1.7 0 0
1.7 0 0.1
1.72 0 0
1.72 0 0.1
1.74 0 0
1.74 0 0.1
1.76 0 0
1.76 0 0.1
1.78 0 0
1.78 0 0.1
1.8 0 0
1.8 0 0.1
1.82 0 0
1.82 0 0.1
1.84 0 0
1.84 0 0.1
1.86 0 0
1.86 0 0.1
1.88 0 0
1.88 0 0.1
1.9 0 0
1.9 0 0.1
1.92 0 0
1.92 0 0.1
1.94 0 0
1.94 0 0.1
1.96 0 0
1.96 0 0.1
1.98 0 0
1.98 0 0.1
2 0 0
2 0 0.1
2 0.02 0
2 0.02 0.1
2 0.04 0
2 0.04 0.1
2 0.06 0
2 0.06 0.1
2 0.08 0
2 0.08 0.1
2 0.1 0
2 0.1 0.1
2 0.12 0
2 0.12 0.1
2 0.14 0
2 0.14 0.1
2 0.16 0
2 0.16 0.1
2 0.18 0
2 0.18 0.1
2 0.2 0
2 0.2 0.1
2 0.22 0
2 0.22 0.1
2 0.24 0
2 0.24 0.1
2 0.26 0
2 0.26 0.1
2 0.28 0
2 0.28 0.1
2 0.3 0
2 0.3 0.1
2 0.32 0
2 0.32 0.1
2 0.34 0
2 0.34 0.1
2 0.36 0
2 0.36 0.1
2 0.38 0
2 0.38 0.1
2 0.4 0
2 0.4 0.1
2 0.42 0
2 0.42 0.1
2 0.44 0
2 0.44 0.1
2 0.46 0
2 0.46 0.1
2 0.48 0
2 0.48 0.1
2 0.5 0
2 0.5 0.1
2 0.52 0
2 0.52 0.1
2 0.54 0
2 0.54 0.1
2 0.56 0
2 0.56 0.1
2 0.58 0
2 0.58 0.1
2 0.6 0
2 0.6 0.1
2 0.62 0
2 0.62 0.1
2 0.64 0
2 0.64 0.1
2 0.66 0
2 0.66 0.1
2 0.68 0
2 0.68 0.1
2 0.7 0
2 0.7 0.1
2 0.72 0
2 0.72 0.1
2 0.74 0
2 0.74 0.1
2 0.76 0
2 0.76 0.1
2 0.78 0
2 0.78 0.1
2 0.8 0
2 0.8 0.1
2 0.82 0
2 0.82 0.1
2 0.84 0
2 0.84 0.1
2 0.86 0
2 0.86 0.1
2 0.88 0
2 0.88 0.1
2 0.9 0
2 0.9 0.1
2 0.92 0
2 0.92 0.1
2 0.94 0
2 0.94 0.1
2 0.96 0
2 0.96 0.1
2 0.98 0
2 0.98 0.1
2 1 0
2 1 0.1
2.02 1 0
2.02 1 0.1
2.04 1 0
2.04 1 0.1
2.06 1 0
2.06 1 0.1
2.08 1 0
2.08 1 0.1
2.1 1 0
2.1 1 0.1
2.12 1 0
2.12 1 0.1
2.14 1 0
2.14 1 0.1
2.16 1 0
2.16 1 0.1
2.18 1 0
2.18 1 0.1
2.2 1 0
2.2 1 0.1
2.22 1 0
2.22 1 0.1
2.24 1 0
2.24 1 0.1
2.26 1 0
2.26 1 0.1
2.28 1 0
2.28 1 0.1
2.3 1 0
2.3 1 0.1
2.32 1 0
2.32 1 0.1
2.34 1 0
2.34 1 0.1
2.36 1 0
2.36 1 0.1
2.38 1 0
2.38 1 0.1
2.4 1 0
2.4 1 0.1
2.42 1 0
2.42 1 0.1
2.44 1 0
2.44 1 0.1
2.46 1 0
2.46 1 0.1
2.48 1 0
2.48 1 0.1
2.5 1 0
2.5 1 0.1
2.5 0 0
2.5 0 0.1
2.5 0.02 0.1
2.5 0.02 0
2.5 0.04 0.1
2.5 0.04 0
2.5 0.06 0.1
2.5 0.06 0
2.5 0.08 0.1
2.5 0.08 0
2.5 0.1 0.1
2.5 0.1 0
2.5 0.12 0.1
2.5 0.12 0
2.5 0.14 0.1
2.5 0.14 0
2.5 0.16 0.1
2.5 0.16 0
2.5 0.18 0.1
2.5 0.18 0
2.5 0.2 0.1
2.5 0.2 0
2.5 0.22 0.1
2.5 0.22 0
2.5 0.24 0.1
2.5 0.24 0
2.5 0.26 0.1
2.5 0.26 0
2.5 0.28 0.1
2.5 0.28 0
2.5 0.3 0.1
2.5 0.3 0
2.5 0.32 0.1
2.5 0.32 0
2.5 0.34 0.1
2.5 0.34 0
2.5 0.36 0.1
2.5 0.36 0
2.5 0.38 0.1
2.5 0.38 0
2.5 0.4 0.1
2.5 0.4 0
2.5 0.42 0.1
2.5 0.42 0
2.5 0.44 0.1
2.5 0.44 0
2.5 0.46 0.1
2.5 0.46 0
2.5 0.48 0.1
2.5 0.48 0
2.5 0.5 0.1
2.5 0.5 0
2.5 0.52 0.1
2.5 0.52 0
2.5 0.54 0.1
2.5 0.54 0
2.5 0.56 0.1
2.5 0.56 0
2.5 0.58 0.1
2.5 0.58 0
2.5 0.6 0.1
2.5 0.6 0
2.5 0.62 0.1
2.5 0.62 0
2.5 0.64 0.1
2.5 0.64 0
2.5 0.66 0.1
2.5 0.66 0
2.5 0.68 0.1
2.5 0.68 0
2.5 0.7 0.1
2.5 0.7 0
2.5 0.72 0.1
2.5 0.72 0
2.5 0.74 0.1
2.5 0.74 0
2.5 0.76 0.1
2.5 0.76 0
2.5 0.78 0.1
2.5 0.78 0
2.5 0.8 0.1
2.5 0.8 0
2.5 0.82 0.1
2.5 0.82 0
2.5 0.84 0.1
2.5 0.84 0
2.5 0.86 0.1
2.5 0.86 0
2.5 0.88 0.1
2.5 0.88 0
2.5 0.9 0.1
2.5 0.9 0
2.5 0.92 0.1
2.5 0.92 0
2.5 0.94 0.1
2.5 0.94 0
2.5 0.96 0.1
2.5 0.96 0
2.5 0.98 0.1
2.5 0.98 0
2.52 0 0
2.52 0 0.1
2.54 0 0
2.54 0 0.1
2.56 0 0
2.56 0 0.1
2.58 0 0
2.58 0 0.1
2.6 0 0
2.6 0 0.1
2.62 0 0
2.62 0 0.1
2.64 0 0
2.64 0 0.1
2.66 0 0
2.66 0 0.1
2.68 0 0
2.68 0 0.1
2.7 0 0
2.7 0 0.1
2.72 0 0
2.72 0 0.1
2.74 0 0
2.74 0 0.1
2.76 0 0
2.76 0 0.1
2.78 0 0
2.78 0 0.1
2.8 0 0
2.8 0 0.1
2.82 0 0
2.82 0 0.1
2.84 0 0
2.84 0 0.1
2.86 0 0
2.86 0 0.1
2.88 0 0
2.88 0 0.1
2.9 0 0
2.9 0 0.1
2.92 0 0
2.92 0 0.1
2.94 0 0
2.94 0 0.1
2.96 0 0
2.96 0 0.1
2.98 0 0
2.98 0 0.1
3 0 0
3 0 0.1
3.02 0 0
3.02 0 0.1
3.04 0 0
3.04 0 0.1
3.06 0 0
3.06 0 0.1
3.08 0 0
3.08 0 0.1
3.1 0 0
3.1 0 0.1
3.12 0 0
3.12 0 0.1
3.14 0 0
3.14 0 0.1
3.16 0 0
3.16 0 0.1
3.18 0 0
3.18 0 0.1
3.2 0 0
3.2 0 0.1
3.22 0 0
3.22 0 0.1
3.24 0 0
3.24 0 0.1
3.26 0 0
3.26 0 0.1
3.28 0 0
3.28 0 0.1
3.3 0 0
3.3 0 0.1
3.32 0 0
3.32 0 0.1
3.34 0 0
3.34 0 0.1
3.36 0 0
3.36 0 0.1
3.38 0 0
3.38 0 0.1
3.4 0 0
3.4 0 0.1
3.42 0 0
3.42 0 0.1
3.44 0 0
3.44 0 0.1
3.46 0 0
3.46 0 0.1
3.48 0 0
3.48 0 0.1
3.5 0 0
3.5 0 0.1
3.52 0 0
3.52 0 0.1
3.54 0 0
3.54 0 0.1
3.56 0 0
3.56 0 0.1
3.58 0 0
3.58 0 0.1
3.6 0 0
3.6 0 0.1
3.62 0 0
3.62 0 0.1
3.64 0 0
3.64 0 0.1
3.66 0 0
3.66 0 0.1
3.68 0 0
3.68 0 0.1
3.7 0 0
3.7 0 0.1
3.72 0 0
3.72 0 0.1
3.74 0 0
3.74 0 0.1
3.76 0 0
3.76 0 0.1
3.78 0 0
3.78 0 0.1
3.8 0 0
3.8 0 0.1
3.82 0 0
3.82 0 0.1
3.84 0 0
3.84 0 0.1
3.86 0 0
3.86 0 0.1
3.88 0 0
3.88 0 0.1
3.9 0 0
3.9 0 0.1
3.92 0 0
3.92 0 0.1
3.94 0 0
3.94 0 0.1
3.96 0 0
3.96 0 0.1
3.98 0 0
3.98 0 0.1
4 0 0
4 0 0.1
4.02 0 0
4.02 0 0.1
4.04 0 0
4.04 0 0.1
4.06 0 0
4.06 0 0.1
4.08 0 0
4.08 0 0.1
4.1 0 0
4.1 0 0.1
4.12 0 0
4.12 0 0.1
4.14 0 0
4.14 0 0.1
4.16 0 0
4.16 0 0.1
4.18 0 0
4.18 0 0.1
4.2 0 0
4.2 0 0.1
4.22 0 0
4.22 0 0.1
4.24 0 0
4.24 0 0.1
4.26 0 0
4.26 0 0.1
4.28 0 0
4.28 0 0.1
4.3 0 0
4.3 0 0.1
4.32 0 0
4.32 0 0.1
4.34 0 0
4.34 0 0.1
4.36 0 0
4.36 0 0.1
4.38 0 0
4.38 0 0.1
4.4 0 0
4.4 0 0.1
4.42 0 0
4.42 0 0.1
4.44 0 0
4.44 0 0.1
4.46 0 0
4.46 0 0.1
4.48 0 0
4.48 0 0.1
4.5 0 0
4.5 0 0.1

POLYGONS 325 1625
4 0 1 2 3
4 1 4 5 2
4 4 6 7 5
4 6 8 9 7
4 8 10 11 9
4 10 12 13 11
4 12 14 15 13
4 14 16 17 15
4 16 18 19 17
4 18 20 21 19
4 20 22 23 21
4 22 24 25 23
4 24 26 27 25
4 26 28 29 27
4 28 30 31 29
4 30 32 33 31
4 32 34 35 33
4 34 36 37 35
4 36 38 39 37
4 38 40 41 39
4 40 42 43 41
4 42 44 45 43
4 44 46 47 45
4 46 48 49 47
4 48 50 51 49
4 50 52 53 51
4 52 54 55 53
4 54 56 57 55
4 56 58 59 57
4 58 60 61 59
4 60 62 63 61
4 62 64 65 63
4 64 66 67 65
4 66 68 69 67
4 68 70 71 69
4 70 72 73 71
4 72 74 75 73
4 74 76 77 75
4 76 78 79 77
4 78 80 81 79
4 80 82 83 81
4 82 84 85 83
4 84 86 87 85
4 86 88 89 87
4 88 90 91 89
4 90 92 93 91
4 92 94 95 93
4 94 96 97 95
4 96 98 99 97
4 98 100 101 99
4 100 102 103 101
4 102 104 105 103
4 104 106 107 105
4 106 108 109 107
4 108 110 111 109
4 110 112 113 111
4 112 114 115 113
4 114 116 117 115
4 116 118 119 117
4 118 120 121 119
4 120 122 123 121
4 122 124 125 123
4 124 126 127 125
4 126 128 129 127
4 128 130 131 129
4 130 132 133 131
4 132 134 135 133
4 134 136 137 135
4 136 138 139 137
4 138 140 141 139
4 140 142 143 141
4 142 144 145 143
4 144 146 147 145
4 146 148 149 147
4 148 150 151 149
4 150 152 153 151
4 152 154 155 153
4 154 156 157 155
4 156 158 159 157
4 158 160 161 159
4 160 162 163 161
4 162 164 165 163
4 164 166 167 165
4 166 168 169 167
4 168 170 171 169
4 170 172 173 171
4 172 174 175 173
4 174 176 177 175
4 176 178 179 177
4 178 180 181 179
4 180 182 183 181
4 182 184 185 183
4 184 186 187 185
4 186 188 189 187
4 188 190 191 189
4 190 192 193 191
4 192 194 195 193
4 194 196 197 195
4 196 198 199 197
4 198 200 201 199
4 200 202 203 201
4 202 204 205 203
4 204 206 207 205
4 206 208 209 207
4 208 210 211 209
4 210 212 213 211
4 212 214 215 213
4 214 216 217 215
4 216 218 219 217
4 218 220 221 219
4 220 222 223 221
4 222 224 225 223
4 224 226 227 225
4 226 228 229 227
4 228 230 231 229
4 230 232 233 231
4 232 234 235 233
4 234 236 237 235
4 236 238 239 237
4 238 240 241 239
4 240 242 243 241
4 242 244 245 243
4 244 246 247 245
4 246 248 249 247
4 248 250 251 249
4 250 252 253 251
4 252 254 255 253
4 254 256 257 255
4 256 258 259 257
4 258 260 261 259
4 260 262 263 261
4 262 264 265 263
4 264 266 267 265
4 266 268 269 267
4 268 270 271 269
4 270 272 273 271
4 272 274 275 273
4 274 276 277 275
4 276 278 279 277
4 278 280 281 279
4 280 282 283 281
4 282 284 285 283
4 284 286 287 285
4 286 288 289 287
4 288 290 291 289
4 290 292 293 291
4 292 294 295 293
4 294 296 297 295
4 296 298 299 297
4 298 300 301 299
4 300 302 303 301
4 302 304 305 303
4 304 306 307 305
4 306 308 309 307
4 308 310 311 309
4 310 312 313 311
4 312 314 315 313
4 314 316 317 315
4 316 318 319 317
4 318 320 321 319
4 320 322 323 321
4 322 324 325 323
4 324 326 327 325
4 326 328 329 327
4 328 330 331 329
4 330 332 333 331
4 332 334 335 333
4 334 336 337 335
4 336 338 339 337
4 338 340 341 339
4 340 342 343 341
4 342 344 345 343
4 344 346 347 345
4 346 348 349 347
4 348 350 351 349
4 352 353 354 355
4 355 354 356 357
4 357 356 358 359
4 359 358 360 361
4 361 360 362 363
4 363 362 364 365
4 365 364 366 367
4 367 366 368 369
4 369 368 370 371
4 371 370 372 373
4 373 372 374 375
4 375 374 376 377
4 377 376 378 379
4 379 378 380 381
4 381 380 382 383
4 383 382 384 385
4 385 384 386 387
4 387 386 388 389
4 389 388 390 391
4 391 390 392 393
4 393 392 394 395
4 395 394 396 397
4 397 396 398 399
4 399 398 400 401
4 401 400 402 403
4 403 402 404 405
4 405 404 406 407
4 407 406 408 409
4 409 408 410 411
4 411 410 412 413
4 413 412 414 415
4 415 414 416 417
4 417 416 418 419
4 419 418 420 421
4 421 420 422 423
4 423 422 424 425
4 425 424 426 427
4 427 426 428 429
4 429 428 430 431
4 431 430 432 433
4 433 432 434 435
4 435 434 436 437
4 437 436 438 439
4 439 438 440 441
4 441 440 442 443
4 443 442 444 445
4 445 444 446 447
4 447 446 448 449
4 449 448 450 451
4 451 450 351 350
4 352 452 453 353
4 452 454 455 453
4 454 456 457 455
4 456 458 459 457
4 458 460 461 459
4 460 462 463 461
4 462 464 465 463
4 464 466 467 465
4 466 468 469 467
4 468 470 471 469
4 470 472 473 471
4 472 474 475 473
4 474 476 477 475
4 476 478 479 477
4 478 480 481 479
4 480 482 483 481
4 482 484 485 483
4 484 486 487 485
4 486 488 489 487
4 488 490 491 489
4 490 492 493 491
4 492 494 495 493
4 494 496 497 495
4 496 498 499 497
4 498 500 501 499
4 500 502 503 501
4 502 504 505 503
4 504 506 507 505
4 506 508 509 507
4 508 510 511 509
4 510 512 513 511
4 512 514 515 513
4 514 516 517 515
4 516 518 519 517
4 518 520 521 519
4 520 522 523 521
4 522 524 525 523
4 524 526 527 525
4 526 528 529 527
4 528 530 531 529
4 530 532 533 531
4 532 534 535 533
4 534 536 537 535
4 536 538 539 537
4 538 540 541 539
4 540 542 543 541
4 542 544 545 543
4 544 546 547 545
4 546 548 549 547
4 548 550 551 549
4 550 552 553 551
4 552 554 555 553
4 554 556 557 555
4 556 558 559 557
4 558 560 561 559
4 560 562 563 561
4 562 564 565 563
4 564 566 567 565
4 566 568 569 567
4 568 570 571 569
4 570 572 573 571
4 572 574 575 573
4 574 576 577 575
4 576 578 579 577
4 578 580 581 579
4 580 582 583 581
4 582 584 585 583
4 584 586 587 585
4 586 588 589 587
4 588 590 591 589
4 590 592 593 591
4 592 594 595 593
4 594 596 597 595
4 596 598 599 597
4 598 600 601 599
4 600 602 603 601
4 602 604 605 603
4 604 606 607 605
4 606 608 609 607
4 608 610 611 609
4 610 612 613 611
4 612 614 615 613
4 614 616 617 615
4 616 618 619 617
4 618 620 621 619
4 620 622 623 621
4 622 624 625 623
4 624 626 627 625
4 626 628 629 627
4 628 630 631 629
4 630 632 633 631
4 632 634 635 633
4 634 636 637 635
4 636 638 639 637
4 638 640 641 639
4 640 642 643 641
4 642 644 645 643
4 644 646 647 645
4 646 648 649 647
4 648 650 651 649
POINT_DATA 652
FIELD attributes 1
U 3 652 float
2.52128 0.0177018 0.00431346
1.26115 0.00884731 0.00215673
1.26115 0.00884731 0.00215673
2.52128 0.0177018 0.00431346
0.00100648 -4.63761e-06 0
0.00100648 -4.63761e-06 0
0.00100593 -6.92451e-07 0
0.00100593 -6.92451e-07 0
0.00100389 2.31714e-06 0
0.00100389 2.31714e-06 0
0.000998998 4.86557e-06 0
0.000998998 4.86557e-06 0
0.000993014 5.17299e-06 0
0.000993014 5.17299e-06 0
0.000988202 3.24642e-06 0
0.000988202 3.24642e-06 0
0.000985467 1.12129e-06 0
0.000985467 1.12129e-06 0
0.000984562 3.38901e-07 0
0.000984562 3.38901e-07 0
0.000984701 8.29889e-07 0
0.000984701 8.29889e-07 0
0.000985032 1.67987e-06 0
0.000985032 1.67987e-06 0
0.000984828 2.07527e-06 0
0.000984828 2.07527e-06 0
0.000983528 1.75802e-06 0
0.000983528 1.75802e-06 0
0.000980862 1.02343e-06 0
0.000980862 1.02343e-06 0
0.00097714 3.76534e-07 0
0.00097714 3.76534e-07 0
0.000973274 1.72372e-07 0
0.000973274 1.72372e-07 0
0.000970173 5.20784e-07 0
0.000970173 5.20784e-07 0
0.000967991 1.35355e-06 0
0.000967991 1.35355e-06 0
0.000965943 2.39958e-06 0
0.000965943 2.39958e-06 0
0.000962963 3.17585e-06 0
0.000962963 3.17585e-06 0
0.00095864 3.22697e-06 0
0.00095864 3.22697e-06 0
0.000953533 2.49626e-06 0
0.000953533 2.49626e-06 0
0.000948549 1.44605e-06 0
0.000948549 1.44605e-06 0
0.000944074 7.36748e-07 0
0.000944074 7.36748e-07 0
0.000939775 6.69868e-07 0
0.000939775 6.69868e-07 0
0.000935157 9.47483e-07 0
0.000935157 9.47483e-07 0
0.000930175 1.0719e-06 0
0.000930175 1.0719e-06 0
0.000925219 9.76438e-07 0
0.000925219 9.76438e-07 0
0.000920574 1.17604e-06 0
0.000920574 1.17604e-06 0
0.000916016 2.19617e-06 0
0.000916016 2.19617e-06 0
0.000911013 3.8735e-06 0
0.000911013 3.8735e-06 0
0.00090528 5.3324e-06 0
0.00090528 5.3324e-06 0
0.000899081 5.74007e-06 0
0.000899081 5.74007e-06 0
0.00089291 5.11905e-06 0
0.00089291 5.11905e-06 0
0.000886903 4.38932e-06 0
0.000886903 4.38932e-06 0
0.000880622 4.55148e-06 0
0.000880622 4.55148e-06 0
0.000873444 5.7727e-06 0
0.000873444 5.7727e-06 0
0.000865187 7.23793e-06 0
0.000865187 7.23793e-06 0
0.000856353 7.88698e-06 0
0.000856353 7.88698e-06 0
0.00084774 7.34983e-06 0
0.00084774 7.34983e-06 0
0.000839754 6.259e-06 0
0.000839754 6.259e-06 0
0.000832008 5.71577e-06 0
0.000832008 5.71577e-06 0
0.000823491 6.42495e-06 0
0.000823491 6.42495e-06 0
0.000813159 8.20564e-06 0
0.000813159 8.20564e-06 0
0.000800554 1.01849e-05 0
0.000800554 1.01849e-05 0
0.000786047 1.14327e-05 0
0.000786047 1.14327e-05 0
0.000770582 1.15211e-05 0
0.000770582 1.15211e-05 0
0.000755169 1.06416e-05 0
0.000755169 1.06416e-05 0
0.000740478 9.32367e-06 0
0.000740478 9.32367e-06 0
0.000726717 8.07222e-06 0
0.000726717 8.07222e-06 0
0.000713744 7.16719e-06 0
0.000713744 7.16719e-06 0
0.000701257 6.65682e-06 0
0.000701257 6.65682e-06 0
0.000688958 6.45352e-06 0
0.000688958 6.45352e-06 0
0.000676628 6.43877e-06 0
0.000676628 6.43877e-06 0
0.000664138 6.51904e-06 0
0.000664138 6.51904e-06 0
0.000651427 6.63806e-06 0
0.000651427 6.63806e-06 0
0.000638474 6.76943e-06 0
0.000638474 6.76943e-06 0
0.000625273 6.90376e-06 0
0.000625273 6.90376e-06 0
0.000611824 7.03929e-06 0
0.000611824 7.03929e-06 0
0.000598128 7.17509e-06 0
0.000598128 7.17509e-06 0
0.000584184 7.3099e-06 0
0.000584184 7.3099e-06 0
0.000569992 7.44324e-06 0
0.000569992 7.44324e-06 0
0.000555551 7.57402e-06 0
0.000555551 7.57402e-06 0
0.000540864 7.70076e-06 0
0.000540864 7.70076e-06 0
0.000525931 7.82328e-06 0
0.000525931 7.82328e-06 0
0.000510753 7.94116e-06 0
0.000510753 7.94116e-06 0
0.000495337 8.0521e-06 0
0.000495337 8.0521e-06 0
0.000479684 8.15352e-06 0
0.000479684 8.15352e-06 0
0.000463803 8.2448e-06 0
0.000463803 8.2448e-06 0
0.000447702 8.3255e-06 0
0.000447702 8.3255e-06 0
0.000431394 8.39334e-06 0
0.000431394 8.39334e-06 0
0.000414888 8.44587e-06 0
0.000414888 8.44587e-06 0
0.000398203 8.48048e-06 0
0.000398203 8.48048e-06 0
0.000381357 8.49537e-06 0
0.000381357 8.49537e-06 0
0.000364372 8.48894e-06 0
0.000364372 8.48894e-06 0
0.000347272 8.45788e-06 0
0.000347272 8.45788e-06 0
0.000330087 8.39923e-06 0
0.000330087 8.39923e-06 0
0.000312852 8.31065e-06 0
0.000312852 8.31065e-06 0
0.000295601 8.1897e-06 0
0.000295601 8.1897e-06 0
0.000278376 8.03422e-06 0
0.000278376 8.03422e-06 0
0.000261221 7.84257e-06 0
0.000261221 7.84257e-06 0
0.000244183 7.61332e-06 0
0.000244183 7.61332e-06 0
0.000227312 7.34567e-06 0
0.000227312 7.34567e-06 0
0.000210661 7.03998e-06 0
0.000210661 7.03998e-06 0
0.000194282 6.6977e-06 0
0.000194282 6.6977e-06 0
0.000178226 6.32147e-06 0
0.000178226 6.32147e-06 0
0.000162544 5.91529e-06 0
0.000162544 5.91529e-06 0
0.00014728 5.4845e-06 0
0.00014728 5.4845e-06 0
0.000132475 5.03607e-06 0
0.000132475 5.03607e-06 0
0.000118159 4.57832e-06 0
0.000118159 4.57832e-06 0
0.000104353 4.12056e-06 0
0.000104353 4.12056e-06 0
9.1068e-05 3.67304e-06 0
9.1068e-05 3.67304e-06 0
7.82988e-05 3.24648e-06 0
7.82988e-05 3.24648e-06 0
6.60267e-05 2.85178e-06 0
6.60267e-05 2.85178e-06 0
5.42182e-05 2.49911e-06 0
5.42182e-05 2.49911e-06 0
4.28252e-05 2.1977e-06 0
4.28252e-05 2.1977e-06 0
3.17839e-05 1.95414e-06 0
3.17839e-05 1.95414e-06 0
2.1024e-05 1.76864e-06 0
2.1024e-05 1.76864e-06 0
1.04567e-05 1.65923e-06 0
1.04567e-05 1.65923e-06 0
5.2073e-06 1.62856e-06 0
5.2073e-06 1.62856e-06 0
8.00488e-06 1.05568e-05 0
8.00488e-06 1.05568e-05 0
1.12684e-05 3.20196e-05 0
1.12684e-05 3.20196e-05 0
1.14852e-05 5.57525e-05 0
1.14852e-05 5.57525e-05 0
1.09255e-05 7.80287e-05 0
1.09255e-05 7.80287e-05 0
1.04078e-05 9.94719e-05 0
1.04078e-05 9.94719e-05 0
1.01009e-05 0.000119916 0
1.01009e-05 0.000119916 0
9.97444e-06 0.000139984 0
9.97444e-06 0.000139984 0
9.96229e-06 0.000159962 0
9.96229e-06 0.000159962 0
1.0012e-05 0.00017999 0
1.0012e-05 0.00017999 0
1.00926e-05 0.000200152 0
1.00926e-05 0.000200152 0
1.01885e-05 0.000220493 0
1.01885e-05 0.000220493 0
1.02933e-05 0.000241035 0
1.02933e-05 0.000241035 0
1.04054e-05 0.000261795 0
1.04054e-05 0.000261795 0
1.05252e-05 0.000282785 0
1.05252e-05 0.000282785 0
1.06538e-05 0.000304023 0
1.06538e-05 0.000304023 0
1.07924e-05 0.000325527 0
1.07924e-05 0.000325527 0
1.09421e-05 0.000347318 0
1.09421e-05 0.000347318 0
1.11045e-05 0.00036942 0
1.11045e-05 0.00036942 0
1.1281e-05 0.000391861 0
1.1281e-05 0.000391861 0
1.1473e-05 0.000414668 0
1.1473e-05 0.000414668 0
1.16814e-05 0.000437874 0
1.16814e-05 0.000437874 0
1.19086e-05 0.000461515 0
1.19086e-05 0.000461515 0
1.21561e-05 0.000485629 0
1.21561e-05 0.000485629 0
1.24269e-05 0.000510258 0
1.24269e-05 0.000510258 0
1.27215e-05 0.000535451 0
1.27215e-05 0.000535451 0
1.30461e-05 0.000561264 0
1.30461e-05 0.000561264 0
1.34005e-05 0.00058775 0
1.34005e-05 0.00058775 0
1.37929e-05 0.000614982 0
1.37929e-05 0.000614982 0
1.4221e-05 0.000643027 0
1.4221e-05 0.000643027 0
1.47026e-05 0.000671983 0
1.47026e-05 0.000671983 0
1.52253e-05 0.00070193 0
1.52253e-05 0.00070193 0
1.58253e-05 0.000733011 0
1.58253e-05 0.000733011 0
1.64716e-05 0.000765308 0
1.64716e-05 0.000765308 0
1.72429e-05 0.000799049 0
1.72429e-05 0.000799049 0
1.80456e-05 0.000834297 0
1.80456e-05 0.000834297 0
1.90791e-05 0.00087145 0
1.90791e-05 0.00087145 0
2.00743e-05 0.000910487 0
2.00743e-05 0.000910487 0
2.1554e-05 0.000952153 0
2.1554e-05 0.000952153 0
2.27675e-05 0.000996203 0
2.27675e-05 0.000996203 0
2.50701e-05 0.00104408 0
2.50701e-05 0.00104408 0
2.6466e-05 0.00109503 0
2.6466e-05 0.00109503 0
3.04606e-05 0.00115192 0
3.04606e-05 0.00115192 0
3.18536e-05 0.00121298 0
3.18536e-05 0.00121298 0
3.96549e-05 0.00128405 0
3.96549e-05 0.00128405 0
4.08612e-05 0.00136196 0
4.08612e-05 0.00136196 0
5.86527e-05 0.00145828 0
5.86527e-05 0.00145828 0
6.15419e-05 0.00157135 0
6.15419e-05 0.00157135 0
0.000111721 0.00172175 0
0.000111721 0.00172175 0
0.000134212 0.00192369 0
0.000134212 0.00192369 0
0.000140506 0.00124414 0
0.000140506 0.00124414 0
-0.000313506 0.000250501 0
-0.000313506 0.000250501 0
-0.000538942 4.57639e-05 0
-0.000538942 4.57639e-05 0
-0.000459569 -0.000127774 0
-0.000459569 -0.000127774 0
-9.59908e-05 -0.000486867 0
-9.59908e-05 -0.000486867 0
0.000719677 -0.000503372 0
0.000719677 -0.000503372 0
0.00108318 -0.000203807 0
0.00108318 -0.000203807 0
0.00105105 4.60592e-05 0
0.00105105 4.60592e-05 0
0.000703927 0.000137615 0
0.000703927 0.000137615 0
0.000352804 0.000132089 0
0.000352804 0.000132089 0
-0.000206618 0.000288202 0
-0.000206618 0.000288202 0
-0.00101328 0.000429671 0
-0.00101328 0.000429671 0
-0.00175 0.000397864 0
-0.00175 0.000397864 0
-0.00236001 0.000326272 0
-0.00236001 0.000326272 0
-0.00284256 0.000249904 0
-0.00284256 0.000249904 0
-0.00318892 0.000173321 0
-0.00318892 0.000173321 0
-0.00340001 0.000100825 0
-0.00340001 0.000100825 0
-0.00347878 3.43744e-05 0
-0.00347878 3.43744e-05 0
-0.00343731 -2.23887e-05 0
-0.00343731 -2.23887e-05 0
-0.00329187 -6.73242e-05 0
-0.00329187 -6.73242e-05 0
-0.00305954 -9.8463e-05 0
-0.00305954 -9.8463e-05 0
-0.00275733 -0.000111086 0
-0.00275733 -0.000111086 0
-0.0023977 -9.55226e-05 0
-0.0023977 -9.55226e-05 0
-0.00200567 -4.11862e-05 0
-0.00200567 -4.11862e-05 0
-0.00174057 6.9426e-05 0
-0.00174057 6.9426e-05 0
-0.000917089 0.000492429 0
-0.000917089 0.000492429 0
-7.75044e-06 7.01739e-06 0
-7.75044e-06 7.01739e-06 0
-7.91405e-06 1.43114e-05 0
-7.91405e-06 1.43114e-05 0
-8.04413e-06 2.90494e-05 0
-8.04413e-06 2.90494e-05 0
-8.04299e-06 4.38797e-05 0
-8.04299e-06 4.38797e-05 0
-8.13158e-06 5.87827e-05 0
-8.13158e-06 5.87827e-05 0
-8.25784e-06 7.39631e-05 0
-8.25784e-06 7.39631e-05 0
-8.41105e-06 8.94667e-05 0
-8.41105e-06 8.94667e-05 0
-8.58919e-06 0.000105352 0
-8.58919e-06 0.000105352 0
-8.79076e-06 0.000121677 0
-8.79076e-06 0.000121677 0
-9.01378e-06 0.000138495 0
-9.01378e-06 0.000138495 0
-9.25506e-06 0.000155852 0
-9.25506e-06 0.000155852 0
-9.51115e-06 0.000173788 0
-9.51115e-06 0.000173788 0
-9.7775e-06 0.000192337 0
-9.7775e-06 0.000192337 0
-1.00481e-05 0.000211517 0
-1.00481e-05 0.000211517 0
-1.03158e-05 0.000231336 0
-1.03158e-05 0.000231336 0
-1.05719e-05 0.000251781 0
-1.05719e-05 0.000251781 0
-1.08048e-05 0.000272823 0
-1.08048e-05 0.000272823 0
-1.10033e-05 0.000294404 0
-1.10033e-05 0.000294404 0
-1.11506e-05 0.000316447 0
-1.11506e-05 0.000316447 0
-1.12322e-05 0.000338832 0
-1.12322e-05 0.000338832 0
-1.12277e-05 0.000361411 0
-1.12277e-05 0.000361411 0
-1.11118e-05 0.000383991 0
-1.11118e-05 0.000383991 0
-1.08691e-05 0.000406326 0
-1.08691e-05 0.000406326 0
-1.0476e-05 0.000428135 0
-1.0476e-05 0.000428135 0
-9.90093e-06 0.00044908 0
-9.90093e-06 0.00044908 0
-9.12503e-06 0.00046875 0
-9.12503e-06 0.00046875 0
-8.13722e-06 0.00048672 0
-8.13722e-06 0.00048672 0
-6.91162e-06 0.000502517 0
-6.91162e-06 0.000502517 0
-5.41883e-06 0.000515626 0
-5.41883e-06 0.000515626 0
-3.64512e-06 0.000525484 0
-3.64512e-06 0.000525484 0
-1.59297e-06 0.000531554 0
-1.59297e-06 0.000531554 0
7.92892e-07 0.000533313 0
7.92892e-07 0.000533313 0
3.59094e-06 0.000530182 0
3.59094e-06 0.000530182 0
6.75571e-06 0.000521509 0
6.75571e-06 0.000521509 0
1.01764e-05 0.000506982 0
1.01764e-05 0.000506982 0
1.37578e-05 0.000486231 0
1.37578e-05 0.000486231 0
1.75106e-05 0.000459034 0
1.75106e-05 0.000459034 0
2.14515e-05 0.000425302 0
2.14515e-05 0.000425302 0
2.57369e-05 0.000384394 0
2.57369e-05 0.000384394 0
3.02589e-05 0.000337208 0
3.02589e-05 0.000337208 0
3.55285e-05 0.000279894 0
3.55285e-05 0.000279894 0
4.20564e-05 0.000219237 0
4.20564e-05 0.000219237 0
4.95349e-05 0.000140814 0
4.95349e-05 0.000140814 0
5.90242e-05 6.19869e-05 0
5.90242e-05 6.19869e-05 0
5.58787e-05 -3.9562e-05 0
5.58787e-05 -3.9562e-05 0
1.01038e-05 -0.000108304 0
1.01038e-05 -0.000108304 0
-9.56642e-05 -0.000146176 0
-9.56642e-05 -0.000146176 0
-0.000176816 -2.89624e-06 0
-0.000176816 -2.89624e-06 0
-0.000277123 0.000113138 0
-0.000277123 0.000113138 0
-0.000262561 0.000443319 0
-0.000262561 0.000443319 0
-1.42969e-05 6.77743e-06 0
-1.42969e-05 6.77743e-06 0
-2.75344e-05 6.6079e-06 0
-2.75344e-05 6.6079e-06 0
-4.11059e-05 6.65926e-06 0
-4.11059e-05 6.65926e-06 0
-5.45752e-05 6.58656e-06 0
-5.45752e-05 6.58656e-06 0
-6.77477e-05 6.46236e-06 0
-6.77477e-05 6.46236e-06 0
-8.06199e-05 6.3023e-06 0
-8.06199e-05 6.3023e-06 0
-9.30589e-05 6.10273e-06 0
-9.30589e-05 6.10273e-06 0
-0.000105039 5.85985e-06 0
-0.000105039 5.85985e-06 0
-0.000116433 5.5724e-06 0
-0.000116433 5.5724e-06 0
-0.000127188 5.24024e-06 0
-0.000127188 5.24024e-06 0
-0.000137187 4.86114e-06 0
-0.000137187 4.86114e-06 0
-0.000146353 4.43252e-06 0
-0.000146353 4.43252e-06 0
-0.000154583 3.95271e-06 0
-0.000154583 3.95271e-06 0
-0.000161792 3.42203e-06 0
-0.000161792 3.42203e-06 0
-0.000167891 2.84215e-06 0
-0.000167891 2.84215e-06 0
-0.0001728 2.21654e-06 0
-0.0001728 2.21654e-06 0
-0.000176444 1.55119e-06 0
-0.000176444 1.55119e-06 0
-0.000178759 8.55085e-07 0
-0.000178759 8.55085e-07 0
-0.000179686 1.41203e-07 0
-0.000179686 1.41203e-07 0
-0.000179198 -5.76962e-07 0
-0.000179198 -5.76962e-07 0
-0.000177284 -1.29429e-06 0
-0.000177284 -1.29429e-06 0
-0.000173933 -2.01111e-06 0
-0.000173933 -2.01111e-06 0
-0.000169146 -2.72393e-06 0
-0.000169146 -2.72393e-06 0
-0.000162937 -3.42703e-06 0
-0.000162937 -3.42703e-06 0
-0.000155329 -4.11478e-06 0
-0.000155329 -4.11478e-06 0
-0.000146362 -4.78087e-06 0
-0.000146362 -4.78087e-06 0
-0.000136084 -5.41949e-06 0
-0.000136084 -5.41949e-06 0
-0.000124558 -6.02549e-06 0
-0.000124558 -6.02549e-06 0
-0.000111852 -6.59428e-06 0
-0.000111852 -6.59428e-06 0
-9.80459e-05 -7.1222e-06 0
-9.80459e-05 -7.1222e-06 0
-8.32268e-05 -7.60617e-06 0
-8.32268e-05 -7.60617e-06 0
-6.74851e-05 -8.04382e-06 0
-6.74851e-05 -8.04382e-06 0
-5.09151e-05 -8.43427e-06 0
-5.09151e-05 -8.43427e-06 0
-3.36141e-05 -8.77659e-06 0
-3.36141e-05 -8.77659e-06 0
-1.56694e-05 -9.07134e-06 0
-1.56694e-05 -9.07134e-06 0
2.83387e-06 -9.31943e-06 0
2.83387e-06 -9.31943e-06 0
2.17906e-05 -9.52159e-06 0
2.17906e-05 -9.52159e-06 0
4.1097e-05 -9.68002e-06 0
4.1097e-05 -9.68002e-06 0
6.06679e-05 -9.79684e-06 0
6.06679e-05 -9.79684e-06 0
8.04255e-05 -9.87439e-06 0
8.04255e-05 -9.87439e-06 0
0.000100299 -9.9154e-06 0
0.000100299 -9.9154e-06 0
0.000120222 -9.92285e-06 0
0.000120222 -9.92285e-06 0
0.000140129 -9.89961e-06 0
0.000140129 -9.89961e-06 0
0.00015996 -9.84847e-06 0
0.00015996 -9.84847e-06 0
0.000179664 -9.77242e-06 0
0.000179664 -9.77242e-06 0
0.000199192 -9.6743e-06 0
0.000199192 -9.6743e-06 0
0.000218502 -9.55665e-06 0
0.000218502 -9.55665e-06 0
0.000237559 -9.42215e-06 0
0.000237559 -9.42215e-06 0
0.000256331 -9.27326e-06 0
0.000256331 -9.27326e-06 0
0.000274792 -9.11212e-06 0
0.000274792 -9.11212e-06 0
0.000292919 -8.9407e-06 0
0.000292919 -8.9407e-06 0
0.000310693 -8.76102e-06 0
0.000310693 -8.76102e-06 0
0.000328101 -8.57493e-06 0
0.000328101 -8.57493e-06 0
0.00034513 -8.38391e-06 0
0.00034513 -8.38391e-06 0
0.000361772 -8.18924e-06 0
0.000361772 -8.18924e-06 0
0.000378021 -7.99219e-06 0
0.000378021 -7.99219e-06 0
0.000393873 -7.79403e-06 0
0.000393873 -7.79403e-06 0
0.000409329 -7.59566e-06 0
0.000409329 -7.59566e-06 0
0.000424386 -7.39777e-06 0
0.000424386 -7.39777e-06 0
0.000439049 -7.20141e-06 0
0.000439049 -7.20141e-06 0
0.00045332 -7.00701e-06 0
0.00045332 -7.00701e-06 0
0.000467203 -6.81515e-06 0
0.000467203 -6.81515e-06 0
0.000480704 -6.62597e-06 0
0.000480704 -6.62597e-06 0
0.000493829 -6.43984e-06 0
0.000493829 -6.43984e-06 0
0.000506586 -6.25796e-06 0
0.000506586 -6.25796e-06 0
0.000518982 -6.08019e-06 0
0.000518982 -6.08019e-06 0
0.000531026 -5.90615e-06 0
0.000531026 -5.90615e-06 0
0.000542724 -5.73629e-06 0
0.000542724 -5.73629e-06 0
0.000554086 -5.57087e-06 0
0.000554086 -5.57087e-06 0
0.00056512 -5.40971e-06 0
0.00056512 -5.40971e-06 0
0.000575837 -5.25316e-06 0
0.000575837 -5.25316e-06 0
0.000586244 -5.10131e-06 0
0.000586244 -5.10131e-06 0
0.00059635 -4.95383e-06 0
0.00059635 -4.95383e-06 0
0.000606165 -4.81066e-06 0
0.000606165 -4.81066e-06 0
0.000615697 -4.67171e-06 0
0.000615697 -4.67171e-06 0
0.000624956 -4.53713e-06 0
0.000624956 -4.53713e-06 0
0.000633949 -4.407e-06 0
0.000633949 -4.407e-06 0
0.000642685 -4.28097e-06 0
0.000642685 -4.28097e-06 0
0.000651173 -4.15891e-06 0
0.000651173 -4.15891e-06 0
0.00065942 -4.04137e-06 0
0.00065942 -4.04137e-06 0
0.000667435 -3.92775e-06 0
0.000667435 -3.92775e-06 0
0.000675224 -3.81767e-06 0
0.000675224 -3.81767e-06 0
0.000682798 -3.71112e-06 0
0.000682798 -3.71112e-06 0
0.00069016 -3.60844e-06 0
0.00069016 -3.60844e-06 0
0.000697323 -3.50953e-06 0
0.000697323 -3.50953e-06 0
0.000704286 -3.41392e-06 0
0.000704286 -3.41392e-06 0
0.000711066 -3.32147e-06 0
0.000711066 -3.32147e-06 0
0.000717654 -3.23245e-06 0
0.000717654 -3.23245e-06 0
0.000724083 -3.14648e-06 0
0.000724083 -3.14648e-06 0
0.000730318 -3.06387e-06 0
0.000730318 -3.06387e-06 0
0.000736427 -2.98394e-06 0
0.000736427 -2.98394e-06 0
0.000742319 -2.90718e-06 0
0.000742319 -2.90718e-06 0
0.000748148 -2.83166e-06 0
0.000748148 -2.83166e-06 0
0.000753694 -2.76092e-06 0
0.000753694 -2.76092e-06 0
0.00075931 -2.69059e-06 0
0.00075931 -2.69059e-06 0
0.000764463 -2.62635e-06 0
0.000764463 -2.62635e-06 0
0.000769982 -2.55866e-06 0
0.000769982 -2.55866e-06 0
0.000774606 -2.502e-06 0
0.000774606 -2.502e-06 0
0.981539 -0.00297962 0
0.981539 -0.00297962 0
1.9623 -0.00595676 0
1.9623 -0.00595676 0
