# vtk DataFile Version 2.0
sampleSurface
ASCII
DATASET POLYDATA
POINTS 652 double
0 0 0
0.02 0 0
0.02 0 0.1
0 0 0.1
0.04 0 0
0.04 0 0.1
0.06 0 0
0.06 0 0.1
0.08 0 0
0.08 0 0.1
0.1 0 0
0.1 0 0.1
0.12 0 0
0.12 0 0.1
0.14 0 0
0.14 0 0.1
0.16 0 0
0.16 0 0.1
0.18 0 0
0.18 0 0.1
0.2 0 0
0.2 0 0.1
0.22 0 0
0.22 0 0.1
0.24 0 0
0.24 0 0.1
0.26 0 0
0.26 0 0.1
0.28 0 0
0.28 0 0.1
0.3 0 0
0.3 0 0.1
0.32 0 0
0.32 0 0.1
0.34 0 0
0.34 0 0.1
0.36 0 0
0.36 0 0.1
0.38 0 0
0.38 0 0.1
0.4 0 0
0.4 0 0.1
0.42 0 0
0.42 0 0.1
0.44 0 0
0.44 0 0.1
0.46 0 0
0.46 0 0.1
0.48 0 0
0.48 0 0.1
0.5 0 0
0.5 0 0.1
0.52 0 0
0.52 0 0.1
0.54 0 0
0.54 0 0.1
0.56 0 0
0.56 0 0.1
0.58 0 0
0.58 0 0.1
0.6 0 0
0.6 0 0.1
0.62 0 0
0.62 0 0.1
0.64 0 0
0.64 0 0.1
0.66 0 0
0.66 0 0.1
0.68 0 0
0.68 0 0.1
0.7 0 0
0.7 0 0.1
0.72 0 0
0.72 0 0.1
0.74 0 0
0.74 0 0.1
0.76 0 0
0.76 0 0.1
0.78 0 0
0.78 0 0.1
0.8 0 0
0.8 0 0.1
0.82 0 0
0.82 0 0.1
0.84 0 0
0.84 0 0.1
0.86 0 0
0.86 0 0.1
0.88 0 0
0.88 0 0.1
0.9 0 0
0.9 0 0.1
0.92 0 0
0.92 0 0.1
0.94 0 0
0.94 0 0.1
0.96 0 0
0.96 0 0.1
0.98 0 0
0.98 0 0.1
1 0 0
1 0 0.1
1.02 0 0
1.02 0 0.1
1.04 0 0
1.04 0 0.1
1.06 0 0
1.06 0 0.1
1.08 0 0
1.08 0 0.1
1.1 0 0
1.1 0 0.1
1.12 0 0
1.12 0 0.1
1.14 0 0
1.14 0 0.1
1.16 0 0
1.16 0 0.1
1.18 0 0
1.18 0 0.1
1.2 0 0
1.2 0 0.1
1.22 0 0
1.22 0 0.1
1.24 0 0
1.24 0 0.1
1.26 0 0
1.26 0 0.1
1.28 0 0
1.28 0 0.1
1.3 0 0
1.3 0 0.1
1.32 0 0
1.32 0 0.1
1.34 0 0
1.34 0 0.1
1.36 0 0
1.36 0 0.1
1.38 0 0
1.38 0 0.1
1.4 0 0
1.4 0 0.1
1.42 0 0
1.42 0 0.1
1.44 0 0
1.44 0 0.1
1.46 0 0
1.46 0 0.1
1.48 0 0
1.48 0 0.1
1.5 0 0
1.5 0 0.1
1.52 0 0
1.52 0 0.1
1.54 0 0
1.54 0 0.1
1.56 0 0
1.56 0 0.1
1.58 0 0
1.58 0 0.1
1.6 0 0
1.6 0 0.1
1.62 0 0
1.62 0 0.1
1.64 0 0
1.64 0 0.1
1.66 0 0
1.66 0 0.1
1.68 0 0
1.68 0 0.1
1.7 0 0
1.7 0 0.1
1.72 0 0
1.72 0 0.1
1.74 0 0
1.74 0 0.1
1.76 0 0
1.76 0 0.1
1.78 0 0
1.78 0 0.1
1.8 0 0
1.8 0 0.1
1.82 0 0
1.82 0 0.1
1.84 0 0
1.84 0 0.1
1.86 0 0
1.86 0 0.1
1.88 0 0
1.88 0 0.1
1.9 0 0
1.9 0 0.1
1.92 0 0
1.92 0 0.1
1.94 0 0
1.94 0 0.1
1.96 0 0
1.96 0 0.1
1.98 0 0
1.98 0 0.1
2 0 0
2 0 0.1
2 0.02 0
2 0.02 0.1
2 0.04 0
2 0.04 0.1
2 0.06 0
2 0.06 0.1
2 0.08 0
2 0.08 0.1
2 0.1 0
2 0.1 0.1
2 0.12 0
2 0.12 0.1
2 0.14 0
2 0.14 0.1
2 0.16 0
2 0.16 0.1
2 0.18 0
2 0.18 0.1
2 0.2 0
2 0.2 0.1
2 0.22 0
2 0.22 0.1
2 0.24 0
2 0.24 0.1
2 0.26 0
2 0.26 0.1
2 0.28 0
2 0.28 0.1
2 0.3 0
2 0.3 0.1
2 0.32 0
2 0.32 0.1
2 0.34 0
2 0.34 0.1
2 0.36 0
2 0.36 0.1
2 0.38 0
2 0.38 0.1
2 0.4 0
2 0.4 0.1
2 0.42 0
2 0.42 0.1
2 0.44 0
2 0.44 0.1
2 0.46 0
2 0.46 0.1
2 0.48 0
2 0.48 0.1
2 0.5 0
2 0.5 0.1
2 0.52 0
2 0.52 0.1
2 0.54 0
2 0.54 0.1
2 0.56 0
2 0.56 0.1
2 0.58 0
2 0.58 0.1
2 0.6 0
2 0.6 0.1
2 0.62 0
2 0.62 0.1
2 0.64 0
2 0.64 0.1
2 0.66 0
2 0.66 0.1
2 0.68 0
2 0.68 0.1
2 0.7 0
2 0.7 0.1
2 0.72 0
2 0.72 0.1
2 0.74 0
2 0.74 0.1
2 0.76 0
2 0.76 0.1
2 0.78 0
2 0.78 0.1
2 0.8 0
2 0.8 0.1
2 0.82 0
2 0.82 0.1
2 0.84 0
2 0.84 0.1
2 0.86 0
2 0.86 0.1
2 0.88 0
2 0.88 0.1
2 0.9 0
2 0.9 0.1
2 0.92 0
2 0.92 0.1
2 0.94 0
2 0.94 0.1
2 0.96 0
2 0.96 0.1
2 0.98 0
2 0.98 0.1
2 1 0
2 1 0.1
2.02 1 0
2.02 1 0.1
2.04 1 0
2.04 1 0.1
2.06 1 0
2.06 1 0.1
2.08 1 0
2.08 1 0.1
2.1 1 0
2.1 1 0.1
2.12 1 0
2.12 1 0.1
2.14 1 0
2.14 1 0.1
2.16 1 0
2.16 1 0.1
2.18 1 0
2.18 1 0.1
2.2 1 0
2.2 1 0.1
2.22 1 0
2.22 1 0.1
2.24 1 0
2.24 1 0.1
2.26 1 0
2.26 1 0.1
2.28 1 0
2.28 1 0.1
2.3 1 0
2.3 1 0.1
2.32 1 0
2.32 1 0.1
2.34 1 0
2.34 1 0.1
2.36 1 0
2.36 1 0.1
2.38 1 0
2.38 1 0.1
2.4 1 0
2.4 1 0.1
2.42 1 0
2.42 1 0.1
2.44 1 0
2.44 1 0.1
2.46 1 0
2.46 1 0.1
2.48 1 0
2.48 1 0.1
2.5 1 0
2.5 1 0.1
2.5 0 0
2.5 0 0.1
2.5 0.02 0.1
2.5 0.02 0
2.5 0.04 0.1
2.5 0.04 0
2.5 0.06 0.1
2.5 0.06 0
2.5 0.08 0.1
2.5 0.08 0
2.5 0.1 0.1
2.5 0.1 0
2.5 0.12 0.1
2.5 0.12 0
2.5 0.14 0.1
2.5 0.14 0
2.5 0.16 0.1
2.5 0.16 0
2.5 0.18 0.1
2.5 0.18 0
2.5 0.2 0.1
2.5 0.2 0
2.5 0.22 0.1
2.5 0.22 0
2.5 0.24 0.1
2.5 0.24 0
2.5 0.26 0.1
2.5 0.26 0
2.5 0.28 0.1
2.5 0.28 0
2.5 0.3 0.1
2.5 0.3 0
2.5 0.32 0.1
2.5 0.32 0
2.5 0.34 0.1
2.5 0.34 0
2.5 0.36 0.1
2.5 0.36 0
2.5 0.38 0.1
2.5 0.38 0
2.5 0.4 0.1
2.5 0.4 0
2.5 0.42 0.1
2.5 0.42 0
2.5 0.44 0.1
2.5 0.44 0
2.5 0.46 0.1
2.5 0.46 0
2.5 0.48 0.1
2.5 0.48 0
2.5 0.5 0.1
2.5 0.5 0
2.5 0.52 0.1
2.5 0.52 0
2.5 0.54 0.1
2.5 0.54 0
2.5 0.56 0.1
2.5 0.56 0
2.5 0.58 0.1
2.5 0.58 0
2.5 0.6 0.1
2.5 0.6 0
2.5 0.62 0.1
2.5 0.62 0
2.5 0.64 0.1
2.5 0.64 0
2.5 0.66 0.1
2.5 0.66 0
2.5 0.68 0.1
2.5 0.68 0
2.5 0.7 0.1
2.5 0.7 0
2.5 0.72 0.1
2.5 0.72 0
2.5 0.74 0.1
2.5 0.74 0
2.5 0.76 0.1
2.5 0.76 0
2.5 0.78 0.1
2.5 0.78 0
2.5 0.8 0.1
2.5 0.8 0
2.5 0.82 0.1
2.5 0.82 0
2.5 0.84 0.1
2.5 0.84 0
2.5 0.86 0.1
2.5 0.86 0
2.5 0.88 0.1
2.5 0.88 0
2.5 0.9 0.1
2.5 0.9 0
2.5 0.92 0.1
2.5 0.92 0
2.5 0.94 0.1
2.5 0.94 0
2.5 0.96 0.1
2.5 0.96 0
2.5 0.98 0.1
2.5 0.98 0
2.52 0 0
2.52 0 0.1
2.54 0 0
2.54 0 0.1
2.56 0 0
2.56 0 0.1
2.58 0 0
2.58 0 0.1
2.6 0 0
2.6 0 0.1
2.62 0 0
2.62 0 0.1
2.64 0 0
2.64 0 0.1
2.66 0 0
2.66 0 0.1
2.68 0 0
2.68 0 0.1
2.7 0 0
2.7 0 0.1
2.72 0 0
2.72 0 0.1
2.74 0 0
2.74 0 0.1
2.76 0 0
2.76 0 0.1
2.78 0 0
2.78 0 0.1
2.8 0 0
2.8 0 0.1
2.82 0 0
2.82 0 0.1
2.84 0 0
2.84 0 0.1
2.86 0 0
2.86 0 0.1
2.88 0 0
2.88 0 0.1
2.9 0 0
2.9 0 0.1
2.92 0 0
2.92 0 0.1
2.94 0 0
2.94 0 0.1
2.96 0 0
2.96 0 0.1
2.98 0 0
2.98 0 0.1
3 0 0
3 0 0.1
3.02 0 0
3.02 0 0.1
3.04 0 0
3.04 0 0.1
3.06 0 0
3.06 0 0.1
3.08 0 0
3.08 0 0.1
3.1 0 0
3.1 0 0.1
3.12 0 0
3.12 0 0.1
3.14 0 0
3.14 0 0.1
3.16 0 0
3.16 0 0.1
3.18 0 0
3.18 0 0.1
3.2 0 0
3.2 0 0.1
3.22 0 0
3.22 0 0.1
3.24 0 0
3.24 0 0.1
3.26 0 0
3.26 0 0.1
3.28 0 0
3.28 0 0.1
3.3 0 0
3.3 0 0.1
3.32 0 0
3.32 0 0.1
3.34 0 0
3.34 0 0.1
3.36 0 0
3.36 0 0.1
3.38 0 0
3.38 0 0.1
3.4 0 0
3.4 0 0.1
3.42 0 0
3.42 0 0.1
3.44 0 0
3.44 0 0.1
3.46 0 0
3.46 0 0.1
3.48 0 0
3.48 0 0.1
3.5 0 0
3.5 0 0.1
3.52 0 0
3.52 0 0.1
3.54 0 0
3.54 0 0.1
3.56 0 0
3.56 0 0.1
3.58 0 0
3.58 0 0.1
3.6 0 0
3.6 0 0.1
3.62 0 0
3.62 0 0.1
3.64 0 0
3.64 0 0.1
3.66 0 0
3.66 0 0.1
3.68 0 0
3.68 0 0.1
3.7 0 0
3.7 0 0.1
3.72 0 0
3.72 0 0.1
3.74 0 0
3.74 0 0.1
3.76 0 0
3.76 0 0.1
3.78 0 0
3.78 0 0.1
3.8 0 0
3.8 0 0.1
3.82 0 0
3.82 0 0.1
3.84 0 0
3.84 0 0.1
3.86 0 0
3.86 0 0.1
3.88 0 0
3.88 0 0.1
3.9 0 0
3.9 0 0.1
3.92 0 0
3.92 0 0.1
3.94 0 0
3.94 0 0.1
3.96 0 0
3.96 0 0.1
3.98 0 0
3.98 0 0.1
4 0 0
4 0 0.1
4.02 0 0
4.02 0 0.1
4.04 0 0
4.04 0 0.1
4.06 0 0
4.06 0 0.1
4.08 0 0
4.08 0 0.1
4.1 0 0
4.1 0 0.1
4.12 0 0
4.12 0 0.1
4.14 0 0
4.14 0 0.1
4.16 0 0
4.16 0 0.1
4.18 0 0
4.18 0 0.1
4.2 0 0
4.2 0 0.1
4.22 0 0
4.22 0 0.1
4.24 0 0
4.24 0 0.1
4.26 0 0
4.26 0 0.1
4.28 0 0
4.28 0 0.1
4.3 0 0
4.3 0 0.1
4.32 0 0
4.32 0 0.1
4.34 0 0
4.34 0 0.1
4.36 0 0
4.36 0 0.1
4.38 0 0
4.38 0 0.1
4.4 0 0
4.4 0 0.1
4.42 0 0
4.42 0 0.1
4.44 0 0
4.44 0 0.1
4.46 0 0
4.46 0 0.1
4.48 0 0
4.48 0 0.1
4.5 0 0
4.5 0 0.1

POLYGONS 325 1625
4 0 1 2 3
4 1 4 5 2
4 4 6 7 5
4 6 8 9 7
4 8 10 11 9
4 10 12 13 11
4 12 14 15 13
4 14 16 17 15
4 16 18 19 17
4 18 20 21 19
4 20 22 23 21
4 22 24 25 23
4 24 26 27 25
4 26 28 29 27
4 28 30 31 29
4 30 32 33 31
4 32 34 35 33
4 34 36 37 35
4 36 38 39 37
4 38 40 41 39
4 40 42 43 41
4 42 44 45 43
4 44 46 47 45
4 46 48 49 47
4 48 50 51 49
4 50 52 53 51
4 52 54 55 53
4 54 56 57 55
4 56 58 59 57
4 58 60 61 59
4 60 62 63 61
4 62 64 65 63
4 64 66 67 65
4 66 68 69 67
4 68 70 71 69
4 70 72 73 71
4 72 74 75 73
4 74 76 77 75
4 76 78 79 77
4 78 80 81 79
4 80 82 83 81
4 82 84 85 83
4 84 86 87 85
4 86 88 89 87
4 88 90 91 89
4 90 92 93 91
4 92 94 95 93
4 94 96 97 95
4 96 98 99 97
4 98 100 101 99
4 100 102 103 101
4 102 104 105 103
4 104 106 107 105
4 106 108 109 107
4 108 110 111 109
4 110 112 113 111
4 112 114 115 113
4 114 116 117 115
4 116 118 119 117
4 118 120 121 119
4 120 122 123 121
4 122 124 125 123
4 124 126 127 125
4 126 128 129 127
4 128 130 131 129
4 130 132 133 131
4 132 134 135 133
4 134 136 137 135
4 136 138 139 137
4 138 140 141 139
4 140 142 143 141
4 142 144 145 143
4 144 146 147 145
4 146 148 149 147
4 148 150 151 149
4 150 152 153 151
4 152 154 155 153
4 154 156 157 155
4 156 158 159 157
4 158 160 161 159
4 160 162 163 161
4 162 164 165 163
4 164 166 167 165
4 166 168 169 167
4 168 170 171 169
4 170 172 173 171
4 172 174 175 173
4 174 176 177 175
4 176 178 179 177
4 178 180 181 179
4 180 182 183 181
4 182 184 185 183
4 184 186 187 185
4 186 188 189 187
4 188 190 191 189
4 190 192 193 191
4 192 194 195 193
4 194 196 197 195
4 196 198 199 197
4 198 200 201 199
4 200 202 203 201
4 202 204 205 203
4 204 206 207 205
4 206 208 209 207
4 208 210 211 209
4 210 212 213 211
4 212 214 215 213
4 214 216 217 215
4 216 218 219 217
4 218 220 221 219
4 220 222 223 221
4 222 224 225 223
4 224 226 227 225
4 226 228 229 227
4 228 230 231 229
4 230 232 233 231
4 232 234 235 233
4 234 236 237 235
4 236 238 239 237
4 238 240 241 239
4 240 242 243 241
4 242 244 245 243
4 244 246 247 245
4 246 248 249 247
4 248 250 251 249
4 250 252 253 251
4 252 254 255 253
4 254 256 257 255
4 256 258 259 257
4 258 260 261 259
4 260 262 263 261
4 262 264 265 263
4 264 266 267 265
4 266 268 269 267
4 268 270 271 269
4 270 272 273 271
4 272 274 275 273
4 274 276 277 275
4 276 278 279 277
4 278 280 281 279
4 280 282 283 281
4 282 284 285 283
4 284 286 287 285
4 286 288 289 287
4 288 290 291 289
4 290 292 293 291
4 292 294 295 293
4 294 296 297 295
4 296 298 299 297
4 298 300 301 299
4 300 302 303 301
4 302 304 305 303
4 304 306 307 305
4 306 308 309 307
4 308 310 311 309
4 310 312 313 311
4 312 314 315 313
4 314 316 317 315
4 316 318 319 317
4 318 320 321 319
4 320 322 323 321
4 322 324 325 323
4 324 326 327 325
4 326 328 329 327
4 328 330 331 329
4 330 332 333 331
4 332 334 335 333
4 334 336 337 335
4 336 338 339 337
4 338 340 341 339
4 340 342 343 341
4 342 344 345 343
4 344 346 347 345
4 346 348 349 347
4 348 350 351 349
4 352 353 354 355
4 355 354 356 357
4 357 356 358 359
4 359 358 360 361
4 361 360 362 363
4 363 362 364 365
4 365 364 366 367
4 367 366 368 369
4 369 368 370 371
4 371 370 372 373
4 373 372 374 375
4 375 374 376 377
4 377 376 378 379
4 379 378 380 381
4 381 380 382 383
4 383 382 384 385
4 385 384 386 387
4 387 386 388 389
4 389 388 390 391
4 391 390 392 393
4 393 392 394 395
4 395 394 396 397
4 397 396 398 399
4 399 398 400 401
4 401 400 402 403
4 403 402 404 405
4 405 404 406 407
4 407 406 408 409
4 409 408 410 411
4 411 410 412 413
4 413 412 414 415
4 415 414 416 417
4 417 416 418 419
4 419 418 420 421
4 421 420 422 423
4 423 422 424 425
4 425 424 426 427
4 427 426 428 429
4 429 428 430 431
4 431 430 432 433
4 433 432 434 435
4 435 434 436 437
4 437 436 438 439
4 439 438 440 441
4 441 440 442 443
4 443 442 444 445
4 445 444 446 447
4 447 446 448 449
4 449 448 450 451
4 451 450 351 350
4 352 452 453 353
4 452 454 455 453
4 454 456 457 455
4 456 458 459 457
4 458 460 461 459
4 460 462 463 461
4 462 464 465 463
4 464 466 467 465
4 466 468 469 467
4 468 470 471 469
4 470 472 473 471
4 472 474 475 473
4 474 476 477 475
4 476 478 479 477
4 478 480 481 479
4 480 482 483 481
4 482 484 485 483
4 484 486 487 485
4 486 488 489 487
4 488 490 491 489
4 490 492 493 491
4 492 494 495 493
4 494 496 497 495
4 496 498 499 497
4 498 500 501 499
4 500 502 503 501
4 502 504 505 503
4 504 506 507 505
4 506 508 509 507
4 508 510 511 509
4 510 512 513 511
4 512 514 515 513
4 514 516 517 515
4 516 518 519 517
4 518 520 521 519
4 520 522 523 521
4 522 524 525 523
4 524 526 527 525
4 526 528 529 527
4 528 530 531 529
4 530 532 533 531
4 532 534 535 533
4 534 536 537 535
4 536 538 539 537
4 538 540 541 539
4 540 542 543 541
4 542 544 545 543
4 544 546 547 545
4 546 548 549 547
4 548 550 551 549
4 550 552 553 551
4 552 554 555 553
4 554 556 557 555
4 556 558 559 557
4 558 560 561 559
4 560 562 563 561
4 562 564 565 563
4 564 566 567 565
4 566 568 569 567
4 568 570 571 569
4 570 572 573 571
4 572 574 575 573
4 574 576 577 575
4 576 578 579 577
4 578 580 581 579
4 580 582 583 581
4 582 584 585 583
4 584 586 587 585
4 586 588 589 587
4 588 590 591 589
4 590 592 593 591
4 592 594 595 593
4 594 596 597 595
4 596 598 599 597
4 598 600 601 599
4 600 602 603 601
4 602 604 605 603
4 604 606 607 605
4 606 608 609 607
4 608 610 611 609
4 610 612 613 611
4 612 614 615 613
4 614 616 617 615
4 616 618 619 617
4 618 620 621 619
4 620 622 623 621
4 622 624 625 623
4 624 626 627 625
4 626 628 629 627
4 628 630 631 629
4 630 632 633 631
4 632 634 635 633
4 634 636 637 635
4 636 638 639 637
4 638 640 641 639
4 640 642 643 641
4 642 644 645 643
4 644 646 647 645
4 646 648 649 647
4 648 650 651 649
POINT_DATA 652
FIELD attributes 1
U 3 652 float
2.43762 -0.0163147 -0.00567197
1.21931 -0.00816068 -0.00283598
1.21931 -0.00816068 -0.00283598
2.43762 -0.0163147 -0.00567197
0.000996575 -3.95587e-06 0
0.000996575 -3.95587e-06 0
0.000999267 5.51858e-07 0
0.000999267 5.51858e-07 0
0.000998779 3.22495e-06 0
0.000998779 3.22495e-06 0
0.000996669 3.63292e-06 0
0.000996669 3.63292e-06 0
0.000994519 1.89683e-06 0
0.000994519 1.89683e-06 0
0.000992871 -8.51253e-07 0
0.000992871 -8.51253e-07 0
0.00099217 -3.10981e-06 0
0.00099217 -3.10981e-06 0
0.000992556 -3.4719e-06 0
0.000992556 -3.4719e-06 0
0.000992864 -1.48898e-06 0
0.000992864 -1.48898e-06 0
0.000991373 1.72738e-06 0
0.000991373 1.72738e-06 0
0.00098748 4.22679e-06 0
0.00098748 4.22679e-06 0
0.000982103 4.72388e-06 0
0.000982103 4.72388e-06 0
0.000976797 3.40126e-06 0
0.000976797 3.40126e-06 0
0.000972705 1.52011e-06 0
0.000972705 1.52011e-06 0
0.00097017 3.88015e-07 0
0.00097017 3.88015e-07 0
0.000968897 5.63263e-07 0
0.000968897 5.63263e-07 0
0.000968201 1.74198e-06 0
0.000968201 1.74198e-06 0
0.000967189 3.09861e-06 0
0.000967189 3.09861e-06 0
0.000965019 3.77754e-06 0
0.000965019 3.77754e-06 0
0.000961313 3.36945e-06 0
0.000961313 3.36945e-06 0
0.000956487 2.15997e-06 0
0.000956487 2.15997e-06 0
0.000951528 9.64359e-07 0
0.000951528 9.64359e-07 0
0.000947241 6.35804e-07 0
0.000947241 6.35804e-07 0
0.0009436 1.5085e-06 0
0.0009436 1.5085e-06 0
0.000939821 3.10033e-06 0
0.000939821 3.10033e-06 0
0.000935079 4.41219e-06 0
0.000935079 4.41219e-06 0
0.000929235 4.68354e-06 0
0.000929235 4.68354e-06 0
0.000922839 3.95723e-06 0
0.000922839 3.95723e-06 0
0.0009165 2.94073e-06 0
0.0009165 2.94073e-06 0
0.000910348 2.3005e-06 0
0.000910348 2.3005e-06 0
0.000904129 2.09086e-06 0
0.000904129 2.09086e-06 0
0.000897696 1.88877e-06 0
0.000897696 1.88877e-06 0
0.00089124 1.45615e-06 0
0.00089124 1.45615e-06 0
0.000885007 1.16805e-06 0
0.000885007 1.16805e-06 0
0.000878897 1.67551e-06 0
0.000878897 1.67551e-06 0
0.00087246 3.14448e-06 0
0.00087246 3.14448e-06 0
0.000865347 4.93054e-06 0
0.000865347 4.93054e-06 0
0.000857685 6.08993e-06 0
0.000857685 6.08993e-06 0
0.000849916 6.24338e-06 0
0.000849916 6.24338e-06 0
0.000842238 5.9191e-06 0
0.000842238 5.9191e-06 0
0.000834274 6.01291e-06 0
0.000834274 6.01291e-06 0
0.000825358 6.90239e-06 0
0.000825358 6.90239e-06 0
0.000815206 8.09312e-06 0
0.000815206 8.09312e-06 0
0.000804286 8.73038e-06 0
0.000804286 8.73038e-06 0
0.000793473 8.46803e-06 0
0.000793473 8.46803e-06 0
0.000783269 7.85106e-06 0
0.000783269 7.85106e-06 0
0.000773261 7.85811e-06 0
0.000773261 7.85811e-06 0
0.000762266 9.05318e-06 0
0.000762266 9.05318e-06 0
0.000749061 1.10952e-05 0
0.000749061 1.10952e-05 0
0.000733189 1.29862e-05 0
0.000733189 1.29862e-05 0
0.000715237 1.3803e-05 0
0.000715237 1.3803e-05 0
0.000696458 1.32801e-05 0
0.000696458 1.32801e-05 0
0.00067809 1.18314e-05 0
0.00067809 1.18314e-05 0
0.000660873 1.01421e-05 0
0.000660873 1.01421e-05 0
0.000644956 8.74626e-06 0
0.000644956 8.74626e-06 0
0.000630076 7.85892e-06 0
0.000630076 7.85892e-06 0
0.000615811 7.43945e-06 0
0.000615811 7.43945e-06 0
0.00060177 7.33614e-06 0
0.00060177 7.33614e-06 0
0.000587679 7.39996e-06 0
0.000587679 7.39996e-06 0
0.000573382 7.53184e-06 0
0.000573382 7.53184e-06 0
0.000558812 7.68193e-06 0
0.000558812 7.68193e-06 0
0.000543945 7.83206e-06 0
0.000543945 7.83206e-06 0
0.000528779 7.97823e-06 0
0.000528779 7.97823e-06 0
0.00051332 8.11979e-06 0
0.00051332 8.11979e-06 0
0.000497572 8.2558e-06 0
0.000497572 8.2558e-06 0
0.000481543 8.3851e-06 0
0.000481543 8.3851e-06 0
0.00046524 8.50631e-06 0
0.00046524 8.50631e-06 0
0.000448669 8.61708e-06 0
0.000448669 8.61708e-06 0
0.000431841 8.7146e-06 0
0.000431841 8.7146e-06 0
0.000414769 8.79617e-06 0
0.000414769 8.79617e-06 0
0.000397472 8.85924e-06 0
0.000397472 8.85924e-06 0
0.000379968 8.90081e-06 0
0.000379968 8.90081e-06 0
0.00036228 8.91689e-06 0
0.00036228 8.91689e-06 0
0.00034444 8.9039e-06 0
0.00034444 8.9039e-06 0
0.000326481 8.85875e-06 0
0.000326481 8.85875e-06 0
0.000308441 8.77731e-06 0
0.000308441 8.77731e-06 0
0.000290366 8.65486e-06 0
0.000290366 8.65486e-06 0
0.000272309 8.48726e-06 0
0.000272309 8.48726e-06 0
0.000254328 8.27086e-06 0
0.000254328 8.27086e-06 0
0.000236486 8.00272e-06 0
0.000236486 8.00272e-06 0
0.000218853 7.68073e-06 0
0.000218853 7.68073e-06 0
0.000201502 7.30346e-06 0
0.000201502 7.30346e-06 0
0.000184511 6.87084e-06 0
0.000184511 6.87084e-06 0
0.000167959 6.385e-06 0
0.000167959 6.385e-06 0
0.000151922 5.84995e-06 0
0.000151922 5.84995e-06 0
0.000136477 5.27176e-06 0
0.000136477 5.27176e-06 0
0.00012169 4.65873e-06 0
0.00012169 4.65873e-06 0
0.00010762 4.02133e-06 0
0.00010762 4.02133e-06 0
9.43145e-05 3.37218e-06 0
9.43145e-05 3.37218e-06 0
8.18033e-05 2.72559e-06 0
8.18033e-05 2.72559e-06 0
7.00992e-05 2.09663e-06 0
7.00992e-05 2.09663e-06 0
5.91945e-05 1.50064e-06 0
5.91945e-05 1.50064e-06 0
4.90593e-05 9.52883e-07 0
4.90593e-05 9.52883e-07 0
3.96407e-05 4.67222e-07 0
3.96407e-05 4.67222e-07 0
3.08644e-05 5.54297e-08 0
3.08644e-05 5.54297e-08 0
2.2632e-05 -2.7486e-07 0
2.2632e-05 -2.7486e-07 0
1.48341e-05 -5.24816e-07 0
1.48341e-05 -5.24816e-07 0
7.33567e-06 -6.7324e-07 0
7.33567e-06 -6.7324e-07 0
3.64078e-06 -7.15931e-07 0
3.64078e-06 -7.15931e-07 0
7.12228e-06 7.41949e-06 0
7.12228e-06 7.41949e-06 0
1.15401e-05 2.85511e-05 0
1.15401e-05 2.85511e-05 0
1.23516e-05 5.37284e-05 0
1.23516e-05 5.37284e-05 0
1.18517e-05 7.79659e-05 0
1.18517e-05 7.79659e-05 0
1.11436e-05 0.000101104 0
1.11436e-05 0.000101104 0
1.05947e-05 0.000122748 0
1.05947e-05 0.000122748 0
1.02712e-05 0.000143592 0
1.02712e-05 0.000143592 0
1.01324e-05 0.000164032 0
1.01324e-05 0.000164032 0
1.01167e-05 0.00018433 0
1.01167e-05 0.00018433 0
1.01733e-05 0.000204675 0
1.01733e-05 0.000204675 0
1.02691e-05 0.00022518 0
1.02691e-05 0.00022518 0
1.03851e-05 0.000245902 0
1.03851e-05 0.000245902 0
1.05118e-05 0.000266868 0
1.05118e-05 0.000266868 0
1.06456e-05 0.000288095 0
1.06456e-05 0.000288095 0
1.07861e-05 0.000309594 0
1.07861e-05 0.000309594 0
1.09345e-05 0.000331381 0
1.09345e-05 0.000331381 0
1.1092e-05 0.000353472 0
1.1092e-05 0.000353472 0
1.12604e-05 0.000375887 0
1.12604e-05 0.000375887 0
1.1441e-05 0.00039865 0
1.1441e-05 0.00039865 0
1.16361e-05 0.000421787 0
1.16361e-05 0.000421787 0
1.18473e-05 0.000445329 0
1.18473e-05 0.000445329 0
1.20768e-05 0.00046931 0
1.20768e-05 0.00046931 0
1.23258e-05 0.000493767 0
1.23258e-05 0.000493767 0
1.25973e-05 0.000518744 0
1.25973e-05 0.000518744 0
1.28929e-05 0.000544284 0
1.28929e-05 0.000544284 0
1.32172e-05 0.000570443 0
1.32172e-05 0.000570443 0
1.35711e-05 0.000597276 0
1.35711e-05 0.000597276 0
1.39622e-05 0.000624854 0
1.39622e-05 0.000624854 0
1.43891e-05 0.000653241 0
1.43891e-05 0.000653241 0
1.48685e-05 0.000682538 0
1.48685e-05 0.000682538 0
1.5387e-05 0.000712816 0
1.5387e-05 0.000712816 0
1.59862e-05 0.000744225 0
1.59862e-05 0.000744225 0
1.66212e-05 0.000776833 0
1.66212e-05 0.000776833 0
1.73934e-05 0.000810881 0
1.73934e-05 0.000810881 0
1.81744e-05 0.000846412 0
1.81744e-05 0.000846412 0
1.92132e-05 0.000883831 0
1.92132e-05 0.000883831 0
2.01723e-05 0.000923108 0
2.01723e-05 0.000923108 0
2.16516e-05 0.000964961 0
2.16516e-05 0.000964961 0
2.28187e-05 0.00100919 0
2.28187e-05 0.00100919 0
2.50859e-05 0.0010571 0
2.50859e-05 0.0010571 0
2.64573e-05 0.00110816 0
2.64573e-05 0.00110816 0
3.02824e-05 0.00116477 0
3.02824e-05 0.00116477 0
3.17487e-05 0.00122586 0
3.17487e-05 0.00122586 0
3.89743e-05 0.00129596 0
3.89743e-05 0.00129596 0
4.05919e-05 0.00137364 0
4.05919e-05 0.00137364 0
5.62742e-05 0.00146751 0
5.62742e-05 0.00146751 0
6.0223e-05 0.00157863 0
6.0223e-05 0.00157863 0
0.000103334 0.00172311 0
0.000103334 0.00172311 0
0.000126237 0.00191553 0
0.000126237 0.00191553 0
7.34433e-05 0.00117418 0
7.34433e-05 0.00117418 0
-0.00040372 0.000161026 0
-0.00040372 0.000161026 0
-0.000648901 -6.97914e-05 0
-0.000648901 -6.97914e-05 0
-0.000617791 -0.000247623 0
-0.000617791 -0.000247623 0
-0.000356617 -0.000467887 0
-0.000356617 -0.000467887 0
0.000360779 -0.000503413 0
0.000360779 -0.000503413 0
0.000946624 -0.000338578 0
0.000946624 -0.000338578 0
0.00135723 -0.000169282 0
0.00135723 -0.000169282 0
0.00139902 -1.92038e-05 0
0.00139902 -1.92038e-05 0
0.00116489 0.00011893 0
0.00116489 0.00011893 0
0.000852685 8.975e-05 0
0.000852685 8.975e-05 0
0.000647593 6.05331e-06 0
0.000647593 6.05331e-06 0
0.000227147 0.000248931 0
0.000227147 0.000248931 0
-0.000557324 0.000535405 0
-0.000557324 0.000535405 0
-0.00134435 0.000543269 0
-0.00134435 0.000543269 0
-0.00197586 0.000459693 0
-0.00197586 0.000459693 0
-0.00246941 0.000375667 0
-0.00246941 0.000375667 0
-0.00281577 0.000293687 0
-0.00281577 0.000293687 0
-0.0030216 0.000219702 0
-0.0030216 0.000219702 0
-0.00309687 0.000157147 0
-0.00309687 0.000157147 0
-0.0030626 0.000114025 0
-0.0030626 0.000114025 0
-0.0029385 0.000103669 0
-0.0029385 0.000103669 0
-0.00272976 0.000145492 0
-0.00272976 0.000145492 0
-0.00246473 0.000251297 0
-0.00246473 0.000251297 0
-0.00251995 0.00042247 0
-0.00251995 0.00042247 0
-0.0015016 0.00107976 0
-0.0015016 0.00107976 0
-8.52308e-06 7.6748e-06 0
-8.52308e-06 7.6748e-06 0
-8.85492e-06 1.6077e-05 0
-8.85492e-06 1.6077e-05 0
-9.09212e-06 3.31493e-05 0
-9.09212e-06 3.31493e-05 0
-8.98443e-06 5.01689e-05 0
-8.98443e-06 5.01689e-05 0
-8.9945e-06 6.6987e-05 0
-8.9945e-06 6.6987e-05 0
-9.0508e-06 8.40007e-05 0
-9.0508e-06 8.40007e-05 0
-9.12163e-06 0.000101177 0
-9.12163e-06 0.000101177 0
-9.19935e-06 0.00011854 0
-9.19935e-06 0.00011854 0
-9.2808e-06 0.000136113 0
-9.2808e-06 0.000136113 0
-9.3628e-06 0.000153904 0
-9.3628e-06 0.000153904 0
-9.44082e-06 0.000171915 0
-9.44082e-06 0.000171915 0
-9.50952e-06 0.000190138 0
-9.50952e-06 0.000190138 0
-9.56296e-06 0.000208552 0
-9.56296e-06 0.000208552 0
-9.59427e-06 0.000227125 0
-9.59427e-06 0.000227125 0
-9.59506e-06 0.000245807 0
-9.59506e-06 0.000245807 0
-9.55729e-06 0.00026453 0
-9.55729e-06 0.00026453 0
-9.47019e-06 0.00028321 0
-9.47019e-06 0.00028321 0
-9.32293e-06 0.000301737 0
-9.32293e-06 0.000301737 0
-9.1049e-06 0.000319982 0
-9.1049e-06 0.000319982 0
-8.80253e-06 0.000337792 0
-8.80253e-06 0.000337792 0
-8.40636e-06 0.000354986 0
-8.40636e-06 0.000354986 0
-7.90841e-06 0.00037136 0
-7.90841e-06 0.00037136 0
-7.29568e-06 0.000386689 0
-7.29568e-06 0.000386689 0
-6.55681e-06 0.00040072 0
-6.55681e-06 0.00040072 0
-5.68928e-06 0.000413185 0
-5.68928e-06 0.000413185 0
-4.69023e-06 0.00042381 0
-4.69023e-06 0.00042381 0
-3.55133e-06 0.000432314 0
-3.55133e-06 0.000432314 0
-2.26001e-06 0.000438401 0
-2.26001e-06 0.000438401 0
-8.00638e-07 0.000441796 0
-8.00638e-07 0.000441796 0
8.46117e-07 0.000442218 0
8.46117e-07 0.000442218 0
2.70107e-06 0.000439353 0
2.70107e-06 0.000439353 0
4.74658e-06 0.00043296 0
4.74658e-06 0.00043296 0
6.93138e-06 0.000422786 0
6.93138e-06 0.000422786 0
9.18404e-06 0.000408882 0
9.18404e-06 0.000408882 0
1.15139e-05 0.000390815 0
1.15139e-05 0.000390815 0
1.38849e-05 0.000369389 0
1.38849e-05 0.000369389 0
1.6371e-05 0.000342697 0
1.6371e-05 0.000342697 0
1.88042e-05 0.000314772 0
1.88042e-05 0.000314772 0
2.13357e-05 0.000278875 0
2.13357e-05 0.000278875 0
2.40776e-05 0.000245432 0
2.40776e-05 0.000245432 0
2.68655e-05 0.000199576 0
2.68655e-05 0.000199576 0
3.06735e-05 0.000160536 0
3.06735e-05 0.000160536 0
3.56495e-05 0.000102509 0
3.56495e-05 0.000102509 0
4.04411e-05 5.61569e-05 0
4.04411e-05 5.61569e-05 0
1.29066e-05 -1.38059e-05 0
1.29066e-05 -1.38059e-05 0
-3.43751e-05 -4.72818e-06 0
-3.43751e-05 -4.72818e-06 0
-0.000172527 -1.17766e-05 0
-0.000172527 -1.17766e-05 0
-0.000225959 0.000271857 0
-0.000225959 0.000271857 0
-0.000346859 0.000442611 0
-0.000346859 0.000442611 0
-0.000412185 0.000935012 0
-0.000412185 0.000935012 0
-1.60421e-05 7.52255e-06 0
-1.60421e-05 7.52255e-06 0
-3.13556e-05 7.4532e-06 0
-3.13556e-05 7.4532e-06 0
-4.70578e-05 7.55024e-06 0
-4.70578e-05 7.55024e-06 0
-6.27002e-05 7.56701e-06 0
-6.27002e-05 7.56701e-06 0
-7.82256e-05 7.56786e-06 0
-7.82256e-05 7.56786e-06 0
-9.36466e-05 7.5535e-06 0
-9.36466e-05 7.5535e-06 0
-0.000108874 7.5126e-06 0
-0.000108874 7.5126e-06 0
-0.000123885 7.43547e-06 0
-0.000123885 7.43547e-06 0
-0.000138578 7.31378e-06 0
-0.000138578 7.31378e-06 0
-0.000152904 7.14267e-06 0
-0.000152904 7.14267e-06 0
-0.000166754 6.92035e-06 0
-0.000166754 6.92035e-06 0
-0.000180043 6.6427e-06 0
-0.000180043 6.6427e-06 0
-0.000192655 6.30382e-06 0
-0.000192655 6.30382e-06 0
-0.000204486 5.89998e-06 0
-0.000204486 5.89998e-06 0
-0.000215419 5.42893e-06 0
-0.000215419 5.42893e-06 0
-0.000225342 4.89054e-06 0
-0.000225342 4.89054e-06 0
-0.000234139 4.28704e-06 0
-0.000234139 4.28704e-06 0
-0.000241702 3.62215e-06 0
-0.000241702 3.62215e-06 0
-0.000247925 2.90066e-06 0
-0.000247925 2.90066e-06 0
-0.000252717 2.12938e-06 0
-0.000252717 2.12938e-06 0
-0.00025599 1.31869e-06 0
-0.00025599 1.31869e-06 0
-0.00025767 4.84202e-07 0
-0.00025767 4.84202e-07 0
-0.000257703 -3.6112e-07 0
-0.000257703 -3.6112e-07 0
-0.000256073 -1.20655e-06 0
-0.000256073 -1.20655e-06 0
-0.000252766 -2.04832e-06 0
-0.000252766 -2.04832e-06 0
-0.00024777 -2.88763e-06 0
-0.00024777 -2.88763e-06 0
-0.000241096 -3.71876e-06 0
-0.000241096 -3.71876e-06 0
-0.000232766 -4.534e-06 0
-0.000232766 -4.534e-06 0
-0.000222822 -5.32525e-06 0
-0.000222822 -5.32525e-06 0
-0.000211319 -6.08475e-06 0
-0.000211319 -6.08475e-06 0
-0.00019833 -6.80536e-06 0
-0.00019833 -6.80536e-06 0
-0.00018394 -7.48085e-06 0
-0.00018394 -7.48085e-06 0
-0.000168245 -8.10619e-06 0
-0.000168245 -8.10619e-06 0
-0.00015135 -8.67702e-06 0
-0.00015135 -8.67702e-06 0
-0.000133369 -9.19053e-06 0
-0.000133369 -9.19053e-06 0
-0.00011442 -9.64506e-06 0
-0.00011442 -9.64506e-06 0
-9.46213e-05 -1.00394e-05 0
-9.46213e-05 -1.00394e-05 0
-7.40942e-05 -1.03743e-05 0
-7.40942e-05 -1.03743e-05 0
-5.29582e-05 -1.06508e-05 0
-5.29582e-05 -1.06508e-05 0
-3.13315e-05 -1.08703e-05 0
-3.13315e-05 -1.08703e-05 0
-9.31012e-06 -1.10357e-05 0
-9.31012e-06 -1.10357e-05 0
1.30033e-05 -1.11502e-05 0
1.30033e-05 -1.11502e-05 0
3.54847e-05 -1.12171e-05 0
3.54847e-05 -1.12171e-05 0
5.80418e-05 -1.12399e-05 0
5.80418e-05 -1.12399e-05 0
8.0604e-05 -1.12225e-05 0
8.0604e-05 -1.12225e-05 0
0.000103094 -1.11687e-05 0
0.000103094 -1.11687e-05 0
0.000125443 -1.10824e-05 0
0.000125443 -1.10824e-05 0
0.000147589 -1.09673e-05 0
0.000147589 -1.09673e-05 0
0.000169477 -1.08273e-05 0
0.000169477 -1.08273e-05 0
0.000191063 -1.06659e-05 0
0.000191063 -1.06659e-05 0
0.000212305 -1.04862e-05 0
0.000212305 -1.04862e-05 0
0.000233171 -1.02911e-05 0
0.000233171 -1.02911e-05 0
0.000253633 -1.00836e-05 0
0.000253633 -1.00836e-05 0
0.000273668 -9.86628e-06 0
0.000273668 -9.86628e-06 0
0.00029326 -9.64163e-06 0
0.00029326 -9.64163e-06 0
0.000312396 -9.41151e-06 0
0.000312396 -9.41151e-06 0
0.000331066 -9.1776e-06 0
0.000331066 -9.1776e-06 0
0.000349266 -8.94175e-06 0
0.000349266 -8.94175e-06 0
0.000366992 -8.70538e-06 0
0.000366992 -8.70538e-06 0
0.000384244 -8.4696e-06 0
0.000384244 -8.4696e-06 0
0.000401026 -8.23549e-06 0
0.000401026 -8.23549e-06 0
0.000417341 -8.00399e-06 0
0.000417341 -8.00399e-06 0
0.000433195 -7.7759e-06 0
0.000433195 -7.7759e-06 0
0.000448595 -7.55165e-06 0
0.000448595 -7.55165e-06 0
0.00046355 -7.3316e-06 0
0.00046355 -7.3316e-06 0
0.00047807 -7.11643e-06 0
0.00047807 -7.11643e-06 0
0.000492164 -6.90662e-06 0
0.000492164 -6.90662e-06 0
0.000505843 -6.7023e-06 0
0.000505843 -6.7023e-06 0
0.000519117 -6.50368e-06 0
0.000519117 -6.50368e-06 0
0.000531999 -6.31081e-06 0
0.000531999 -6.31081e-06 0
0.0005445 -6.12347e-06 0
0.0005445 -6.12347e-06 0
0.000556631 -5.94177e-06 0
0.000556631 -5.94177e-06 0
0.000568405 -5.76612e-06 0
0.000568405 -5.76612e-06 0
0.000579832 -5.59644e-06 0
0.000579832 -5.59644e-06 0
0.000590924 -5.43243e-06 0
0.000590924 -5.43243e-06 0
0.000601693 -5.27408e-06 0
0.000601693 -5.27408e-06 0
0.000612151 -5.12138e-06 0
0.000612151 -5.12138e-06 0
0.000622308 -4.97422e-06 0
0.000622308 -4.97422e-06 0
0.000632175 -4.83237e-06 0
0.000632175 -4.83237e-06 0
0.000641762 -4.69565e-06 0
0.000641762 -4.69565e-06 0
0.000651081 -4.56403e-06 0
0.000651081 -4.56403e-06 0
0.00066014 -4.43757e-06 0
0.00066014 -4.43757e-06 0
0.000668951 -4.31604e-06 0
0.000668951 -4.31604e-06 0
0.000677521 -4.19918e-06 0
0.000677521 -4.19918e-06 0
0.000685865 -4.08684e-06 0
0.000685865 -4.08684e-06 0
0.000693983 -3.97901e-06 0
0.000693983 -3.97901e-06 0
0.000701896 -3.87547e-06 0
0.000701896 -3.87547e-06 0
0.000709593 -3.77634e-06 0
0.000709593 -3.77634e-06 0
0.000717115 -3.68118e-06 0
0.000717115 -3.68118e-06 0
0.000724419 -3.59029e-06 0
0.000724419 -3.59029e-06 0
0.000731591 -3.50264e-06 0
0.000731591 -3.50264e-06 0
0.000738519 -3.41938e-06 0
0.000738519 -3.41938e-06 0
0.000745394 -3.33887e-06 0
0.000745394 -3.33887e-06 0
0.000751941 -3.26366e-06 0
0.000751941 -3.26366e-06 0
0.000758598 -3.1893e-06 0
0.000758598 -3.1893e-06 0
0.000764713 -3.12184e-06 0
0.000764713 -3.12184e-06 0
0.000771296 -3.05188e-06 0
0.000771296 -3.05188e-06 0
0.00077682 -2.99377e-06 0
0.00077682 -2.99377e-06 0
0.986866 -0.00359413 0
0.986866 -0.00359413 0
1.97295 -0.00718528 0
1.97295 -0.00718528 0
