# vtk DataFile Version 2.0
sampleSurface
ASCII
DATASET POLYDATA
POINTS 652 double
0 0 0
0.02 0 0
0.02 0 0.1
0 0 0.1
0.04 0 0
0.04 0 0.1
0.06 0 0
0.06 0 0.1
0.08 0 0
0.08 0 0.1
0.1 0 0
0.1 0 0.1
0.12 0 0
0.12 0 0.1
0.14 0 0
0.14 0 0.1
0.16 0 0
0.16 0 0.1
0.18 0 0
0.18 0 0.1
0.2 0 0
0.2 0 0.1
0.22 0 0
0.22 0 0.1
0.24 0 0
0.24 0 0.1
0.26 0 0
0.26 0 0.1
0.28 0 0
0.28 0 0.1
0.3 0 0
0.3 0 0.1
0.32 0 0
0.32 0 0.1
0.34 0 0
0.34 0 0.1
0.36 0 0
0.36 0 0.1
0.38 0 0
0.38 0 0.1
0.4 0 0
0.4 0 0.1
0.42 0 0
0.42 0 0.1
0.44 0 0
0.44 0 0.1
0.46 0 0
0.46 0 0.1
0.48 0 0
0.48 0 0.1
0.5 0 0
0.5 0 0.1
0.52 0 0
0.52 0 0.1
0.54 0 0
0.54 0 0.1
0.56 0 0
0.56 0 0.1
0.58 0 0
0.58 0 0.1
0.6 0 0
0.6 0 0.1
0.62 0 0
0.62 0 0.1
0.64 0 0
0.64 0 0.1
0.66 0 0
0.66 0 0.1
0.68 0 0
0.68 0 0.1
0.7 0 0
0.7 0 0.1
0.72 0 0
0.72 0 0.1
0.74 0 0
0.74 0 0.1
0.76 0 0
0.76 0 0.1
0.78 0 0
0.78 0 0.1
0.8 0 0
0.8 0 0.1
0.82 0 0
0.82 0 0.1
0.84 0 0
0.84 0 0.1
0.86 0 0
0.86 0 0.1
0.88 0 0
0.88 0 0.1
0.9 0 0
0.9 0 0.1
0.92 0 0
0.92 0 0.1
0.94 0 0
0.94 0 0.1
0.96 0 0
0.96 0 0.1
0.98 0 0
0.98 0 0.1
1 0 0
1 0 0.1
1.02 0 0
1.02 0 0.1
1.04 0 0
1.04 0 0.1
1.06 0 0
1.06 0 0.1
1.08 0 0
1.08 0 0.1
1.1 0 0
1.1 0 0.1
1.12 0 0
1.12 0 0.1
1.14 0 0
1.14 0 0.1
1.16 0 0
1.16 0 0.1
1.18 0 0
1.18 0 0.1
1.2 0 0
1.2 0 0.1
1.22 0 0
1.22 0 0.1
1.24 0 0
1.24 0 0.1
1.26 0 0
1.26 0 0.1
1.28 0 0
1.28 0 0.1
1.3 0 0
1.3 0 0.1
1.32 0 0
1.32 0 0.1
1.34 0 0
1.34 0 0.1
1.36 0 0
1.36 0 0.1
1.38 0 0
1.38 0 0.1
1.4 0 0
1.4 0 0.1
1.42 0 0
1.42 0 0.1
1.44 0 0
1.44 0 0.1
1.46 0 0
1.46 0 0.1
1.48 0 0
1.48 0 0.1
1.5 0 0
1.5 0 0.1
1.52 0 0
1.52 0 0.1
1.54 0 0
1.54 0 0.1
1.56 0 0
1.56 0 0.1
1.58 0 0
1.58 0 0.1
1.6 0 0
1.6 0 0.1
1.62 0 0
1.62 0 0.1
1.64 0 0
1.64 0 0.1
1.66 0 0
1.66 0 0.1
1.68 0 0
1.68 0 0.1
1.7 0 0
1.7 0 0.1
1.72 0 0
1.72 0 0.1
1.74 0 0
1.74 0 0.1
1.76 0 0
1.76 0 0.1
1.78 0 0
1.78 0 0.1
1.8 0 0
1.8 0 0.1
1.82 0 0
1.82 0 0.1
1.84 0 0
1.84 0 0.1
1.86 0 0
1.86 0 0.1
1.88 0 0
1.88 0 0.1
1.9 0 0
1.9 0 0.1
1.92 0 0
1.92 0 0.1
1.94 0 0
1.94 0 0.1
1.96 0 0
1.96 0 0.1
1.98 0 0
1.98 0 0.1
2 0 0
2 0 0.1
2 0.02 0
2 0.02 0.1
2 0.04 0
2 0.04 0.1
2 0.06 0
2 0.06 0.1
2 0.08 0
2 0.08 0.1
2 0.1 0
2 0.1 0.1
2 0.12 0
2 0.12 0.1
2 0.14 0
2 0.14 0.1
2 0.16 0
2 0.16 0.1
2 0.18 0
2 0.18 0.1
2 0.2 0
2 0.2 0.1
2 0.22 0
2 0.22 0.1
2 0.24 0
2 0.24 0.1
2 0.26 0
2 0.26 0.1
2 0.28 0
2 0.28 0.1
2 0.3 0
2 0.3 0.1
2 0.32 0
2 0.32 0.1
2 0.34 0
2 0.34 0.1
2 0.36 0
2 0.36 0.1
2 0.38 0
2 0.38 0.1
2 0.4 0
2 0.4 0.1
2 0.42 0
2 0.42 0.1
2 0.44 0
2 0.44 0.1
2 0.46 0
2 0.46 0.1
2 0.48 0
2 0.48 0.1
2 0.5 0
2 0.5 0.1
2 0.52 0
2 0.52 0.1
2 0.54 0
2 0.54 0.1
2 0.56 0
2 0.56 0.1
2 0.58 0
2 0.58 0.1
2 0.6 0
2 0.6 0.1
2 0.62 0
2 0.62 0.1
2 0.64 0
2 0.64 0.1
2 0.66 0
2 0.66 0.1
2 0.68 0
2 0.68 0.1
2 0.7 0
2 0.7 0.1
2 0.72 0
2 0.72 0.1
2 0.74 0
2 0.74 0.1
2 0.76 0
2 0.76 0.1
2 0.78 0
2 0.78 0.1
2 0.8 0
2 0.8 0.1
2 0.82 0
2 0.82 0.1
2 0.84 0
2 0.84 0.1
2 0.86 0
2 0.86 0.1
2 0.88 0
2 0.88 0.1
2 0.9 0
2 0.9 0.1
2 0.92 0
2 0.92 0.1
2 0.94 0
2 0.94 0.1
2 0.96 0
2 0.96 0.1
2 0.98 0
2 0.98 0.1
2 1 0
2 1 0.1
2.02 1 0
2.02 1 0.1
2.04 1 0
2.04 1 0.1
2.06 1 0
2.06 1 0.1
2.08 1 0
2.08 1 0.1
2.1 1 0
2.1 1 0.1
2.12 1 0
2.12 1 0.1
2.14 1 0
2.14 1 0.1
2.16 1 0
2.16 1 0.1
2.18 1 0
2.18 1 0.1
2.2 1 0
2.2 1 0.1
2.22 1 0
2.22 1 0.1
2.24 1 0
2.24 1 0.1
2.26 1 0
2.26 1 0.1
2.28 1 0
2.28 1 0.1
2.3 1 0
2.3 1 0.1
2.32 1 0
2.32 1 0.1
2.34 1 0
2.34 1 0.1
2.36 1 0
2.36 1 0.1
2.38 1 0
2.38 1 0.1
2.4 1 0
2.4 1 0.1
2.42 1 0
2.42 1 0.1
2.44 1 0
2.44 1 0.1
2.46 1 0
2.46 1 0.1
2.48 1 0
2.48 1 0.1
2.5 1 0
2.5 1 0.1
2.5 0 0
2.5 0 0.1
2.5 0.02 0.1
2.5 0.02 0
2.5 0.04 0.1
2.5 0.04 0
2.5 0.06 0.1
2.5 0.06 0
2.5 0.08 0.1
2.5 0.08 0
2.5 0.1 0.1
2.5 0.1 0
2.5 0.12 0.1
2.5 0.12 0
2.5 0.14 0.1
2.5 0.14 0
2.5 0.16 0.1
2.5 0.16 0
2.5 0.18 0.1
2.5 0.18 0
2.5 0.2 0.1
2.5 0.2 0
2.5 0.22 0.1
2.5 0.22 0
2.5 0.24 0.1
2.5 0.24 0
2.5 0.26 0.1
2.5 0.26 0
2.5 0.28 0.1
2.5 0.28 0
2.5 0.3 0.1
2.5 0.3 0
2.5 0.32 0.1
2.5 0.32 0
2.5 0.34 0.1
2.5 0.34 0
2.5 0.36 0.1
2.5 0.36 0
2.5 0.38 0.1
2.5 0.38 0
2.5 0.4 0.1
2.5 0.4 0
2.5 0.42 0.1
2.5 0.42 0
2.5 0.44 0.1
2.5 0.44 0
2.5 0.46 0.1
2.5 0.46 0
2.5 0.48 0.1
2.5 0.48 0
2.5 0.5 0.1
2.5 0.5 0
2.5 0.52 0.1
2.5 0.52 0
2.5 0.54 0.1
2.5 0.54 0
2.5 0.56 0.1
2.5 0.56 0
2.5 0.58 0.1
2.5 0.58 0
2.5 0.6 0.1
2.5 0.6 0
2.5 0.62 0.1
2.5 0.62 0
2.5 0.64 0.1
2.5 0.64 0
2.5 0.66 0.1
2.5 0.66 0
2.5 0.68 0.1
2.5 0.68 0
2.5 0.7 0.1
2.5 0.7 0
2.5 0.72 0.1
2.5 0.72 0
2.5 0.74 0.1
2.5 0.74 0
2.5 0.76 0.1
2.5 0.76 0
2.5 0.78 0.1
2.5 0.78 0
2.5 0.8 0.1
2.5 0.8 0
2.5 0.82 0.1
2.5 0.82 0
2.5 0.84 0.1
2.5 0.84 0
2.5 0.86 0.1
2.5 0.86 0
2.5 0.88 0.1
2.5 0.88 0
2.5 0.9 0.1
2.5 0.9 0
2.5 0.92 0.1
2.5 0.92 0
2.5 0.94 0.1
2.5 0.94 0
2.5 0.96 0.1
2.5 0.96 0
2.5 0.98 0.1
2.5 0.98 0
2.52 0 0
2.52 0 0.1
2.54 0 0
2.54 0 0.1
2.56 0 0
2.56 0 0.1
2.58 0 0
2.58 0 0.1
2.6 0 0
2.6 0 0.1
2.62 0 0
2.62 0 0.1
2.64 0 0
2.64 0 0.1
2.66 0 0
2.66 0 0.1
2.68 0 0
2.68 0 0.1
2.7 0 0
2.7 0 0.1
2.72 0 0
2.72 0 0.1
2.74 0 0
2.74 0 0.1
2.76 0 0
2.76 0 0.1
2.78 0 0
2.78 0 0.1
2.8 0 0
2.8 0 0.1
2.82 0 0
2.82 0 0.1
2.84 0 0
2.84 0 0.1
2.86 0 0
2.86 0 0.1
2.88 0 0
2.88 0 0.1
2.9 0 0
2.9 0 0.1
2.92 0 0
2.92 0 0.1
2.94 0 0
2.94 0 0.1
2.96 0 0
2.96 0 0.1
2.98 0 0
2.98 0 0.1
3 0 0
3 0 0.1
3.02 0 0
3.02 0 0.1
3.04 0 0
3.04 0 0.1
3.06 0 0
3.06 0 0.1
3.08 0 0
3.08 0 0.1
3.1 0 0
3.1 0 0.1
3.12 0 0
3.12 0 0.1
3.14 0 0
3.14 0 0.1
3.16 0 0
3.16 0 0.1
3.18 0 0
3.18 0 0.1
3.2 0 0
3.2 0 0.1
3.22 0 0
3.22 0 0.1
3.24 0 0
3.24 0 0.1
3.26 0 0
3.26 0 0.1
3.28 0 0
3.28 0 0.1
3.3 0 0
3.3 0 0.1
3.32 0 0
3.32 0 0.1
3.34 0 0
3.34 0 0.1
3.36 0 0
3.36 0 0.1
3.38 0 0
3.38 0 0.1
3.4 0 0
3.4 0 0.1
3.42 0 0
3.42 0 0.1
3.44 0 0
3.44 0 0.1
3.46 0 0
3.46 0 0.1
3.48 0 0
3.48 0 0.1
3.5 0 0
3.5 0 0.1
3.52 0 0
3.52 0 0.1
3.54 0 0
3.54 0 0.1
3.56 0 0
3.56 0 0.1
3.58 0 0
3.58 0 0.1
3.6 0 0
3.6 0 0.1
3.62 0 0
3.62 0 0.1
3.64 0 0
3.64 0 0.1
3.66 0 0
3.66 0 0.1
3.68 0 0
3.68 0 0.1
3.7 0 0
3.7 0 0.1
3.72 0 0
3.72 0 0.1
3.74 0 0
3.74 0 0.1
3.76 0 0
3.76 0 0.1
3.78 0 0
3.78 0 0.1
3.8 0 0
3.8 0 0.1
3.82 0 0
3.82 0 0.1
3.84 0 0
3.84 0 0.1
3.86 0 0
3.86 0 0.1
3.88 0 0
3.88 0 0.1
3.9 0 0
3.9 0 0.1
3.92 0 0
3.92 0 0.1
3.94 0 0
3.94 0 0.1
3.96 0 0
3.96 0 0.1
3.98 0 0
3.98 0 0.1
4 0 0
4 0 0.1
4.02 0 0
4.02 0 0.1
4.04 0 0
4.04 0 0.1
4.06 0 0
4.06 0 0.1
4.08 0 0
4.08 0 0.1
4.1 0 0
4.1 0 0.1
4.12 0 0
4.12 0 0.1
4.14 0 0
4.14 0 0.1
4.16 0 0
4.16 0 0.1
4.18 0 0
4.18 0 0.1
4.2 0 0
4.2 0 0.1
4.22 0 0
4.22 0 0.1
4.24 0 0
4.24 0 0.1
4.26 0 0
4.26 0 0.1
4.28 0 0
4.28 0 0.1
4.3 0 0
4.3 0 0.1
4.32 0 0
4.32 0 0.1
4.34 0 0
4.34 0 0.1
4.36 0 0
4.36 0 0.1
4.38 0 0
4.38 0 0.1
4.4 0 0
4.4 0 0.1
4.42 0 0
4.42 0 0.1
4.44 0 0
4.44 0 0.1
4.46 0 0
4.46 0 0.1
4.48 0 0
4.48 0 0.1
4.5 0 0
4.5 0 0.1

POLYGONS 325 1625
4 0 1 2 3
4 1 4 5 2
4 4 6 7 5
4 6 8 9 7
4 8 10 11 9
4 10 12 13 11
4 12 14 15 13
4 14 16 17 15
4 16 18 19 17
4 18 20 21 19
4 20 22 23 21
4 22 24 25 23
4 24 26 27 25
4 26 28 29 27
4 28 30 31 29
4 30 32 33 31
4 32 34 35 33
4 34 36 37 35
4 36 38 39 37
4 38 40 41 39
4 40 42 43 41
4 42 44 45 43
4 44 46 47 45
4 46 48 49 47
4 48 50 51 49
4 50 52 53 51
4 52 54 55 53
4 54 56 57 55
4 56 58 59 57
4 58 60 61 59
4 60 62 63 61
4 62 64 65 63
4 64 66 67 65
4 66 68 69 67
4 68 70 71 69
4 70 72 73 71
4 72 74 75 73
4 74 76 77 75
4 76 78 79 77
4 78 80 81 79
4 80 82 83 81
4 82 84 85 83
4 84 86 87 85
4 86 88 89 87
4 88 90 91 89
4 90 92 93 91
4 92 94 95 93
4 94 96 97 95
4 96 98 99 97
4 98 100 101 99
4 100 102 103 101
4 102 104 105 103
4 104 106 107 105
4 106 108 109 107
4 108 110 111 109
4 110 112 113 111
4 112 114 115 113
4 114 116 117 115
4 116 118 119 117
4 118 120 121 119
4 120 122 123 121
4 122 124 125 123
4 124 126 127 125
4 126 128 129 127
4 128 130 131 129
4 130 132 133 131
4 132 134 135 133
4 134 136 137 135
4 136 138 139 137
4 138 140 141 139
4 140 142 143 141
4 142 144 145 143
4 144 146 147 145
4 146 148 149 147
4 148 150 151 149
4 150 152 153 151
4 152 154 155 153
4 154 156 157 155
4 156 158 159 157
4 158 160 161 159
4 160 162 163 161
4 162 164 165 163
4 164 166 167 165
4 166 168 169 167
4 168 170 171 169
4 170 172 173 171
4 172 174 175 173
4 174 176 177 175
4 176 178 179 177
4 178 180 181 179
4 180 182 183 181
4 182 184 185 183
4 184 186 187 185
4 186 188 189 187
4 188 190 191 189
4 190 192 193 191
4 192 194 195 193
4 194 196 197 195
4 196 198 199 197
4 198 200 201 199
4 200 202 203 201
4 202 204 205 203
4 204 206 207 205
4 206 208 209 207
4 208 210 211 209
4 210 212 213 211
4 212 214 215 213
4 214 216 217 215
4 216 218 219 217
4 218 220 221 219
4 220 222 223 221
4 222 224 225 223
4 224 226 227 225
4 226 228 229 227
4 228 230 231 229
4 230 232 233 231
4 232 234 235 233
4 234 236 237 235
4 236 238 239 237
4 238 240 241 239
4 240 242 243 241
4 242 244 245 243
4 244 246 247 245
4 246 248 249 247
4 248 250 251 249
4 250 252 253 251
4 252 254 255 253
4 254 256 257 255
4 256 258 259 257
4 258 260 261 259
4 260 262 263 261
4 262 264 265 263
4 264 266 267 265
4 266 268 269 267
4 268 270 271 269
4 270 272 273 271
4 272 274 275 273
4 274 276 277 275
4 276 278 279 277
4 278 280 281 279
4 280 282 283 281
4 282 284 285 283
4 284 286 287 285
4 286 288 289 287
4 288 290 291 289
4 290 292 293 291
4 292 294 295 293
4 294 296 297 295
4 296 298 299 297
4 298 300 301 299
4 300 302 303 301
4 302 304 305 303
4 304 306 307 305
4 306 308 309 307
4 308 310 311 309
4 310 312 313 311
4 312 314 315 313
4 314 316 317 315
4 316 318 319 317
4 318 320 321 319
4 320 322 323 321
4 322 324 325 323
4 324 326 327 325
4 326 328 329 327
4 328 330 331 329
4 330 332 333 331
4 332 334 335 333
4 334 336 337 335
4 336 338 339 337
4 338 340 341 339
4 340 342 343 341
4 342 344 345 343
4 344 346 347 345
4 346 348 349 347
4 348 350 351 349
4 352 353 354 355
4 355 354 356 357
4 357 356 358 359
4 359 358 360 361
4 361 360 362 363
4 363 362 364 365
4 365 364 366 367
4 367 366 368 369
4 369 368 370 371
4 371 370 372 373
4 373 372 374 375
4 375 374 376 377
4 377 376 378 379
4 379 378 380 381
4 381 380 382 383
4 383 382 384 385
4 385 384 386 387
4 387 386 388 389
4 389 388 390 391
4 391 390 392 393
4 393 392 394 395
4 395 394 396 397
4 397 396 398 399
4 399 398 400 401
4 401 400 402 403
4 403 402 404 405
4 405 404 406 407
4 407 406 408 409
4 409 408 410 411
4 411 410 412 413
4 413 412 414 415
4 415 414 416 417
4 417 416 418 419
4 419 418 420 421
4 421 420 422 423
4 423 422 424 425
4 425 424 426 427
4 427 426 428 429
4 429 428 430 431
4 431 430 432 433
4 433 432 434 435
4 435 434 436 437
4 437 436 438 439
4 439 438 440 441
4 441 440 442 443
4 443 442 444 445
4 445 444 446 447
4 447 446 448 449
4 449 448 450 451
4 451 450 351 350
4 352 452 453 353
4 452 454 455 453
4 454 456 457 455
4 456 458 459 457
4 458 460 461 459
4 460 462 463 461
4 462 464 465 463
4 464 466 467 465
4 466 468 469 467
4 468 470 471 469
4 470 472 473 471
4 472 474 475 473
4 474 476 477 475
4 476 478 479 477
4 478 480 481 479
4 480 482 483 481
4 482 484 485 483
4 484 486 487 485
4 486 488 489 487
4 488 490 491 489
4 490 492 493 491
4 492 494 495 493
4 494 496 497 495
4 496 498 499 497
4 498 500 501 499
4 500 502 503 501
4 502 504 505 503
4 504 506 507 505
4 506 508 509 507
4 508 510 511 509
4 510 512 513 511
4 512 514 515 513
4 514 516 517 515
4 516 518 519 517
4 518 520 521 519
4 520 522 523 521
4 522 524 525 523
4 524 526 527 525
4 526 528 529 527
4 528 530 531 529
4 530 532 533 531
4 532 534 535 533
4 534 536 537 535
4 536 538 539 537
4 538 540 541 539
4 540 542 543 541
4 542 544 545 543
4 544 546 547 545
4 546 548 549 547
4 548 550 551 549
4 550 552 553 551
4 552 554 555 553
4 554 556 557 555
4 556 558 559 557
4 558 560 561 559
4 560 562 563 561
4 562 564 565 563
4 564 566 567 565
4 566 568 569 567
4 568 570 571 569
4 570 572 573 571
4 572 574 575 573
4 574 576 577 575
4 576 578 579 577
4 578 580 581 579
4 580 582 583 581
4 582 584 585 583
4 584 586 587 585
4 586 588 589 587
4 588 590 591 589
4 590 592 593 591
4 592 594 595 593
4 594 596 597 595
4 596 598 599 597
4 598 600 601 599
4 600 602 603 601
4 602 604 605 603
4 604 606 607 605
4 606 608 609 607
4 608 610 611 609
4 610 612 613 611
4 612 614 615 613
4 614 616 617 615
4 616 618 619 617
4 618 620 621 619
4 620 622 623 621
4 622 624 625 623
4 624 626 627 625
4 626 628 629 627
4 628 630 631 629
4 630 632 633 631
4 632 634 635 633
4 634 636 637 635
4 636 638 639 637
4 638 640 641 639
4 640 642 643 641
4 642 644 645 643
4 644 646 647 645
4 646 648 649 647
4 648 650 651 649
POINT_DATA 652
FIELD attributes 1
U 3 652 float
2.49963 -0.0359682 -0.0098066
1.25032 -0.0179833 -0.0049033
1.25032 -0.0179833 -0.0049033
2.49963 -0.0359682 -0.0098066
0.00100149 3.55834e-08 0
0.00100149 3.55834e-08 0
0.00100168 -1.83447e-06 0
0.00100168 -1.83447e-06 0
0.00100078 -1.55693e-06 0
0.00100078 -1.55693e-06 0
0.000998561 -1.98829e-07 0
0.000998561 -1.98829e-07 0
0.000996056 1.05401e-06 0
0.000996056 1.05401e-06 0
0.000994386 1.69859e-06 0
0.000994386 1.69859e-06 0
0.000993841 1.61391e-06 0
0.000993841 1.61391e-06 0
0.000993663 1.07076e-06 0
0.000993663 1.07076e-06 0
0.000992589 6.37739e-07 0
0.000992589 6.37739e-07 0
0.000989877 6.16808e-07 0
0.000989877 6.16808e-07 0
0.000986017 6.7893e-07 0
0.000986017 6.7893e-07 0
0.000982289 3.16684e-07 0
0.000982289 3.16684e-07 0
0.000979546 -3.65949e-07 0
0.000979546 -3.65949e-07 0
0.000977509 -6.89949e-07 0
0.000977509 -6.89949e-07 0
0.000975238 -2.46595e-07 0
0.000975238 -2.46595e-07 0
0.000972177 6.07333e-07 0
0.000972177 6.07333e-07 0
0.000968672 1.21012e-06 0
0.000968672 1.21012e-06 0
0.000965464 1.42342e-06 0
0.000965464 1.42342e-06 0
0.000962803 1.79394e-06 0
0.000962803 1.79394e-06 0
0.000960182 2.80062e-06 0
0.000960182 2.80062e-06 0
0.000956888 4.11262e-06 0
0.000956888 4.11262e-06 0
0.000952748 4.79492e-06 0
0.000952748 4.79492e-06 0
0.000948259 4.28491e-06 0
0.000948259 4.28491e-06 0
0.000944016 3.10274e-06 0
0.000944016 3.10274e-06 0
0.000940071 2.49409e-06 0
0.000940071 2.49409e-06 0
0.00093587 3.29086e-06 0
0.00093587 3.29086e-06 0
0.000930785 5.10701e-06 0
0.000930785 5.10701e-06 0
0.000924726 6.63732e-06 0
0.000924726 6.63732e-06 0
0.000918253 6.75257e-06 0
0.000918253 6.75257e-06 0
0.000912101 5.4185e-06 0
0.000912101 5.4185e-06 0
0.000906577 3.6902e-06 0
0.000906577 3.6902e-06 0
0.000901296 2.86589e-06 0
0.000901296 2.86589e-06 0
0.000895383 3.57219e-06 0
0.000895383 3.57219e-06 0
0.000887981 5.4536e-06 0
0.000887981 5.4536e-06 0
0.000878717 7.54517e-06 0
0.000878717 7.54517e-06 0
0.000867859 8.93822e-06 0
0.000867859 8.93822e-06 0
0.000856108 9.25025e-06 0
0.000856108 9.25025e-06 0
0.000844209 8.66359e-06 0
0.000844209 8.66359e-06 0
0.000832664 7.64892e-06 0
0.000832664 7.64892e-06 0
0.000821647 6.64878e-06 0
0.000821647 6.64878e-06 0
0.00081108 5.90981e-06 0
0.00081108 5.90981e-06 0
0.000800779 5.48217e-06 0
0.000800779 5.48217e-06 0
0.000790561 5.30257e-06 0
0.000790561 5.30257e-06 0
0.000780296 5.27774e-06 0
0.000780296 5.27774e-06 0
0.000769907 5.33187e-06 0
0.000769907 5.33187e-06 0
0.000759362 5.41924e-06 0
0.000759362 5.41924e-06 0
0.000748645 5.51812e-06 0
0.000748645 5.51812e-06 0
0.000737752 5.6205e-06 0
0.000737752 5.6205e-06 0
0.000726679 5.72428e-06 0
0.000726679 5.72428e-06 0
0.000715424 5.82926e-06 0
0.000715424 5.82926e-06 0
0.000703984 5.93553e-06 0
0.000703984 5.93553e-06 0
0.000692355 6.04308e-06 0
0.000692355 6.04308e-06 0
0.000680534 6.1518e-06 0
0.000680534 6.1518e-06 0
0.000668517 6.2615e-06 0
0.000668517 6.2615e-06 0
0.0006563 6.37196e-06 0
0.0006563 6.37196e-06 0
0.000643882 6.48294e-06 0
0.000643882 6.48294e-06 0
0.000631257 6.59417e-06 0
0.000631257 6.59417e-06 0
0.000618425 6.70537e-06 0
0.000618425 6.70537e-06 0
0.000605383 6.81623e-06 0
0.000605383 6.81623e-06 0
0.000592128 6.92641e-06 0
0.000592128 6.92641e-06 0
0.000578661 7.0356e-06 0
0.000578661 7.0356e-06 0
0.000564979 7.14347e-06 0
0.000564979 7.14347e-06 0
0.000551083 7.24965e-06 0
0.000551083 7.24965e-06 0
0.000536975 7.35329e-06 0
0.000536975 7.35329e-06 0
0.000522656 7.45301e-06 0
0.000522656 7.45301e-06 0
0.000508128 7.54745e-06 0
0.000508128 7.54745e-06 0
0.000493395 7.63543e-06 0
0.000493395 7.63543e-06 0
0.000478461 7.71593e-06 0
0.000478461 7.71593e-06 0
0.000463331 7.78791e-06 0
0.000463331 7.78791e-06 0
0.000448014 7.85031e-06 0
0.000448014 7.85031e-06 0
0.000432518 7.902e-06 0
0.000432518 7.902e-06 0
0.000416853 7.94177e-06 0
0.000416853 7.94177e-06 0
0.000401031 7.96838e-06 0
0.000401031 7.96838e-06 0
0.000385068 7.98051e-06 0
0.000385068 7.98051e-06 0
0.000368978 7.97684e-06 0
0.000368978 7.97684e-06 0
0.00035278 7.95606e-06 0
0.00035278 7.95606e-06 0
0.000336493 7.91699e-06 0
0.000336493 7.91699e-06 0
0.000320138 7.85854e-06 0
0.000320138 7.85854e-06 0
0.000303741 7.77978e-06 0
0.000303741 7.77978e-06 0
0.000287324 7.67997e-06 0
0.000287324 7.67997e-06 0
0.000270916 7.55874e-06 0
0.000270916 7.55874e-06 0
0.000254542 7.41608e-06 0
0.000254542 7.41608e-06 0
0.000238233 7.25252e-06 0
0.000238233 7.25252e-06 0
0.000222014 7.06911e-06 0
0.000222014 7.06911e-06 0
0.000205914 6.86753e-06 0
0.000205914 6.86753e-06 0
0.000189959 6.65008e-06 0
0.000189959 6.65008e-06 0
0.000174172 6.41978e-06 0
0.000174172 6.41978e-06 0
0.000158573 6.18027e-06 0
0.000158573 6.18027e-06 0
0.00014318 5.93587e-06 0
0.00014318 5.93587e-06 0
0.000128003 5.69142e-06 0
0.000128003 5.69142e-06 0
0.000113048 5.45221e-06 0
0.000113048 5.45221e-06 0
9.83151e-05 5.22379e-06 0
9.83151e-05 5.22379e-06 0
8.37972e-05 5.01182e-06 0
8.37972e-05 5.01182e-06 0
6.94801e-05 4.82174e-06 0
6.94801e-05 4.82174e-06 0
5.53434e-05 4.65869e-06 0
5.53434e-05 4.65869e-06 0
4.13595e-05 4.52628e-06 0
4.13595e-05 4.52628e-06 0
2.74988e-05 4.42491e-06 0
2.74988e-05 4.42491e-06 0
1.3721e-05 4.36635e-06 0
1.3721e-05 4.36635e-06 0
6.84635e-06 4.35088e-06 0
6.84635e-06 4.35088e-06 0
8.74299e-06 1.38264e-05 0
8.74299e-06 1.38264e-05 0
1.06797e-05 3.49213e-05 0
1.06797e-05 3.49213e-05 0
1.04645e-05 5.6645e-05 0
1.04645e-05 5.6645e-05 0
1.00384e-05 7.68883e-05 0
1.00384e-05 7.68883e-05 0
9.79972e-06 9.68193e-05 0
9.79972e-06 9.68193e-05 0
9.72398e-06 0.000116332 0
9.72398e-06 0.000116332 0
9.73612e-06 0.000135807 0
9.73612e-06 0.000135807 0
9.78767e-06 0.000155374 0
9.78767e-06 0.000155374 0
9.85647e-06 0.000175069 0
9.85647e-06 0.000175069 0
9.93477e-06 0.00019491 0
9.93477e-06 0.00019491 0
1.00208e-05 0.000214914 0
1.00208e-05 0.000214914 0
1.0115e-05 0.000235098 0
1.0115e-05 0.000235098 0
1.02181e-05 0.000255479 0
1.02181e-05 0.000255479 0
1.0331e-05 0.000276075 0
1.0331e-05 0.000276075 0
1.04545e-05 0.000296907 0
1.04545e-05 0.000296907 0
1.05896e-05 0.000317998 0
1.05896e-05 0.000317998 0
1.07371e-05 0.00033937 0
1.07371e-05 0.00033937 0
1.08983e-05 0.00036105 0
1.08983e-05 0.00036105 0
1.10737e-05 0.000383065 0
1.10737e-05 0.000383065 0
1.12654e-05 0.000405447 0
1.12654e-05 0.000405447 0
1.14743e-05 0.000428228 0
1.14743e-05 0.000428228 0
1.17021e-05 0.000451445 0
1.17021e-05 0.000451445 0
1.19506e-05 0.000475136 0
1.19506e-05 0.000475136 0
1.22233e-05 0.000499348 0
1.22233e-05 0.000499348 0
1.25197e-05 0.000524125 0
1.25197e-05 0.000524125 0
1.28464e-05 0.000549527 0
1.28464e-05 0.000549527 0
1.32033e-05 0.000575606 0
1.32033e-05 0.000575606 0
1.35996e-05 0.00060244 0
1.35996e-05 0.00060244 0
1.40299e-05 0.00063009 0
1.40299e-05 0.00063009 0
1.45166e-05 0.000658664 0
1.45166e-05 0.000658664 0
1.50412e-05 0.000688233 0
1.50412e-05 0.000688233 0
1.56528e-05 0.000718948 0
1.56528e-05 0.000718948 0
1.62978e-05 0.000750887 0
1.62978e-05 0.000750887 0
1.70768e-05 0.00078428 0
1.70768e-05 0.00078428 0
1.78845e-05 0.0008192 0
1.78845e-05 0.0008192 0
1.89302e-05 0.000856025 0
1.89302e-05 0.000856025 0
1.99294e-05 0.000894778 0
1.99294e-05 0.000894778 0
2.14062e-05 0.000936109 0
2.14062e-05 0.000936109 0
2.26444e-05 0.00097995 0
2.26444e-05 0.00097995 0
2.48884e-05 0.00102744 0
2.48884e-05 0.00102744 0
2.64119e-05 0.00107833 0
2.64119e-05 0.00107833 0
3.01659e-05 0.00113472 0
3.01659e-05 0.00113472 0
3.19406e-05 0.00119597 0
3.19406e-05 0.00119597 0
3.9006e-05 0.00126622 0
3.9006e-05 0.00126622 0
4.11281e-05 0.00134451 0
4.11281e-05 0.00134451 0
5.68428e-05 0.00143933 0
5.68428e-05 0.00143933 0
6.16165e-05 0.00155213 0
6.16165e-05 0.00155213 0
0.000105507 0.00169953 0
0.000105507 0.00169953 0
0.00013121 0.00189698 0
0.00013121 0.00189698 0
9.607e-05 0.00116213 0
9.607e-05 0.00116213 0
-0.000390049 7.55524e-05 0
-0.000390049 7.55524e-05 0
-0.000405625 -0.000314255 0
-0.000405625 -0.000314255 0
0.000182916 -0.0004218 0
0.000182916 -0.0004218 0
0.000665551 -0.000239011 0
0.000665551 -0.000239011 0
0.000909138 3.33806e-06 0
0.000909138 3.33806e-06 0
0.000672058 7.41491e-05 0
0.000672058 7.41491e-05 0
0.000287645 0.000175328 0
0.000287645 0.000175328 0
-0.000454094 0.000403353 0
-0.000454094 0.000403353 0
-0.00133304 0.00047115 0
-0.00133304 0.00047115 0
-0.002077 0.000396167 0
-0.002077 0.000396167 0
-0.00267456 0.000305643 0
-0.00267456 0.000305643 0
-0.00311226 0.000209784 0
-0.00311226 0.000209784 0
-0.00338267 0.000117169 0
-0.00338267 0.000117169 0
-0.00349102 3.12668e-05 0
-0.00349102 3.12668e-05 0
-0.0034521 -4.3313e-05 0
-0.0034521 -4.3313e-05 0
-0.00329006 -0.000104305 0
-0.00329006 -0.000104305 0
-0.0030284 -0.000151239 0
-0.0030284 -0.000151239 0
-0.0026915 -0.0001847 0
-0.0026915 -0.0001847 0
-0.0023057 -0.000206419 0
-0.0023057 -0.000206419 0
-0.00189202 -0.000219337 0
-0.00189202 -0.000219337 0
-0.00146745 -0.000225982 0
-0.00146745 -0.000225982 0
-0.00104255 -0.00022805 0
-0.00104255 -0.00022805 0
-0.000624732 -0.000223139 0
-0.000624732 -0.000223139 0
-0.000219325 -0.000199945 0
-0.000219325 -0.000199945 0
5.20725e-05 -0.000105102 0
5.20725e-05 -0.000105102 0
-5.01804e-06 4.28957e-06 0
-5.01804e-06 4.28957e-06 0
-5.06073e-06 8.61249e-06 0
-5.06073e-06 8.61249e-06 0
-5.12837e-06 1.73306e-05 0
-5.12837e-06 1.73306e-05 0
-5.20974e-06 2.62119e-05 0
-5.20974e-06 2.62119e-05 0
-5.34282e-06 3.53305e-05 0
-5.34282e-06 3.53305e-05 0
-5.51567e-06 4.47849e-05 0
-5.51567e-06 4.47849e-05 0
-5.72884e-06 5.46619e-05 0
-5.72884e-06 5.46619e-05 0
-5.98296e-06 6.50509e-05 0
-5.98296e-06 6.50509e-05 0
-6.27922e-06 7.60438e-05 0
-6.27922e-06 7.60438e-05 0
-6.61878e-06 8.77353e-05 0
-6.61878e-06 8.77353e-05 0
-7.00245e-06 0.000100224 0
-7.00245e-06 0.000100224 0
-7.432e-06 0.000113609 0
-7.432e-06 0.000113609 0
-7.90813e-06 0.000127995 0
-7.90813e-06 0.000127995 0
-8.43167e-06 0.000143489 0
-8.43167e-06 0.000143489 0
-9.00323e-06 0.000160196 0
-9.00323e-06 0.000160196 0
-9.62226e-06 0.000178223 0
-9.62226e-06 0.000178223 0
-1.02875e-05 0.000197678 0
-1.02875e-05 0.000197678 0
-1.09962e-05 0.000218655 0
-1.09962e-05 0.000218655 0
-1.17426e-05 0.00024125 0
-1.17426e-05 0.00024125 0
-1.25197e-05 0.000265531 0
-1.25197e-05 0.000265531 0
-1.33141e-05 0.000291563 0
-1.33141e-05 0.000291563 0
-1.41142e-05 0.000319349 0
-1.41142e-05 0.000319349 0
-1.48881e-05 0.000348898 0
-1.48881e-05 0.000348898 0
-1.56247e-05 0.000380104 0
-1.56247e-05 0.000380104 0
-1.6269e-05 0.000412861 0
-1.6269e-05 0.000412861 0
-1.67742e-05 0.000446933 0
-1.67742e-05 0.000446933 0
-1.71275e-05 0.000481995 0
-1.71275e-05 0.000481995 0
-1.72285e-05 0.0005177 0
-1.72285e-05 0.0005177 0
-1.69881e-05 0.000553456 0
-1.69881e-05 0.000553456 0
-1.63905e-05 0.000588488 0
-1.63905e-05 0.000588488 0
-1.53921e-05 0.000622059 0
-1.53921e-05 0.000622059 0
-1.38343e-05 0.000653118 0
-1.38343e-05 0.000653118 0
-1.15718e-05 0.000680463 0
-1.15718e-05 0.000680463 0
-8.61864e-06 0.00070258 0
-8.61864e-06 0.00070258 0
-4.97839e-06 0.00071825 0
-4.97839e-06 0.00071825 0
-4.47914e-07 0.000725902 0
-4.47914e-07 0.000725902 0
5.15805e-06 0.000724213 0
5.15805e-06 0.000724213 0
1.18187e-05 0.000710829 0
1.18187e-05 0.000710829 0
1.95232e-05 0.000685346 0
1.95232e-05 0.000685346 0
2.78221e-05 0.000645147 0
2.78221e-05 0.000645147 0
3.653e-05 0.000591601 0
3.653e-05 0.000591601 0
4.55859e-05 0.000521488 0
4.55859e-05 0.000521488 0
5.59729e-05 0.000438844 0
5.59729e-05 0.000438844 0
6.54946e-05 0.000334689 0
6.54946e-05 0.000334689 0
7.7012e-05 0.000223609 0
7.7012e-05 0.000223609 0
8.17027e-05 8.43443e-05 0
8.17027e-05 8.43443e-05 0
5.13369e-05 -3.84349e-05 0
5.13369e-05 -3.84349e-05 0
-8.54194e-05 -0.000134817 0
-8.54194e-05 -0.000134817 0
-0.000191854 -3.27137e-05 0
-0.000191854 -3.27137e-05 0
-3.22793e-05 5.28074e-05 0
-3.22793e-05 5.28074e-05 0
-8.61636e-06 3.93275e-06 0
-8.61636e-06 3.93275e-06 0
-1.57612e-05 3.63971e-06 0
-1.57612e-05 3.63971e-06 0
-2.31601e-05 3.6788e-06 0
-2.31601e-05 3.6788e-06 0
-3.04975e-05 3.57206e-06 0
-3.04975e-05 3.57206e-06 0
-3.74548e-05 3.38271e-06 0
-3.74548e-05 3.38271e-06 0
-4.40197e-05 3.14571e-06 0
-4.40197e-05 3.14571e-06 0
-5.00191e-05 2.86768e-06 0
-5.00191e-05 2.86768e-06 0
-5.54543e-05 2.55061e-06 0
-5.54543e-05 2.55061e-06 0
-6.01871e-05 2.19567e-06 0
-6.01871e-05 2.19567e-06 0
-6.41865e-05 1.80546e-06 0
-6.41865e-05 1.80546e-06 0
-6.73602e-05 1.38179e-06 0
-6.73602e-05 1.38179e-06 0
-6.9659e-05 9.28273e-07 0
-6.9659e-05 9.28273e-07 0
-7.10201e-05 4.48615e-07 0
-7.10201e-05 4.48615e-07 0
-7.13988e-05 -5.17875e-08 0
-7.13988e-05 -5.17875e-08 0
-7.07584e-05 -5.66998e-07 0
-7.07584e-05 -5.66998e-07 0
-6.90735e-05 -1.09253e-06 0
-6.90735e-05 -1.09253e-06 0
-6.63255e-05 -1.62488e-06 0
-6.63255e-05 -1.62488e-06 0
-6.25053e-05 -2.16018e-06 0
-6.25053e-05 -2.16018e-06 0
-5.76124e-05 -2.69294e-06 0
-5.76124e-05 -2.69294e-06 0
-5.16561e-05 -3.21912e-06 0
-5.16561e-05 -3.21912e-06 0
-4.46547e-05 -3.73398e-06 0
-4.46547e-05 -3.73398e-06 0
-3.66348e-05 -4.23338e-06 0
-3.66348e-05 -4.23338e-06 0
-2.76341e-05 -4.71462e-06 0
-2.76341e-05 -4.71462e-06 0
-1.76964e-05 -5.17208e-06 0
-1.76964e-05 -5.17208e-06 0
-6.85537e-06 -5.60317e-06 0
-6.85537e-06 -5.60317e-06 0
4.84282e-06 -6.00724e-06 0
4.84282e-06 -6.00724e-06 0
1.7321e-05 -6.3811e-06 0
1.7321e-05 -6.3811e-06 0
3.05082e-05 -6.72227e-06 0
3.05082e-05 -6.72227e-06 0
4.43428e-05 -7.0301e-06 0
4.43428e-05 -7.0301e-06 0
5.87571e-05 -7.30403e-06 0
5.87571e-05 -7.30403e-06 0
7.36831e-05 -7.54395e-06 0
7.36831e-05 -7.54395e-06 0
8.90528e-05 -7.75014e-06 0
8.90528e-05 -7.75014e-06 0
0.000104799 -7.92323e-06 0
0.000104799 -7.92323e-06 0
0.000120857 -8.06419e-06 0
0.000120857 -8.06419e-06 0
0.000137163 -8.17426e-06 0
0.000137163 -8.17426e-06 0
0.000153659 -8.25489e-06 0
0.000153659 -8.25489e-06 0
0.000170286 -8.30772e-06 0
0.000170286 -8.30772e-06 0
0.000186992 -8.33449e-06 0
0.000186992 -8.33449e-06 0
0.000203728 -8.33709e-06 0
0.000203728 -8.33709e-06 0
0.000220446 -8.31744e-06 0
0.000220446 -8.31744e-06 0
0.000237104 -8.27747e-06 0
0.000237104 -8.27747e-06 0
0.000253663 -8.21909e-06 0
0.000253663 -8.21909e-06 0
0.000270087 -8.14418e-06 0
0.000270087 -8.14418e-06 0
0.000286346 -8.05457e-06 0
0.000286346 -8.05457e-06 0
0.000302412 -7.95198e-06 0
0.000302412 -7.95198e-06 0
0.00031826 -7.83806e-06 0
0.00031826 -7.83806e-06 0
0.00033387 -7.71439e-06 0
0.00033387 -7.71439e-06 0
0.000349222 -7.5824e-06 0
0.000349222 -7.5824e-06 0
0.000364303 -7.44344e-06 0
0.000364303 -7.44344e-06 0
0.000379099 -7.29876e-06 0
0.000379099 -7.29876e-06 0
0.0003936 -7.14949e-06 0
0.0003936 -7.14949e-06 0
0.000407797 -6.99667e-06 0
0.000407797 -6.99667e-06 0
0.000421685 -6.84122e-06 0
0.000421685 -6.84122e-06 0
0.00043526 -6.68399e-06 0
0.00043526 -6.68399e-06 0
0.000448518 -6.52574e-06 0
0.000448518 -6.52574e-06 0
0.000461459 -6.36712e-06 0
0.000461459 -6.36712e-06 0
0.000474081 -6.20872e-06 0
0.000474081 -6.20872e-06 0
0.000486386 -6.05106e-06 0
0.000486386 -6.05106e-06 0
0.000498376 -5.89459e-06 0
0.000498376 -5.89459e-06 0
0.000510054 -5.73969e-06 0
0.000510054 -5.73969e-06 0
0.000521424 -5.5867e-06 0
0.000521424 -5.5867e-06 0
0.000532488 -5.43591e-06 0
0.000532488 -5.43591e-06 0
0.000543253 -5.28754e-06 0
0.000543253 -5.28754e-06 0
0.000553723 -5.14179e-06 0
0.000553723 -5.14179e-06 0
0.000563903 -4.99882e-06 0
0.000563903 -4.99882e-06 0
0.0005738 -4.85876e-06 0
0.0005738 -4.85876e-06 0
0.000583418 -4.72171e-06 0
0.000583418 -4.72171e-06 0
0.000592765 -4.58773e-06 0
0.000592765 -4.58773e-06 0
0.000601846 -4.45688e-06 0
0.000601846 -4.45688e-06 0
0.000610669 -4.32919e-06 0
0.000610669 -4.32919e-06 0
0.000619238 -4.20467e-06 0
0.000619238 -4.20467e-06 0
0.00062756 -4.08332e-06 0
0.00062756 -4.08332e-06 0
0.000635643 -3.96512e-06 0
0.000635643 -3.96512e-06 0
0.000643491 -3.85005e-06 0
0.000643491 -3.85005e-06 0
0.000651112 -3.73806e-06 0
0.000651112 -3.73806e-06 0
0.000658511 -3.62913e-06 0
0.000658511 -3.62913e-06 0
0.000665695 -3.52319e-06 0
0.000665695 -3.52319e-06 0
0.000672669 -3.42019e-06 0
0.000672669 -3.42019e-06 0
0.00067944 -3.32006e-06 0
0.00067944 -3.32006e-06 0
0.000686012 -3.22276e-06 0
0.000686012 -3.22276e-06 0
0.000692392 -3.12819e-06 0
0.000692392 -3.12819e-06 0
0.000698585 -3.03631e-06 0
0.000698585 -3.03631e-06 0
0.000704596 -2.94702e-06 0
0.000704596 -2.94702e-06 0
0.00071043 -2.86028e-06 0
0.00071043 -2.86028e-06 0
0.000716094 -2.77596e-06 0
0.000716094 -2.77596e-06 0
0.000721589 -2.69408e-06 0
0.000721589 -2.69408e-06 0
0.000726925 -2.61442e-06 0
0.000726925 -2.61442e-06 0
0.000732098 -2.53713e-06 0
0.000732098 -2.53713e-06 0
0.000737128 -2.46179e-06 0
0.000737128 -2.46179e-06 0
0.000741992 -2.38883e-06 0
0.000741992 -2.38883e-06 0
0.000746737 -2.31742e-06 0
0.000746737 -2.31742e-06 0
0.000751302 -2.24864e-06 0
0.000751302 -2.24864e-06 0
0.000755792 -2.18068e-06 0
0.000755792 -2.18068e-06 0
0.000760051 -2.1161e-06 0
0.000760051 -2.1161e-06 0
0.000764331 -2.05081e-06 0
0.000764331 -2.05081e-06 0
0.00076825 -1.99086e-06 0
0.00076825 -1.99086e-06 0
0.000772406 -1.92687e-06 0
0.000772406 -1.92687e-06 0
0.000775879 -1.87295e-06 0
0.000775879 -1.87295e-06 0
0.979869 -0.00219664 0
0.979869 -0.00219664 0
1.95896 -0.00439143 0
1.95896 -0.00439143 0
