# vtk DataFile Version 2.0
sampleSurface
ASCII
DATASET POLYDATA
POINTS 652 double
0 0 0
0.02 0 0
0.02 0 0.1
0 0 0.1
0.04 0 0
0.04 0 0.1
0.06 0 0
0.06 0 0.1
0.08 0 0
0.08 0 0.1
0.1 0 0
0.1 0 0.1
0.12 0 0
0.12 0 0.1
0.14 0 0
0.14 0 0.1
0.16 0 0
0.16 0 0.1
0.18 0 0
0.18 0 0.1
0.2 0 0
0.2 0 0.1
0.22 0 0
0.22 0 0.1
0.24 0 0
0.24 0 0.1
0.26 0 0
0.26 0 0.1
0.28 0 0
0.28 0 0.1
0.3 0 0
0.3 0 0.1
0.32 0 0
0.32 0 0.1
0.34 0 0
0.34 0 0.1
0.36 0 0
0.36 0 0.1
0.38 0 0
0.38 0 0.1
0.4 0 0
0.4 0 0.1
0.42 0 0
0.42 0 0.1
0.44 0 0
0.44 0 0.1
0.46 0 0
0.46 0 0.1
0.48 0 0
0.48 0 0.1
0.5 0 0
0.5 0 0.1
0.52 0 0
0.52 0 0.1
0.54 0 0
0.54 0 0.1
0.56 0 0
0.56 0 0.1
0.58 0 0
0.58 0 0.1
0.6 0 0
0.6 0 0.1
0.62 0 0
0.62 0 0.1
0.64 0 0
0.64 0 0.1
0.66 0 0
0.66 0 0.1
0.68 0 0
0.68 0 0.1
0.7 0 0
0.7 0 0.1
0.72 0 0
0.72 0 0.1
0.74 0 0
0.74 0 0.1
0.76 0 0
0.76 0 0.1
0.78 0 0
0.78 0 0.1
0.8 0 0
0.8 0 0.1
0.82 0 0
0.82 0 0.1
0.84 0 0
0.84 0 0.1
0.86 0 0
0.86 0 0.1
0.88 0 0
0.88 0 0.1
0.9 0 0
0.9 0 0.1
0.92 0 0
0.92 0 0.1
0.94 0 0
0.94 0 0.1
0.96 0 0
0.96 0 0.1
0.98 0 0
0.98 0 0.1
1 0 0
1 0 0.1
1.02 0 0
1.02 0 0.1
1.04 0 0
1.04 0 0.1
1.06 0 0
1.06 0 0.1
1.08 0 0
1.08 0 0.1
1.1 0 0
1.1 0 0.1
1.12 0 0
1.12 0 0.1
1.14 0 0
1.14 0 0.1
1.16 0 0
1.16 0 0.1
1.18 0 0
1.18 0 0.1
1.2 0 0
1.2 0 0.1
1.22 0 0
1.22 0 0.1
1.24 0 0
1.24 0 0.1
1.26 0 0
1.26 0 0.1
1.28 0 0
1.28 0 0.1
1.3 0 0
1.3 0 0.1
1.32 0 0
1.32 0 0.1
1.34 0 0
1.34 0 0.1
1.36 0 0
1.36 0 0.1
1.38 0 0
1.38 0 0.1
1.4 0 0
1.4 0 0.1
1.42 0 0
1.42 0 0.1
1.44 0 0
1.44 0 0.1
1.46 0 0
1.46 0 0.1
1.48 0 0
1.48 0 0.1
1.5 0 0
1.5 0 0.1
1.52 0 0
1.52 0 0.1
1.54 0 0
1.54 0 0.1
1.56 0 0
1.56 0 0.1
1.58 0 0
1.58 0 0.1
1.6 0 0
1.6 0 0.1
1.62 0 0
1.62 0 0.1
1.64 0 0
1.64 0 0.1
1.66 0 0
1.66 0 0.1
1.68 0 0
1.68 0 0.1
1.7 0 0
1.7 0 0.1
1.72 0 0
1.72 0 0.1
1.74 0 0
1.74 0 0.1
1.76 0 0
1.76 0 0.1
1.78 0 0
1.78 0 0.1
1.8 0 0
1.8 0 0.1
1.82 0 0
1.82 0 0.1
1.84 0 0
1.84 0 0.1
1.86 0 0
1.86 0 0.1
1.88 0 0
1.88 0 0.1
1.9 0 0
1.9 0 0.1
1.92 0 0
1.92 0 0.1
1.94 0 0
1.94 0 0.1
1.96 0 0
1.96 0 0.1
1.98 0 0
1.98 0 0.1
2 0 0
2 0 0.1
2 0.02 0
2 0.02 0.1
2 0.04 0
2 0.04 0.1
2 0.06 0
2 0.06 0.1
2 0.08 0
2 0.08 0.1
2 0.1 0
2 0.1 0.1
2 0.12 0
2 0.12 0.1
2 0.14 0
2 0.14 0.1
2 0.16 0
2 0.16 0.1
2 0.18 0
2 0.18 0.1
2 0.2 0
2 0.2 0.1
2 0.22 0
2 0.22 0.1
2 0.24 0
2 0.24 0.1
2 0.26 0
2 0.26 0.1
2 0.28 0
2 0.28 0.1
2 0.3 0
2 0.3 0.1
2 0.32 0
2 0.32 0.1
2 0.34 0
2 0.34 0.1
2 0.36 0
2 0.36 0.1
2 0.38 0
2 0.38 0.1
2 0.4 0
2 0.4 0.1
2 0.42 0
2 0.42 0.1
2 0.44 0
2 0.44 0.1
2 0.46 0
2 0.46 0.1
2 0.48 0
2 0.48 0.1
2 0.5 0
2 0.5 0.1
2 0.52 0
2 0.52 0.1
2 0.54 0
2 0.54 0.1
2 0.56 0
2 0.56 0.1
2 0.58 0
2 0.58 0.1
2 0.6 0
2 0.6 0.1
2 0.62 0
2 0.62 0.1
2 0.64 0
2 0.64 0.1
2 0.66 0
2 0.66 0.1
2 0.68 0
2 0.68 0.1
2 0.7 0
2 0.7 0.1
2 0.72 0
2 0.72 0.1
2 0.74 0
2 0.74 0.1
2 0.76 0
2 0.76 0.1
2 0.78 0
2 0.78 0.1
2 0.8 0
2 0.8 0.1
2 0.82 0
2 0.82 0.1
2 0.84 0
2 0.84 0.1
2 0.86 0
2 0.86 0.1
2 0.88 0
2 0.88 0.1
2 0.9 0
2 0.9 0.1
2 0.92 0
2 0.92 0.1
2 0.94 0
2 0.94 0.1
2 0.96 0
2 0.96 0.1
2 0.98 0
2 0.98 0.1
2 1 0
2 1 0.1
2.02 1 0
2.02 1 0.1
2.04 1 0
2.04 1 0.1
2.06 1 0
2.06 1 0.1
2.08 1 0
2.08 1 0.1
2.1 1 0
2.1 1 0.1
2.12 1 0
2.12 1 0.1
2.14 1 0
2.14 1 0.1
2.16 1 0
2.16 1 0.1
2.18 1 0
2.18 1 0.1
2.2 1 0
2.2 1 0.1
2.22 1 0
2.22 1 0.1
2.24 1 0
2.24 1 0.1
2.26 1 0
2.26 1 0.1
2.28 1 0
2.28 1 0.1
2.3 1 0
2.3 1 0.1
2.32 1 0
2.32 1 0.1
2.34 1 0
2.34 1 0.1
2.36 1 0
2.36 1 0.1
2.38 1 0
2.38 1 0.1
2.4 1 0
2.4 1 0.1
2.42 1 0
2.42 1 0.1
2.44 1 0
2.44 1 0.1
2.46 1 0
2.46 1 0.1
2.48 1 0
2.48 1 0.1
2.5 1 0
2.5 1 0.1
2.5 0 0
2.5 0 0.1
2.5 0.02 0.1
2.5 0.02 0
2.5 0.04 0.1
2.5 0.04 0
2.5 0.06 0.1
2.5 0.06 0
2.5 0.08 0.1
2.5 0.08 0
2.5 0.1 0.1
2.5 0.1 0
2.5 0.12 0.1
2.5 0.12 0
2.5 0.14 0.1
2.5 0.14 0
2.5 0.16 0.1
2.5 0.16 0
2.5 0.18 0.1
2.5 0.18 0
2.5 0.2 0.1
2.5 0.2 0
2.5 0.22 0.1
2.5 0.22 0
2.5 0.24 0.1
2.5 0.24 0
2.5 0.26 0.1
2.5 0.26 0
2.5 0.28 0.1
2.5 0.28 0
2.5 0.3 0.1
2.5 0.3 0
2.5 0.32 0.1
2.5 0.32 0
2.5 0.34 0.1
2.5 0.34 0
2.5 0.36 0.1
2.5 0.36 0
2.5 0.38 0.1
2.5 0.38 0
2.5 0.4 0.1
2.5 0.4 0
2.5 0.42 0.1
2.5 0.42 0
2.5 0.44 0.1
2.5 0.44 0
2.5 0.46 0.1
2.5 0.46 0
2.5 0.48 0.1
2.5 0.48 0
2.5 0.5 0.1
2.5 0.5 0
2.5 0.52 0.1
2.5 0.52 0
2.5 0.54 0.1
2.5 0.54 0
2.5 0.56 0.1
2.5 0.56 0
2.5 0.58 0.1
2.5 0.58 0
2.5 0.6 0.1
2.5 0.6 0
2.5 0.62 0.1
2.5 0.62 0
2.5 0.64 0.1
2.5 0.64 0
2.5 0.66 0.1
2.5 0.66 0
2.5 0.68 0.1
2.5 0.68 0
2.5 0.7 0.1
2.5 0.7 0
2.5 0.72 0.1
2.5 0.72 0
2.5 0.74 0.1
2.5 0.74 0
2.5 0.76 0.1
2.5 0.76 0
2.5 0.78 0.1
2.5 0.78 0
2.5 0.8 0.1
2.5 0.8 0
2.5 0.82 0.1
2.5 0.82 0
2.5 0.84 0.1
2.5 0.84 0
2.5 0.86 0.1
2.5 0.86 0
2.5 0.88 0.1
2.5 0.88 0
2.5 0.9 0.1
2.5 0.9 0
2.5 0.92 0.1
2.5 0.92 0
2.5 0.94 0.1
2.5 0.94 0
2.5 0.96 0.1
2.5 0.96 0
2.5 0.98 0.1
2.5 0.98 0
2.52 0 0
2.52 0 0.1
2.54 0 0
2.54 0 0.1
2.56 0 0
2.56 0 0.1
2.58 0 0
2.58 0 0.1
2.6 0 0
2.6 0 0.1
2.62 0 0
2.62 0 0.1
2.64 0 0
2.64 0 0.1
2.66 0 0
2.66 0 0.1
2.68 0 0
2.68 0 0.1
2.7 0 0
2.7 0 0.1
2.72 0 0
2.72 0 0.1
2.74 0 0
2.74 0 0.1
2.76 0 0
2.76 0 0.1
2.78 0 0
2.78 0 0.1
2.8 0 0
2.8 0 0.1
2.82 0 0
2.82 0 0.1
2.84 0 0
2.84 0 0.1
2.86 0 0
2.86 0 0.1
2.88 0 0
2.88 0 0.1
2.9 0 0
2.9 0 0.1
2.92 0 0
2.92 0 0.1
2.94 0 0
2.94 0 0.1
2.96 0 0
2.96 0 0.1
2.98 0 0
2.98 0 0.1
3 0 0
3 0 0.1
3.02 0 0
3.02 0 0.1
3.04 0 0
3.04 0 0.1
3.06 0 0
3.06 0 0.1
3.08 0 0
3.08 0 0.1
3.1 0 0
3.1 0 0.1
3.12 0 0
3.12 0 0.1
3.14 0 0
3.14 0 0.1
3.16 0 0
3.16 0 0.1
3.18 0 0
3.18 0 0.1
3.2 0 0
3.2 0 0.1
3.22 0 0
3.22 0 0.1
3.24 0 0
3.24 0 0.1
3.26 0 0
3.26 0 0.1
3.28 0 0
3.28 0 0.1
3.3 0 0
3.3 0 0.1
3.32 0 0
3.32 0 0.1
3.34 0 0
3.34 0 0.1
3.36 0 0
3.36 0 0.1
3.38 0 0
3.38 0 0.1
3.4 0 0
3.4 0 0.1
3.42 0 0
3.42 0 0.1
3.44 0 0
3.44 0 0.1
3.46 0 0
3.46 0 0.1
3.48 0 0
3.48 0 0.1
3.5 0 0
3.5 0 0.1
3.52 0 0
3.52 0 0.1
3.54 0 0
3.54 0 0.1
3.56 0 0
3.56 0 0.1
3.58 0 0
3.58 0 0.1
3.6 0 0
3.6 0 0.1
3.62 0 0
3.62 0 0.1
3.64 0 0
3.64 0 0.1
3.66 0 0
3.66 0 0.1
3.68 0 0
3.68 0 0.1
3.7 0 0
3.7 0 0.1
3.72 0 0
3.72 0 0.1
3.74 0 0
3.74 0 0.1
3.76 0 0
3.76 0 0.1
3.78 0 0
3.78 0 0.1
3.8 0 0
3.8 0 0.1
3.82 0 0
3.82 0 0.1
3.84 0 0
3.84 0 0.1
3.86 0 0
3.86 0 0.1
3.88 0 0
3.88 0 0.1
3.9 0 0
3.9 0 0.1
3.92 0 0
3.92 0 0.1
3.94 0 0
3.94 0 0.1
3.96 0 0
3.96 0 0.1
3.98 0 0
3.98 0 0.1
4 0 0
4 0 0.1
4.02 0 0
4.02 0 0.1
4.04 0 0
4.04 0 0.1
4.06 0 0
4.06 0 0.1
4.08 0 0
4.08 0 0.1
4.1 0 0
4.1 0 0.1
4.12 0 0
4.12 0 0.1
4.14 0 0
4.14 0 0.1
4.16 0 0
4.16 0 0.1
4.18 0 0
4.18 0 0.1
4.2 0 0
4.2 0 0.1
4.22 0 0
4.22 0 0.1
4.24 0 0
4.24 0 0.1
4.26 0 0
4.26 0 0.1
4.28 0 0
4.28 0 0.1
4.3 0 0
4.3 0 0.1
4.32 0 0
4.32 0 0.1
4.34 0 0
4.34 0 0.1
4.36 0 0
4.36 0 0.1
4.38 0 0
4.38 0 0.1
4.4 0 0
4.4 0 0.1
4.42 0 0
4.42 0 0.1
4.44 0 0
4.44 0 0.1
4.46 0 0
4.46 0 0.1
4.48 0 0
4.48 0 0.1
4.5 0 0
4.5 0 0.1

POLYGONS 325 1625
4 0 1 2 3
4 1 4 5 2
4 4 6 7 5
4 6 8 9 7
4 8 10 11 9
4 10 12 13 11
4 12 14 15 13
4 14 16 17 15
4 16 18 19 17
4 18 20 21 19
4 20 22 23 21
4 22 24 25 23
4 24 26 27 25
4 26 28 29 27
4 28 30 31 29
4 30 32 33 31
4 32 34 35 33
4 34 36 37 35
4 36 38 39 37
4 38 40 41 39
4 40 42 43 41
4 42 44 45 43
4 44 46 47 45
4 46 48 49 47
4 48 50 51 49
4 50 52 53 51
4 52 54 55 53
4 54 56 57 55
4 56 58 59 57
4 58 60 61 59
4 60 62 63 61
4 62 64 65 63
4 64 66 67 65
4 66 68 69 67
4 68 70 71 69
4 70 72 73 71
4 72 74 75 73
4 74 76 77 75
4 76 78 79 77
4 78 80 81 79
4 80 82 83 81
4 82 84 85 83
4 84 86 87 85
4 86 88 89 87
4 88 90 91 89
4 90 92 93 91
4 92 94 95 93
4 94 96 97 95
4 96 98 99 97
4 98 100 101 99
4 100 102 103 101
4 102 104 105 103
4 104 106 107 105
4 106 108 109 107
4 108 110 111 109
4 110 112 113 111
4 112 114 115 113
4 114 116 117 115
4 116 118 119 117
4 118 120 121 119
4 120 122 123 121
4 122 124 125 123
4 124 126 127 125
4 126 128 129 127
4 128 130 131 129
4 130 132 133 131
4 132 134 135 133
4 134 136 137 135
4 136 138 139 137
4 138 140 141 139
4 140 142 143 141
4 142 144 145 143
4 144 146 147 145
4 146 148 149 147
4 148 150 151 149
4 150 152 153 151
4 152 154 155 153
4 154 156 157 155
4 156 158 159 157
4 158 160 161 159
4 160 162 163 161
4 162 164 165 163
4 164 166 167 165
4 166 168 169 167
4 168 170 171 169
4 170 172 173 171
4 172 174 175 173
4 174 176 177 175
4 176 178 179 177
4 178 180 181 179
4 180 182 183 181
4 182 184 185 183
4 184 186 187 185
4 186 188 189 187
4 188 190 191 189
4 190 192 193 191
4 192 194 195 193
4 194 196 197 195
4 196 198 199 197
4 198 200 201 199
4 200 202 203 201
4 202 204 205 203
4 204 206 207 205
4 206 208 209 207
4 208 210 211 209
4 210 212 213 211
4 212 214 215 213
4 214 216 217 215
4 216 218 219 217
4 218 220 221 219
4 220 222 223 221
4 222 224 225 223
4 224 226 227 225
4 226 228 229 227
4 228 230 231 229
4 230 232 233 231
4 232 234 235 233
4 234 236 237 235
4 236 238 239 237
4 238 240 241 239
4 240 242 243 241
4 242 244 245 243
4 244 246 247 245
4 246 248 249 247
4 248 250 251 249
4 250 252 253 251
4 252 254 255 253
4 254 256 257 255
4 256 258 259 257
4 258 260 261 259
4 260 262 263 261
4 262 264 265 263
4 264 266 267 265
4 266 268 269 267
4 268 270 271 269
4 270 272 273 271
4 272 274 275 273
4 274 276 277 275
4 276 278 279 277
4 278 280 281 279
4 280 282 283 281
4 282 284 285 283
4 284 286 287 285
4 286 288 289 287
4 288 290 291 289
4 290 292 293 291
4 292 294 295 293
4 294 296 297 295
4 296 298 299 297
4 298 300 301 299
4 300 302 303 301
4 302 304 305 303
4 304 306 307 305
4 306 308 309 307
4 308 310 311 309
4 310 312 313 311
4 312 314 315 313
4 314 316 317 315
4 316 318 319 317
4 318 320 321 319
4 320 322 323 321
4 322 324 325 323
4 324 326 327 325
4 326 328 329 327
4 328 330 331 329
4 330 332 333 331
4 332 334 335 333
4 334 336 337 335
4 336 338 339 337
4 338 340 341 339
4 340 342 343 341
4 342 344 345 343
4 344 346 347 345
4 346 348 349 347
4 348 350 351 349
4 352 353 354 355
4 355 354 356 357
4 357 356 358 359
4 359 358 360 361
4 361 360 362 363
4 363 362 364 365
4 365 364 366 367
4 367 366 368 369
4 369 368 370 371
4 371 370 372 373
4 373 372 374 375
4 375 374 376 377
4 377 376 378 379
4 379 378 380 381
4 381 380 382 383
4 383 382 384 385
4 385 384 386 387
4 387 386 388 389
4 389 388 390 391
4 391 390 392 393
4 393 392 394 395
4 395 394 396 397
4 397 396 398 399
4 399 398 400 401
4 401 400 402 403
4 403 402 404 405
4 405 404 406 407
4 407 406 408 409
4 409 408 410 411
4 411 410 412 413
4 413 412 414 415
4 415 414 416 417
4 417 416 418 419
4 419 418 420 421
4 421 420 422 423
4 423 422 424 425
4 425 424 426 427
4 427 426 428 429
4 429 428 430 431
4 431 430 432 433
4 433 432 434 435
4 435 434 436 437
4 437 436 438 439
4 439 438 440 441
4 441 440 442 443
4 443 442 444 445
4 445 444 446 447
4 447 446 448 449
4 449 448 450 451
4 451 450 351 350
4 352 452 453 353
4 452 454 455 453
4 454 456 457 455
4 456 458 459 457
4 458 460 461 459
4 460 462 463 461
4 462 464 465 463
4 464 466 467 465
4 466 468 469 467
4 468 470 471 469
4 470 472 473 471
4 472 474 475 473
4 474 476 477 475
4 476 478 479 477
4 478 480 481 479
4 480 482 483 481
4 482 484 485 483
4 484 486 487 485
4 486 488 489 487
4 488 490 491 489
4 490 492 493 491
4 492 494 495 493
4 494 496 497 495
4 496 498 499 497
4 498 500 501 499
4 500 502 503 501
4 502 504 505 503
4 504 506 507 505
4 506 508 509 507
4 508 510 511 509
4 510 512 513 511
4 512 514 515 513
4 514 516 517 515
4 516 518 519 517
4 518 520 521 519
4 520 522 523 521
4 522 524 525 523
4 524 526 527 525
4 526 528 529 527
4 528 530 531 529
4 530 532 533 531
4 532 534 535 533
4 534 536 537 535
4 536 538 539 537
4 538 540 541 539
4 540 542 543 541
4 542 544 545 543
4 544 546 547 545
4 546 548 549 547
4 548 550 551 549
4 550 552 553 551
4 552 554 555 553
4 554 556 557 555
4 556 558 559 557
4 558 560 561 559
4 560 562 563 561
4 562 564 565 563
4 564 566 567 565
4 566 568 569 567
4 568 570 571 569
4 570 572 573 571
4 572 574 575 573
4 574 576 577 575
4 576 578 579 577
4 578 580 581 579
4 580 582 583 581
4 582 584 585 583
4 584 586 587 585
4 586 588 589 587
4 588 590 591 589
4 590 592 593 591
4 592 594 595 593
4 594 596 597 595
4 596 598 599 597
4 598 600 601 599
4 600 602 603 601
4 602 604 605 603
4 604 606 607 605
4 606 608 609 607
4 608 610 611 609
4 610 612 613 611
4 612 614 615 613
4 614 616 617 615
4 616 618 619 617
4 618 620 621 619
4 620 622 623 621
4 622 624 625 623
4 624 626 627 625
4 626 628 629 627
4 628 630 631 629
4 630 632 633 631
4 632 634 635 633
4 634 636 637 635
4 636 638 639 637
4 638 640 641 639
4 640 642 643 641
4 642 644 645 643
4 644 646 647 645
4 646 648 649 647
4 648 650 651 649
POINT_DATA 652
FIELD attributes 1
U 3 652 float
2.58682 0.00705191 0.00779573
1.29391 0.00352818 0.00389787
1.29391 0.00352818 0.00389787
2.58682 0.00705191 0.00779573
0.00100657 2.30345e-06 0
0.00100657 2.30345e-06 0
0.00100341 1.01377e-06 0
0.00100341 1.01377e-06 0
0.00100047 2.02028e-06 0
0.00100047 2.02028e-06 0
0.00099791 1.34149e-06 0
0.00099791 1.34149e-06 0
0.000997013 -1.14919e-07 0
0.000997013 -1.14919e-07 0
0.000997337 -2.63205e-07 0
0.000997337 -2.63205e-07 0
0.000997357 1.42248e-06 0
0.000997357 1.42248e-06 0
0.000996142 3.64798e-06 0
0.000996142 3.64798e-06 0
0.000993635 4.67988e-06 0
0.000993635 4.67988e-06 0
0.000990433 3.59551e-06 0
0.000990433 3.59551e-06 0
0.000987569 8.5659e-07 0
0.000987569 8.5659e-07 0
0.000985838 -1.85608e-06 0
0.000985838 -1.85608e-06 0
0.000985077 -2.71651e-06 0
0.000985077 -2.71651e-06 0
0.000984093 -1.11867e-06 0
0.000984093 -1.11867e-06 0
0.000981492 1.87934e-06 0
0.000981492 1.87934e-06 0
0.000976743 4.41146e-06 0
0.000976743 4.41146e-06 0
0.000970539 5.13573e-06 0
0.000970539 5.13573e-06 0
0.000964195 3.98836e-06 0
0.000964195 3.98836e-06 0
0.000958824 2.0151e-06 0
0.000958824 2.0151e-06 0
0.000954938 5.79901e-07 0
0.000954938 5.79901e-07 0
0.000952421 5.47322e-07 0
0.000952421 5.47322e-07 0
0.000950609 1.89912e-06 0
0.000950609 1.89912e-06 0
0.000948486 3.79477e-06 0
0.000948486 3.79477e-06 0
0.000945122 5.03504e-06 0
0.000945122 5.03504e-06 0
0.000940227 4.82612e-06 0
0.000940227 4.82612e-06 0
0.000934378 3.37238e-06 0
0.000934378 3.37238e-06 0
0.000928569 1.77571e-06 0
0.000928569 1.77571e-06 0
0.000923385 1.24517e-06 0
0.000923385 1.24517e-06 0
0.000918558 2.18682e-06 0
0.000918558 2.18682e-06 0
0.000913294 3.9104e-06 0
0.000913294 3.9104e-06 0
0.000907035 5.24092e-06 0
0.000907035 5.24092e-06 0
0.000899887 5.48745e-06 0
0.000899887 5.48745e-06 0
0.000892362 4.87546e-06 0
0.000892362 4.87546e-06 0
0.000884809 4.10374e-06 0
0.000884809 4.10374e-06 0
0.000877222 3.56813e-06 0
0.000877222 3.56813e-06 0
0.000869513 3.09295e-06 0
0.000869513 3.09295e-06 0
0.000861812 2.40203e-06 0
0.000861812 2.40203e-06 0
0.000854339 1.70655e-06 0
0.000854339 1.70655e-06 0
0.000847049 1.65667e-06 0
0.000847049 1.65667e-06 0
0.000839532 2.66194e-06 0
0.000839532 2.66194e-06 0
0.000831374 4.35853e-06 0
0.000831374 4.35853e-06 0
0.000822596 5.86617e-06 0
0.000822596 5.86617e-06 0
0.000813598 6.60108e-06 0
0.000813598 6.60108e-06 0
0.000804636 6.78809e-06 0
0.000804636 6.78809e-06 0
0.000795382 7.12956e-06 0
0.000795382 7.12956e-06 0
0.000785137 7.99909e-06 0
0.000785137 7.99909e-06 0
0.000773522 9.02694e-06 0
0.000773522 9.02694e-06 0
0.000760957 9.51932e-06 0
0.000760957 9.51932e-06 0
0.00074837 9.2776e-06 0
0.00074837 9.2776e-06 0
0.000736323 8.94507e-06 0
0.000736323 8.94507e-06 0
0.000724358 9.4824e-06 0
0.000724358 9.4824e-06 0
0.000711138 1.12629e-05 0
0.000711138 1.12629e-05 0
0.000695341 1.36417e-05 0
0.000695341 1.36417e-05 0
0.000676602 1.54011e-05 0
0.000676602 1.54011e-05 0
0.00065579 1.56563e-05 0
0.00065579 1.56563e-05 0
0.000634442 1.4412e-05 0
0.000634442 1.4412e-05 0
0.000613932 1.23825e-05 0
0.000613932 1.23825e-05 0
0.000594965 1.04045e-05 0
0.000594965 1.04045e-05 0
0.000577564 8.98754e-06 0
0.000577564 8.98754e-06 0
0.000561336 8.22883e-06 0
0.000561336 8.22883e-06 0
0.000545762 7.97018e-06 0
0.000545762 7.97018e-06 0
0.000530391 7.99326e-06 0
0.000530391 7.99326e-06 0
0.000514927 8.13251e-06 0
0.000514927 8.13251e-06 0
0.00049921 8.29854e-06 0
0.00049921 8.29854e-06 0
0.000483178 8.45779e-06 0
0.000483178 8.45779e-06 0
0.000466815 8.60367e-06 0
0.000466815 8.60367e-06 0
0.000450129 8.73723e-06 0
0.000450129 8.73723e-06 0
0.000433132 8.85926e-06 0
0.000433132 8.85926e-06 0
0.000415839 8.96872e-06 0
0.000415839 8.96872e-06 0
0.000398267 9.06267e-06 0
0.000398267 9.06267e-06 0
0.000380435 9.13673e-06 0
0.000380435 9.13673e-06 0
0.000362366 9.18632e-06 0
0.000362366 9.18632e-06 0
0.00034409 9.20682e-06 0
0.00034409 9.20682e-06 0
0.000325641 9.1929e-06 0
0.000325641 9.1929e-06 0
0.000307061 9.13926e-06 0
0.000307061 9.13926e-06 0
0.0002884 9.04085e-06 0
0.0002884 9.04085e-06 0
0.000269712 8.89213e-06 0
0.000269712 8.89213e-06 0
0.000251064 8.68733e-06 0
0.000251064 8.68733e-06 0
0.00023253 8.4212e-06 0
0.00023253 8.4212e-06 0
0.000214192 8.08936e-06 0
0.000214192 8.08936e-06 0
0.000196139 7.68884e-06 0
0.000196139 7.68884e-06 0
0.000178466 7.21821e-06 0
0.000178466 7.21821e-06 0
0.000161274 6.67764e-06 0
0.000161274 6.67764e-06 0
0.000144664 6.06994e-06 0
0.000144664 6.06994e-06 0
0.000128737 5.40082e-06 0
0.000128737 5.40082e-06 0
0.000113586 4.67889e-06 0
0.000113586 4.67889e-06 0
9.93004e-05 3.91561e-06 0
9.93004e-05 3.91561e-06 0
8.59521e-05 3.1251e-06 0
8.59521e-05 3.1251e-06 0
7.35984e-05 2.32393e-06 0
7.35984e-05 2.32393e-06 0
6.22754e-05 1.53057e-06 0
6.22754e-05 1.53057e-06 0
5.19956e-05 7.64113e-07 0
5.19956e-05 7.64113e-07 0
4.27457e-05 4.33284e-08 0
4.27457e-05 4.33284e-08 0
3.4485e-05 -6.13832e-07 0
3.4485e-05 -6.13832e-07 0
2.7144e-05 -1.1917e-06 0
2.7144e-05 -1.1917e-06 0
2.06272e-05 -1.67763e-06 0
2.06272e-05 -1.67763e-06 0
1.4808e-05 -2.06473e-06 0
1.4808e-05 -2.06473e-06 0
9.54653e-06 -2.35602e-06 0
9.54653e-06 -2.35602e-06 0
4.67138e-06 -2.52906e-06 0
4.67138e-06 -2.52906e-06 0
2.30433e-06 -2.57936e-06 0
2.30433e-06 -2.57936e-06 0
6.25604e-06 4.73669e-06 0
6.25604e-06 4.73669e-06 0
1.15546e-05 2.51584e-05 0
1.15546e-05 2.51584e-05 0
1.2945e-05 5.11373e-05 0
1.2945e-05 5.11373e-05 0
1.26132e-05 7.68765e-05 0
1.26132e-05 7.68765e-05 0
1.18223e-05 0.000101502 0
1.18223e-05 0.000101502 0
1.10908e-05 0.000124319 0
1.10908e-05 0.000124319 0
1.05815e-05 0.000145961 0
1.05815e-05 0.000145961 0
1.02975e-05 0.000166862 0
1.02975e-05 0.000166862 0
1.01877e-05 0.000187388 0
1.01877e-05 0.000187388 0
1.01945e-05 0.000207818 0
1.01945e-05 0.000207818 0
1.02718e-05 0.000228344 0
1.02718e-05 0.000228344 0
1.03885e-05 0.000249075 0
1.03885e-05 0.000249075 0
1.05261e-05 0.000270065 0
1.05261e-05 0.000270065 0
1.06748e-05 0.000291341 0
1.06748e-05 0.000291341 0
1.08304e-05 0.000312921 0
1.08304e-05 0.000312921 0
1.09923e-05 0.000334817 0
1.09923e-05 0.000334817 0
1.11614e-05 0.000357041 0
1.11614e-05 0.000357041 0
1.13396e-05 0.000379611 0
1.13396e-05 0.000379611 0
1.15286e-05 0.000402545 0
1.15286e-05 0.000402545 0
1.17305e-05 0.000425869 0
1.17305e-05 0.000425869 0
1.19473e-05 0.000449609 0
1.19473e-05 0.000449609 0
1.21816e-05 0.000473799 0
1.21816e-05 0.000473799 0
1.24353e-05 0.000498474 0
1.24353e-05 0.000498474 0
1.27113e-05 0.000523678 0
1.27113e-05 0.000523678 0
1.30114e-05 0.000549454 0
1.30114e-05 0.000549454 0
1.334e-05 0.000575858 0
1.334e-05 0.000575858 0
1.36978e-05 0.000602943 0
1.36978e-05 0.000602943 0
1.40943e-05 0.000630783 0
1.40943e-05 0.000630783 0
1.45248e-05 0.00065944 0
1.45248e-05 0.00065944 0
1.50101e-05 0.000689018 0
1.50101e-05 0.000689018 0
1.55325e-05 0.000719586 0
1.55325e-05 0.000719586 0
1.61389e-05 0.000751294 0
1.61389e-05 0.000751294 0
1.67791e-05 0.000784219 0
1.67791e-05 0.000784219 0
1.75575e-05 0.000818585 0
1.75575e-05 0.000818585 0
1.83496e-05 0.000854466 0
1.83496e-05 0.000854466 0
1.93876e-05 0.000892224 0
1.93876e-05 0.000892224 0
2.0373e-05 0.0009319 0
2.0373e-05 0.0009319 0
2.18331e-05 0.000974114 0
2.18331e-05 0.000974114 0
2.30621e-05 0.00101881 0
2.30621e-05 0.00101881 0
2.52686e-05 0.00106713 0
2.52686e-05 0.00106713 0
2.6758e-05 0.00111871 0
2.6758e-05 0.00111871 0
3.04981e-05 0.00117585 0
3.04981e-05 0.00117585 0
3.21225e-05 0.00123755 0
3.21225e-05 0.00123755 0
3.93062e-05 0.00130839 0
3.93062e-05 0.00130839 0
4.10227e-05 0.0013867 0
4.10227e-05 0.0013867 0
5.71001e-05 0.00148179 0
5.71001e-05 0.00148179 0
6.07454e-05 0.00159383 0
6.07454e-05 0.00159383 0
0.000105731 0.00174043 0
0.000105731 0.00174043 0
0.000128511 0.00193524 0
0.000128511 0.00193524 0
8.99481e-05 0.00120057 0
8.99481e-05 0.00120057 0
-0.000385953 0.000202615 0
-0.000385953 0.000202615 0
-0.00071391 4.29898e-07 0
-0.00071391 4.29898e-07 0
-0.000766622 -9.7537e-05 0
-0.000766622 -9.7537e-05 0
-0.000683672 -0.0002055 0
-0.000683672 -0.0002055 0
-0.000254219 -0.000314906 0
-0.000254219 -0.000314906 0
0.000384075 -0.000418584 0
0.000384075 -0.000418584 0
0.00118762 -0.000377159 0
0.00118762 -0.000377159 0
0.00165812 -0.00020006 0
0.00165812 -0.00020006 0
0.00186975 -2.06309e-05 0
0.00186975 -2.06309e-05 0
0.00182132 9.97494e-05 0
0.00182132 9.97494e-05 0
0.00149483 0.000181437 0
0.00149483 0.000181437 0
0.00114198 0.00014238 0
0.00114198 0.00014238 0
0.00102446 -8.25999e-05 0
0.00102446 -8.25999e-05 0
0.000992235 -0.000129104 0
0.000992235 -0.000129104 0
0.000737736 0.000169787 0
0.000737736 0.000169787 0
0.000189084 0.000478872 0
0.000189084 0.000478872 0
-0.000459206 0.000589458 0
-0.000459206 0.000589458 0
-0.00105066 0.000590941 0
-0.00105066 0.000590941 0
-0.00153411 0.000551126 0
-0.00153411 0.000551126 0
-0.00189279 0.000487416 0
-0.00189279 0.000487416 0
-0.00214644 0.000437133 0
-0.00214644 0.000437133 0
-0.00228735 0.000459917 0
-0.00228735 0.000459917 0
-0.00232079 0.000579044 0
-0.00232079 0.000579044 0
-0.00278375 0.000761296 0
-0.00278375 0.000761296 0
-0.00180541 0.00144758 0
-0.00180541 0.00144758 0
-8.69358e-06 7.68788e-06 0
-8.69358e-06 7.68788e-06 0
-9.1903e-06 1.6574e-05 0
-9.1903e-06 1.6574e-05 0
-9.554e-06 3.47498e-05 0
-9.554e-06 3.47498e-05 0
-9.36296e-06 5.27651e-05 0
-9.36296e-06 5.27651e-05 0
-9.29789e-06 7.03261e-05 0
-9.29789e-06 7.03261e-05 0
-9.29584e-06 8.80134e-05 0
-9.29584e-06 8.80134e-05 0
-9.30563e-06 0.000105735 0
-9.30563e-06 0.000105735 0
-9.31165e-06 0.0001235 0
-9.31165e-06 0.0001235 0
-9.30902e-06 0.000141309 0
-9.30902e-06 0.000141309 0
-9.29443e-06 0.000159146 0
-9.29443e-06 0.000159146 0
-9.26369e-06 0.000176988 0
-9.26369e-06 0.000176988 0
-9.21165e-06 0.000194798 0
-9.21165e-06 0.000194798 0
-9.13263e-06 0.000212534 0
-9.13263e-06 0.000212534 0
-9.02084e-06 0.000230136 0
-9.02084e-06 0.000230136 0
-8.86915e-06 0.000247536 0
-8.86915e-06 0.000247536 0
-8.6707e-06 0.000264646 0
-8.6707e-06 0.000264646 0
-8.4185e-06 0.000281367 0
-8.4185e-06 0.000281367 0
-8.10392e-06 0.000297586 0
-8.10392e-06 0.000297586 0
-7.72058e-06 0.000313169 0
-7.72058e-06 0.000313169 0
-7.26359e-06 0.000327974 0
-7.26359e-06 0.000327974 0
-6.72682e-06 0.000341842 0
-6.72682e-06 0.000341842 0
-6.10586e-06 0.000354599 0
-6.10586e-06 0.000354599 0
-5.40016e-06 0.000366068 0
-5.40016e-06 0.000366068 0
-4.60826e-06 0.000376066 0
-4.60826e-06 0.000376066 0
-3.72755e-06 0.000384411 0
-3.72755e-06 0.000384411 0
-2.75992e-06 0.000390921 0
-2.75992e-06 0.000390921 0
-1.70647e-06 0.000395417 0
-1.70647e-06 0.000395417 0
-5.44903e-07 0.000397774 0
-5.44903e-07 0.000397774 0
7.44099e-07 0.000397803 0
7.44099e-07 0.000397803 0
2.14851e-06 0.000395349 0
2.14851e-06 0.000395349 0
3.64018e-06 0.000390235 0
3.64018e-06 0.000390235 0
5.1646e-06 0.00038261 0
5.1646e-06 0.00038261 0
6.72067e-06 0.000372128 0
6.72067e-06 0.000372128 0
8.24906e-06 0.000359571 0
8.24906e-06 0.000359571 0
9.76958e-06 0.000343514 0
9.76958e-06 0.000343514 0
1.11554e-05 0.000327272 0
1.11554e-05 0.000327272 0
1.25142e-05 0.00030582 0
1.25142e-05 0.00030582 0
1.38067e-05 0.000287576 0
1.38067e-05 0.000287576 0
1.47996e-05 0.000261237 0
1.47996e-05 0.000261237 0
1.58992e-05 0.000242698 0
1.58992e-05 0.000242698 0
1.59922e-05 0.000212468 0
1.59922e-05 0.000212468 0
1.67137e-05 0.000195942 0
1.67137e-05 0.000195942 0
1.7703e-05 0.000162286 0
1.7703e-05 0.000162286 0
2.48015e-05 0.000153221 0
2.48015e-05 0.000153221 0
-5.16501e-08 9.85882e-05 0
-5.16501e-08 9.85882e-05 0
-2.39705e-05 0.000166387 0
-2.39705e-05 0.000166387 0
-0.000151784 0.000128473 0
-0.000151784 0.000128473 0
-0.000223196 0.00040706 0
-0.000223196 0.00040706 0
-0.000398981 0.000561951 0
-0.000398981 0.000561951 0
-0.000499926 0.00113381 0
-0.000499926 0.00113381 0
-1.65254e-05 7.5889e-06 0
-1.65254e-05 7.5889e-06 0
-3.25296e-05 7.58545e-06 0
-3.25296e-05 7.58545e-06 0
-4.89547e-05 7.72914e-06 0
-4.89547e-05 7.72914e-06 0
-6.53887e-05 7.82957e-06 0
-6.53887e-05 7.82957e-06 0
-8.18649e-05 7.93982e-06 0
-8.18649e-05 7.93982e-06 0
-9.8405e-05 8.0522e-06 0
-9.8405e-05 8.0522e-06 0
-0.000114954 8.15139e-06 0
-0.000114954 8.15139e-06 0
-0.000131501 8.22481e-06 0
-0.000131501 8.22481e-06 0
-0.000147968 8.25932e-06 0
-0.000147968 8.25932e-06 0
-0.000164308 8.24317e-06 0
-0.000164308 8.24317e-06 0
-0.000180427 8.16885e-06 0
-0.000180427 8.16885e-06 0
-0.000196247 8.03488e-06 0
-0.000196247 8.03488e-06 0
-0.000211653 7.83895e-06 0
-0.000211653 7.83895e-06 0
-0.000226537 7.57523e-06 0
-0.000226537 7.57523e-06 0
-0.000240777 7.23933e-06 0
-0.000240777 7.23933e-06 0
-0.000254251 6.82895e-06 0
-0.000254251 6.82895e-06 0
-0.000266827 6.34315e-06 0
-0.000266827 6.34315e-06 0
-0.000278375 5.78134e-06 0
-0.000278375 5.78134e-06 0
-0.00028876 5.14379e-06 0
-0.00028876 5.14379e-06 0
-0.000297847 4.43246e-06 0
-0.000297847 4.43246e-06 0
-0.000305507 3.65092e-06 0
-0.000305507 3.65092e-06 0
-0.000311617 2.80463e-06 0
-0.000311617 2.80463e-06 0
-0.000316064 1.90301e-06 0
-0.000316064 1.90301e-06 0
-0.000318749 9.60429e-07 0
-0.000318749 9.60429e-07 0
-0.000319584 -3.14726e-09 0
-0.000319584 -3.14726e-09 0
-0.000318533 -9.67018e-07 0
-0.000318533 -9.67018e-07 0
-0.000315579 -1.92778e-06 0
-0.000315579 -1.92778e-06 0
-0.000310697 -2.88897e-06 0
-0.000310697 -2.88897e-06 0
-0.000303888 -3.84451e-06 0
-0.000303888 -3.84451e-06 0
-0.000295172 -4.78521e-06 0
-0.000295172 -4.78521e-06 0
-0.00028459 -5.70062e-06 0
-0.00028459 -5.70062e-06 0
-0.000272203 -6.58054e-06 0
-0.000272203 -6.58054e-06 0
-0.000258093 -7.41554e-06 0
-0.000258093 -7.41554e-06 0
-0.000242359 -8.1972e-06 0
-0.000242359 -8.1972e-06 0
-0.000225118 -8.91878e-06 0
-0.000225118 -8.91878e-06 0
-0.000206495 -9.57476e-06 0
-0.000206495 -9.57476e-06 0
-0.000186627 -1.01612e-05 0
-0.000186627 -1.01612e-05 0
-0.000165657 -1.06759e-05 0
-0.000165657 -1.06759e-05 0
-0.000143731 -1.11177e-05 0
-0.000143731 -1.11177e-05 0
-0.000120995 -1.1487e-05 0
-0.000120995 -1.1487e-05 0
-9.7592e-05 -1.17857e-05 0
-9.7592e-05 -1.17857e-05 0
-7.36621e-05 -1.20167e-05 0
-7.36621e-05 -1.20167e-05 0
-4.93387e-05 -1.21828e-05 0
-4.93387e-05 -1.21828e-05 0
-2.47431e-05 -1.2288e-05 0
-2.47431e-05 -1.2288e-05 0
6.73774e-09 -1.23376e-05 0
6.73774e-09 -1.23376e-05 0
2.47975e-05 -1.2336e-05 0
2.47975e-05 -1.2336e-05 0
4.95344e-05 -1.22882e-05 0
4.95344e-05 -1.22882e-05 0
7.41325e-05 -1.21992e-05 0
7.41325e-05 -1.21992e-05 0
9.85138e-05 -1.2074e-05 0
9.85138e-05 -1.2074e-05 0
0.000122611 -1.19176e-05 0
0.000122611 -1.19176e-05 0
0.000146366 -1.17344e-05 0
0.000146366 -1.17344e-05 0
0.00016973 -1.15287e-05 0
0.00016973 -1.15287e-05 0
0.000192662 -1.13043e-05 0
0.000192662 -1.13043e-05 0
0.000215128 -1.1065e-05 0
0.000215128 -1.1065e-05 0
0.000237102 -1.08142e-05 0
0.000237102 -1.08142e-05 0
0.000258565 -1.05548e-05 0
0.000258565 -1.05548e-05 0
0.0002795 -1.02895e-05 0
0.0002795 -1.02895e-05 0
0.0002999 -1.00204e-05 0
0.0002999 -1.00204e-05 0
0.000319759 -9.74955e-06 0
0.000319759 -9.74955e-06 0
0.000339075 -9.4788e-06 0
0.000339075 -9.4788e-06 0
0.000357849 -9.20956e-06 0
0.000357849 -9.20956e-06 0
0.000376087 -8.94302e-06 0
0.000376087 -8.94302e-06 0
0.000393794 -8.68024e-06 0
0.000393794 -8.68024e-06 0
0.000410979 -8.42215e-06 0
0.000410979 -8.42215e-06 0
0.000427651 -8.16936e-06 0
0.000427651 -8.16936e-06 0
0.000443824 -7.92234e-06 0
0.000443824 -7.92234e-06 0
0.000459507 -7.68159e-06 0
0.000459507 -7.68159e-06 0
0.000474715 -7.4475e-06 0
0.000474715 -7.4475e-06 0
0.000489461 -7.22021e-06 0
0.000489461 -7.22021e-06 0
0.000503758 -6.99993e-06 0
0.000503758 -6.99993e-06 0
0.000517621 -6.78688e-06 0
0.000517621 -6.78688e-06 0
0.000531064 -6.58098e-06 0
0.000531064 -6.58098e-06 0
0.000544102 -6.38209e-06 0
0.000544102 -6.38209e-06 0
0.000556748 -6.19022e-06 0
0.000556748 -6.19022e-06 0
0.000569017 -6.00535e-06 0
0.000569017 -6.00535e-06 0
0.000580922 -5.82741e-06 0
0.000580922 -5.82741e-06 0
0.000592477 -5.65626e-06 0
0.000592477 -5.65626e-06 0
0.000603695 -5.4918e-06 0
0.000603695 -5.4918e-06 0
0.000614591 -5.33388e-06 0
0.000614591 -5.33388e-06 0
0.000625176 -5.18235e-06 0
0.000625176 -5.18235e-06 0
0.000635464 -5.03698e-06 0
0.000635464 -5.03698e-06 0
0.000645465 -4.89761e-06 0
0.000645465 -4.89761e-06 0
0.000655194 -4.76407e-06 0
0.000655194 -4.76407e-06 0
0.000664659 -4.63627e-06 0
0.000664659 -4.63627e-06 0
0.000673876 -4.51393e-06 0
0.000673876 -4.51393e-06 0
0.000682847 -4.397e-06 0
0.000682847 -4.397e-06 0
0.000691598 -4.2852e-06 0
0.000691598 -4.2852e-06 0
0.000700115 -4.17863e-06 0
0.000700115 -4.17863e-06 0
0.000708446 -4.07675e-06 0
0.000708446 -4.07675e-06 0
0.000716542 -3.97994e-06 0
0.000716542 -3.97994e-06 0
0.000724502 -3.88735e-06 0
0.000724502 -3.88735e-06 0
0.000732198 -3.80005e-06 0
0.000732198 -3.80005e-06 0
0.000739849 -3.71607e-06 0
0.000739849 -3.71607e-06 0
0.000747141 -3.63788e-06 0
0.000747141 -3.63788e-06 0
0.000754576 -3.56135e-06 0
0.000754576 -3.56135e-06 0
0.00076141 -3.49254e-06 0
0.00076141 -3.49254e-06 0
0.000768791 -3.42225e-06 0
0.000768791 -3.42225e-06 0
0.000774991 -3.36426e-06 0
0.000774991 -3.36426e-06 0
0.986512 -0.00406024 0
0.986512 -0.00406024 0
1.97225 -0.00811712 0
1.97225 -0.00811712 0
