# vtk DataFile Version 2.0
sampleSurface
ASCII
DATASET POLYDATA
POINTS 652 double
0 0 0
0.02 0 0
0.02 0 0.1
0 0 0.1
0.04 0 0
0.04 0 0.1
0.06 0 0
0.06 0 0.1
0.08 0 0
0.08 0 0.1
0.1 0 0
0.1 0 0.1
0.12 0 0
0.12 0 0.1
0.14 0 0
0.14 0 0.1
0.16 0 0
0.16 0 0.1
0.18 0 0
0.18 0 0.1
0.2 0 0
0.2 0 0.1
0.22 0 0
0.22 0 0.1
0.24 0 0
0.24 0 0.1
0.26 0 0
0.26 0 0.1
0.28 0 0
0.28 0 0.1
0.3 0 0
0.3 0 0.1
0.32 0 0
0.32 0 0.1
0.34 0 0
0.34 0 0.1
0.36 0 0
0.36 0 0.1
0.38 0 0
0.38 0 0.1
0.4 0 0
0.4 0 0.1
0.42 0 0
0.42 0 0.1
0.44 0 0
0.44 0 0.1
0.46 0 0
0.46 0 0.1
0.48 0 0
0.48 0 0.1
0.5 0 0
0.5 0 0.1
0.52 0 0
0.52 0 0.1
0.54 0 0
0.54 0 0.1
0.56 0 0
0.56 0 0.1
0.58 0 0
0.58 0 0.1
0.6 0 0
0.6 0 0.1
0.62 0 0
0.62 0 0.1
0.64 0 0
0.64 0 0.1
0.66 0 0
0.66 0 0.1
0.68 0 0
0.68 0 0.1
0.7 0 0
0.7 0 0.1
0.72 0 0
0.72 0 0.1
0.74 0 0
0.74 0 0.1
0.76 0 0
0.76 0 0.1
0.78 0 0
0.78 0 0.1
0.8 0 0
0.8 0 0.1
0.82 0 0
0.82 0 0.1
0.84 0 0
0.84 0 0.1
0.86 0 0
0.86 0 0.1
0.88 0 0
0.88 0 0.1
0.9 0 0
0.9 0 0.1
0.92 0 0
0.92 0 0.1
0.94 0 0
0.94 0 0.1
0.96 0 0
0.96 0 0.1
0.98 0 0
0.98 0 0.1
1 0 0
1 0 0.1
1.02 0 0
1.02 0 0.1
1.04 0 0
1.04 0 0.1
1.06 0 0
1.06 0 0.1
1.08 0 0
1.08 0 0.1
1.1 0 0
1.1 0 0.1
1.12 0 0
1.12 0 0.1
1.14 0 0
1.14 0 0.1
1.16 0 0
1.16 0 0.1
1.18 0 0
1.18 0 0.1
1.2 0 0
1.2 0 0.1
1.22 0 0
1.22 0 0.1
1.24 0 0
1.24 0 0.1
1.26 0 0
1.26 0 0.1
1.28 0 0
1.28 0 0.1
1.3 0 0
1.3 0 0.1
1.32 0 0
1.32 0 0.1
1.34 0 0
1.34 0 0.1
1.36 0 0
1.36 0 0.1
1.38 0 0
1.38 0 0.1
1.4 0 0
1.4 0 0.1
1.42 0 0
1.42 0 0.1
1.44 0 0
1.44 0 0.1
1.46 0 0
1.46 0 0.1
1.48 0 0
1.48 0 0.1
1.5 0 0
1.5 0 0.1
1.52 0 0
1.52 0 0.1
1.54 0 0
1.54 0 0.1
1.56 0 0
1.56 0 0.1
1.58 0 0
1.58 0 0.1
1.6 0 0
1.6 0 0.1
1.62 0 0
1.62 0 0.1
1.64 0 0
1.64 0 0.1
1.66 0 0
1.66 0 0.1
1.68 0 0
1.68 0 0.1
1.7 0 0
1.7 0 0.1
1.72 0 0
1.72 0 0.1
1.74 0 0
1.74 0 0.1
1.76 0 0
1.76 0 0.1
1.78 0 0
1.78 0 0.1
1.8 0 0
1.8 0 0.1
1.82 0 0
1.82 0 0.1
1.84 0 0
1.84 0 0.1
1.86 0 0
1.86 0 0.1
1.88 0 0
1.88 0 0.1
1.9 0 0
1.9 0 0.1
1.92 0 0
1.92 0 0.1
1.94 0 0
1.94 0 0.1
1.96 0 0
1.96 0 0.1
1.98 0 0
1.98 0 0.1
2 0 0
2 0 0.1
2 0.02 0
2 0.02 0.1
2 0.04 0
2 0.04 0.1
2 0.06 0
2 0.06 0.1
2 0.08 0
2 0.08 0.1
2 0.1 0
2 0.1 0.1
2 0.12 0
2 0.12 0.1
2 0.14 0
2 0.14 0.1
2 0.16 0
2 0.16 0.1
2 0.18 0
2 0.18 0.1
2 0.2 0
2 0.2 0.1
2 0.22 0
2 0.22 0.1
2 0.24 0
2 0.24 0.1
2 0.26 0
2 0.26 0.1
2 0.28 0
2 0.28 0.1
2 0.3 0
2 0.3 0.1
2 0.32 0
2 0.32 0.1
2 0.34 0
2 0.34 0.1
2 0.36 0
2 0.36 0.1
2 0.38 0
2 0.38 0.1
2 0.4 0
2 0.4 0.1
2 0.42 0
2 0.42 0.1
2 0.44 0
2 0.44 0.1
2 0.46 0
2 0.46 0.1
2 0.48 0
2 0.48 0.1
2 0.5 0
2 0.5 0.1
2 0.52 0
2 0.52 0.1
2 0.54 0
2 0.54 0.1
2 0.56 0
2 0.56 0.1
2 0.58 0
2 0.58 0.1
2 0.6 0
2 0.6 0.1
2 0.62 0
2 0.62 0.1
2 0.64 0
2 0.64 0.1
2 0.66 0
2 0.66 0.1
2 0.68 0
2 0.68 0.1
2 0.7 0
2 0.7 0.1
2 0.72 0
2 0.72 0.1
2 0.74 0
2 0.74 0.1
2 0.76 0
2 0.76 0.1
2 0.78 0
2 0.78 0.1
2 0.8 0
2 0.8 0.1
2 0.82 0
2 0.82 0.1
2 0.84 0
2 0.84 0.1
2 0.86 0
2 0.86 0.1
2 0.88 0
2 0.88 0.1
2 0.9 0
2 0.9 0.1
2 0.92 0
2 0.92 0.1
2 0.94 0
2 0.94 0.1
2 0.96 0
2 0.96 0.1
2 0.98 0
2 0.98 0.1
2 1 0
2 1 0.1
2.02 1 0
2.02 1 0.1
2.04 1 0
2.04 1 0.1
2.06 1 0
2.06 1 0.1
2.08 1 0
2.08 1 0.1
2.1 1 0
2.1 1 0.1
2.12 1 0
2.12 1 0.1
2.14 1 0
2.14 1 0.1
2.16 1 0
2.16 1 0.1
2.18 1 0
2.18 1 0.1
2.2 1 0
2.2 1 0.1
2.22 1 0
2.22 1 0.1
2.24 1 0
2.24 1 0.1
2.26 1 0
2.26 1 0.1
2.28 1 0
2.28 1 0.1
2.3 1 0
2.3 1 0.1
2.32 1 0
2.32 1 0.1
2.34 1 0
2.34 1 0.1
2.36 1 0
2.36 1 0.1
2.38 1 0
2.38 1 0.1
2.4 1 0
2.4 1 0.1
2.42 1 0
2.42 1 0.1
2.44 1 0
2.44 1 0.1
2.46 1 0
2.46 1 0.1
2.48 1 0
2.48 1 0.1
2.5 1 0
2.5 1 0.1
2.5 0 0
2.5 0 0.1
2.5 0.02 0.1
2.5 0.02 0
2.5 0.04 0.1
2.5 0.04 0
2.5 0.06 0.1
2.5 0.06 0
2.5 0.08 0.1
2.5 0.08 0
2.5 0.1 0.1
2.5 0.1 0
2.5 0.12 0.1
2.5 0.12 0
2.5 0.14 0.1
2.5 0.14 0
2.5 0.16 0.1
2.5 0.16 0
2.5 0.18 0.1
2.5 0.18 0
2.5 0.2 0.1
2.5 0.2 0
2.5 0.22 0.1
2.5 0.22 0
2.5 0.24 0.1
2.5 0.24 0
2.5 0.26 0.1
2.5 0.26 0
2.5 0.28 0.1
2.5 0.28 0
2.5 0.3 0.1
2.5 0.3 0
2.5 0.32 0.1
2.5 0.32 0
2.5 0.34 0.1
2.5 0.34 0
2.5 0.36 0.1
2.5 0.36 0
2.5 0.38 0.1
2.5 0.38 0
2.5 0.4 0.1
2.5 0.4 0
2.5 0.42 0.1
2.5 0.42 0
2.5 0.44 0.1
2.5 0.44 0
2.5 0.46 0.1
2.5 0.46 0
2.5 0.48 0.1
2.5 0.48 0
2.5 0.5 0.1
2.5 0.5 0
2.5 0.52 0.1
2.5 0.52 0
2.5 0.54 0.1
2.5 0.54 0
2.5 0.56 0.1
2.5 0.56 0
2.5 0.58 0.1
2.5 0.58 0
2.5 0.6 0.1
2.5 0.6 0
2.5 0.62 0.1
2.5 0.62 0
2.5 0.64 0.1
2.5 0.64 0
2.5 0.66 0.1
2.5 0.66 0
2.5 0.68 0.1
2.5 0.68 0
2.5 0.7 0.1
2.5 0.7 0
2.5 0.72 0.1
2.5 0.72 0
2.5 0.74 0.1
2.5 0.74 0
2.5 0.76 0.1
2.5 0.76 0
2.5 0.78 0.1
2.5 0.78 0
2.5 0.8 0.1
2.5 0.8 0
2.5 0.82 0.1
2.5 0.82 0
2.5 0.84 0.1
2.5 0.84 0
2.5 0.86 0.1
2.5 0.86 0
2.5 0.88 0.1
2.5 0.88 0
2.5 0.9 0.1
2.5 0.9 0
2.5 0.92 0.1
2.5 0.92 0
2.5 0.94 0.1
2.5 0.94 0
2.5 0.96 0.1
2.5 0.96 0
2.5 0.98 0.1
2.5 0.98 0
2.52 0 0
2.52 0 0.1
2.54 0 0
2.54 0 0.1
2.56 0 0
2.56 0 0.1
2.58 0 0
2.58 0 0.1
2.6 0 0
2.6 0 0.1
2.62 0 0
2.62 0 0.1
2.64 0 0
2.64 0 0.1
2.66 0 0
2.66 0 0.1
2.68 0 0
2.68 0 0.1
2.7 0 0
2.7 0 0.1
2.72 0 0
2.72 0 0.1
2.74 0 0
2.74 0 0.1
2.76 0 0
2.76 0 0.1
2.78 0 0
2.78 0 0.1
2.8 0 0
2.8 0 0.1
2.82 0 0
2.82 0 0.1
2.84 0 0
2.84 0 0.1
2.86 0 0
2.86 0 0.1
2.88 0 0
2.88 0 0.1
2.9 0 0
2.9 0 0.1
2.92 0 0
2.92 0 0.1
2.94 0 0
2.94 0 0.1
2.96 0 0
2.96 0 0.1
2.98 0 0
2.98 0 0.1
3 0 0
3 0 0.1
3.02 0 0
3.02 0 0.1
3.04 0 0
3.04 0 0.1
3.06 0 0
3.06 0 0.1
3.08 0 0
3.08 0 0.1
3.1 0 0
3.1 0 0.1
3.12 0 0
3.12 0 0.1
3.14 0 0
3.14 0 0.1
3.16 0 0
3.16 0 0.1
3.18 0 0
3.18 0 0.1
3.2 0 0
3.2 0 0.1
3.22 0 0
3.22 0 0.1
3.24 0 0
3.24 0 0.1
3.26 0 0
3.26 0 0.1
3.28 0 0
3.28 0 0.1
3.3 0 0
3.3 0 0.1
3.32 0 0
3.32 0 0.1
3.34 0 0
3.34 0 0.1
3.36 0 0
3.36 0 0.1
3.38 0 0
3.38 0 0.1
3.4 0 0
3.4 0 0.1
3.42 0 0
3.42 0 0.1
3.44 0 0
3.44 0 0.1
3.46 0 0
3.46 0 0.1
3.48 0 0
3.48 0 0.1
3.5 0 0
3.5 0 0.1
3.52 0 0
3.52 0 0.1
3.54 0 0
3.54 0 0.1
3.56 0 0
3.56 0 0.1
3.58 0 0
3.58 0 0.1
3.6 0 0
3.6 0 0.1
3.62 0 0
3.62 0 0.1
3.64 0 0
3.64 0 0.1
3.66 0 0
3.66 0 0.1
3.68 0 0
3.68 0 0.1
3.7 0 0
3.7 0 0.1
3.72 0 0
3.72 0 0.1
3.74 0 0
3.74 0 0.1
3.76 0 0
3.76 0 0.1
3.78 0 0
3.78 0 0.1
3.8 0 0
3.8 0 0.1
3.82 0 0
3.82 0 0.1
3.84 0 0
3.84 0 0.1
3.86 0 0
3.86 0 0.1
3.88 0 0
3.88 0 0.1
3.9 0 0
3.9 0 0.1
3.92 0 0
3.92 0 0.1
3.94 0 0
3.94 0 0.1
3.96 0 0
3.96 0 0.1
3.98 0 0
3.98 0 0.1
4 0 0
4 0 0.1
4.02 0 0
4.02 0 0.1
4.04 0 0
4.04 0 0.1
4.06 0 0
4.06 0 0.1
4.08 0 0
4.08 0 0.1
4.1 0 0
4.1 0 0.1
4.12 0 0
4.12 0 0.1
4.14 0 0
4.14 0 0.1
4.16 0 0
4.16 0 0.1
4.18 0 0
4.18 0 0.1
4.2 0 0
4.2 0 0.1
4.22 0 0
4.22 0 0.1
4.24 0 0
4.24 0 0.1
4.26 0 0
4.26 0 0.1
4.28 0 0
4.28 0 0.1
4.3 0 0
4.3 0 0.1
4.32 0 0
4.32 0 0.1
4.34 0 0
4.34 0 0.1
4.36 0 0
4.36 0 0.1
4.38 0 0
4.38 0 0.1
4.4 0 0
4.4 0 0.1
4.42 0 0
4.42 0 0.1
4.44 0 0
4.44 0 0.1
4.46 0 0
4.46 0 0.1
4.48 0 0
4.48 0 0.1
4.5 0 0
4.5 0 0.1

POLYGONS 325 1625
4 0 1 2 3
4 1 4 5 2
4 4 6 7 5
4 6 8 9 7
4 8 10 11 9
4 10 12 13 11
4 12 14 15 13
4 14 16 17 15
4 16 18 19 17
4 18 20 21 19
4 20 22 23 21
4 22 24 25 23
4 24 26 27 25
4 26 28 29 27
4 28 30 31 29
4 30 32 33 31
4 32 34 35 33
4 34 36 37 35
4 36 38 39 37
4 38 40 41 39
4 40 42 43 41
4 42 44 45 43
4 44 46 47 45
4 46 48 49 47
4 48 50 51 49
4 50 52 53 51
4 52 54 55 53
4 54 56 57 55
4 56 58 59 57
4 58 60 61 59
4 60 62 63 61
4 62 64 65 63
4 64 66 67 65
4 66 68 69 67
4 68 70 71 69
4 70 72 73 71
4 72 74 75 73
4 74 76 77 75
4 76 78 79 77
4 78 80 81 79
4 80 82 83 81
4 82 84 85 83
4 84 86 87 85
4 86 88 89 87
4 88 90 91 89
4 90 92 93 91
4 92 94 95 93
4 94 96 97 95
4 96 98 99 97
4 98 100 101 99
4 100 102 103 101
4 102 104 105 103
4 104 106 107 105
4 106 108 109 107
4 108 110 111 109
4 110 112 113 111
4 112 114 115 113
4 114 116 117 115
4 116 118 119 117
4 118 120 121 119
4 120 122 123 121
4 122 124 125 123
4 124 126 127 125
4 126 128 129 127
4 128 130 131 129
4 130 132 133 131
4 132 134 135 133
4 134 136 137 135
4 136 138 139 137
4 138 140 141 139
4 140 142 143 141
4 142 144 145 143
4 144 146 147 145
4 146 148 149 147
4 148 150 151 149
4 150 152 153 151
4 152 154 155 153
4 154 156 157 155
4 156 158 159 157
4 158 160 161 159
4 160 162 163 161
4 162 164 165 163
4 164 166 167 165
4 166 168 169 167
4 168 170 171 169
4 170 172 173 171
4 172 174 175 173
4 174 176 177 175
4 176 178 179 177
4 178 180 181 179
4 180 182 183 181
4 182 184 185 183
4 184 186 187 185
4 186 188 189 187
4 188 190 191 189
4 190 192 193 191
4 192 194 195 193
4 194 196 197 195
4 196 198 199 197
4 198 200 201 199
4 200 202 203 201
4 202 204 205 203
4 204 206 207 205
4 206 208 209 207
4 208 210 211 209
4 210 212 213 211
4 212 214 215 213
4 214 216 217 215
4 216 218 219 217
4 218 220 221 219
4 220 222 223 221
4 222 224 225 223
4 224 226 227 225
4 226 228 229 227
4 228 230 231 229
4 230 232 233 231
4 232 234 235 233
4 234 236 237 235
4 236 238 239 237
4 238 240 241 239
4 240 242 243 241
4 242 244 245 243
4 244 246 247 245
4 246 248 249 247
4 248 250 251 249
4 250 252 253 251
4 252 254 255 253
4 254 256 257 255
4 256 258 259 257
4 258 260 261 259
4 260 262 263 261
4 262 264 265 263
4 264 266 267 265
4 266 268 269 267
4 268 270 271 269
4 270 272 273 271
4 272 274 275 273
4 274 276 277 275
4 276 278 279 277
4 278 280 281 279
4 280 282 283 281
4 282 284 285 283
4 284 286 287 285
4 286 288 289 287
4 288 290 291 289
4 290 292 293 291
4 292 294 295 293
4 294 296 297 295
4 296 298 299 297
4 298 300 301 299
4 300 302 303 301
4 302 304 305 303
4 304 306 307 305
4 306 308 309 307
4 308 310 311 309
4 310 312 313 311
4 312 314 315 313
4 314 316 317 315
4 316 318 319 317
4 318 320 321 319
4 320 322 323 321
4 322 324 325 323
4 324 326 327 325
4 326 328 329 327
4 328 330 331 329
4 330 332 333 331
4 332 334 335 333
4 334 336 337 335
4 336 338 339 337
4 338 340 341 339
4 340 342 343 341
4 342 344 345 343
4 344 346 347 345
4 346 348 349 347
4 348 350 351 349
4 352 353 354 355
4 355 354 356 357
4 357 356 358 359
4 359 358 360 361
4 361 360 362 363
4 363 362 364 365
4 365 364 366 367
4 367 366 368 369
4 369 368 370 371
4 371 370 372 373
4 373 372 374 375
4 375 374 376 377
4 377 376 378 379
4 379 378 380 381
4 381 380 382 383
4 383 382 384 385
4 385 384 386 387
4 387 386 388 389
4 389 388 390 391
4 391 390 392 393
4 393 392 394 395
4 395 394 396 397
4 397 396 398 399
4 399 398 400 401
4 401 400 402 403
4 403 402 404 405
4 405 404 406 407
4 407 406 408 409
4 409 408 410 411
4 411 410 412 413
4 413 412 414 415
4 415 414 416 417
4 417 416 418 419
4 419 418 420 421
4 421 420 422 423
4 423 422 424 425
4 425 424 426 427
4 427 426 428 429
4 429 428 430 431
4 431 430 432 433
4 433 432 434 435
4 435 434 436 437
4 437 436 438 439
4 439 438 440 441
4 441 440 442 443
4 443 442 444 445
4 445 444 446 447
4 447 446 448 449
4 449 448 450 451
4 451 450 351 350
4 352 452 453 353
4 452 454 455 453
4 454 456 457 455
4 456 458 459 457
4 458 460 461 459
4 460 462 463 461
4 462 464 465 463
4 464 466 467 465
4 466 468 469 467
4 468 470 471 469
4 470 472 473 471
4 472 474 475 473
4 474 476 477 475
4 476 478 479 477
4 478 480 481 479
4 480 482 483 481
4 482 484 485 483
4 484 486 487 485
4 486 488 489 487
4 488 490 491 489
4 490 492 493 491
4 492 494 495 493
4 494 496 497 495
4 496 498 499 497
4 498 500 501 499
4 500 502 503 501
4 502 504 505 503
4 504 506 507 505
4 506 508 509 507
4 508 510 511 509
4 510 512 513 511
4 512 514 515 513
4 514 516 517 515
4 516 518 519 517
4 518 520 521 519
4 520 522 523 521
4 522 524 525 523
4 524 526 527 525
4 526 528 529 527
4 528 530 531 529
4 530 532 533 531
4 532 534 535 533
4 534 536 537 535
4 536 538 539 537
4 538 540 541 539
4 540 542 543 541
4 542 544 545 543
4 544 546 547 545
4 546 548 549 547
4 548 550 551 549
4 550 552 553 551
4 552 554 555 553
4 554 556 557 555
4 556 558 559 557
4 558 560 561 559
4 560 562 563 561
4 562 564 565 563
4 564 566 567 565
4 566 568 569 567
4 568 570 571 569
4 570 572 573 571
4 572 574 575 573
4 574 576 577 575
4 576 578 579 577
4 578 580 581 579
4 580 582 583 581
4 582 584 585 583
4 584 586 587 585
4 586 588 589 587
4 588 590 591 589
4 590 592 593 591
4 592 594 595 593
4 594 596 597 595
4 596 598 599 597
4 598 600 601 599
4 600 602 603 601
4 602 604 605 603
4 604 606 607 605
4 606 608 609 607
4 608 610 611 609
4 610 612 613 611
4 612 614 615 613
4 614 616 617 615
4 616 618 619 617
4 618 620 621 619
4 620 622 623 621
4 622 624 625 623
4 624 626 627 625
4 626 628 629 627
4 628 630 631 629
4 630 632 633 631
4 632 634 635 633
4 634 636 637 635
4 636 638 639 637
4 638 640 641 639
4 640 642 643 641
4 642 644 645 643
4 644 646 647 645
4 646 648 649 647
4 648 650 651 649
POINT_DATA 652
FIELD attributes 1
U 3 652 float
2.50617 0.00919643 -0.0377317
1.25359 0.00459774 -0.0188658
1.25359 0.00459774 -0.0188658
2.50617 0.00919643 -0.0377317
0.000997895 1.9532e-07 0
0.000997895 1.9532e-07 0
0.000994944 2.20283e-06 0
0.000994944 2.20283e-06 0
0.000992415 3.52357e-06 0
0.000992415 3.52357e-06 0
0.000990713 3.44708e-06 0
0.000990713 3.44708e-06 0
0.000990391 2.0421e-06 0
0.000990391 2.0421e-06 0
0.000990888 1.16824e-06 0
0.000990888 1.16824e-06 0
0.000990639 1.91837e-06 0
0.000990639 1.91837e-06 0
0.000988844 3.06005e-06 0
0.000988844 3.06005e-06 0
0.00098625 2.90895e-06 0
0.00098625 2.90895e-06 0
0.000984102 1.55139e-06 0
0.000984102 1.55139e-06 0
0.000982847 6.50553e-07 0
0.000982847 6.50553e-07 0
0.000981789 1.50955e-06 0
0.000981789 1.50955e-06 0
0.000979865 3.64864e-06 0
0.000979865 3.64864e-06 0
0.000976681 5.25323e-06 0
0.000976681 5.25323e-06 0
0.000972798 4.87508e-06 0
0.000972798 4.87508e-06 0
0.000969144 2.69481e-06 0
0.000969144 2.69481e-06 0
0.000966274 2.89634e-07 0
0.000966274 2.89634e-07 0
0.000964015 -6.96978e-07 0
0.000964015 -6.96978e-07 0
0.000961572 2.73522e-07 0
0.000961572 2.73522e-07 0
0.000957996 2.49889e-06 0
0.000957996 2.49889e-06 0
0.000952747 4.75901e-06 0
0.000952747 4.75901e-06 0
0.000945939 6.14562e-06 0
0.000945939 6.14562e-06 0
0.000938122 6.44208e-06 0
0.000938122 6.44208e-06 0
0.000929905 5.97689e-06 0
0.000929905 5.97689e-06 0
0.000921706 5.24078e-06 0
0.000921706 5.24078e-06 0
0.000913704 4.5906e-06 0
0.000913704 4.5906e-06 0
0.000905892 4.16591e-06 0
0.000905892 4.16591e-06 0
0.000898185 3.95389e-06 0
0.000898185 3.95389e-06 0
0.000890495 3.88438e-06 0
0.000890495 3.88438e-06 0
0.000882766 3.89038e-06 0
0.000882766 3.89038e-06 0
0.000874968 3.92894e-06 0
0.000874968 3.92894e-06 0
0.000867087 3.97916e-06 0
0.000867087 3.97916e-06 0
0.000859116 4.03321e-06 0
0.000859116 4.03321e-06 0
0.000851051 4.08907e-06 0
0.000851051 4.08907e-06 0
0.000842887 4.14657e-06 0
0.000842887 4.14657e-06 0
0.000834621 4.20595e-06 0
0.000834621 4.20595e-06 0
0.000826248 4.26734e-06 0
0.000826248 4.26734e-06 0
0.000817764 4.33084e-06 0
0.000817764 4.33084e-06 0
0.000809165 4.39646e-06 0
0.000809165 4.39646e-06 0
0.000800447 4.46422e-06 0
0.000800447 4.46422e-06 0
0.000791604 4.53411e-06 0
0.000791604 4.53411e-06 0
0.000782632 4.60611e-06 0
0.000782632 4.60611e-06 0
0.000773526 4.68022e-06 0
0.000773526 4.68022e-06 0
0.000764283 4.75641e-06 0
0.000764283 4.75641e-06 0
0.000754896 4.83464e-06 0
0.000754896 4.83464e-06 0
0.000745363 4.9149e-06 0
0.000745363 4.9149e-06 0
0.000735677 4.99712e-06 0
0.000735677 4.99712e-06 0
0.000725835 5.08127e-06 0
0.000725835 5.08127e-06 0
0.000715832 5.16727e-06 0
0.000715832 5.16727e-06 0
0.000705664 5.25506e-06 0
0.000705664 5.25506e-06 0
0.000695327 5.34456e-06 0
0.000695327 5.34456e-06 0
0.000684815 5.43567e-06 0
0.000684815 5.43567e-06 0
0.000674126 5.52829e-06 0
0.000674126 5.52829e-06 0
0.000663254 5.6223e-06 0
0.000663254 5.6223e-06 0
0.000652196 5.71757e-06 0
0.000652196 5.71757e-06 0
0.000640949 5.81395e-06 0
0.000640949 5.81395e-06 0
0.00062951 5.9113e-06 0
0.00062951 5.9113e-06 0
0.000617874 6.00945e-06 0
0.000617874 6.00945e-06 0
0.000606038 6.10823e-06 0
0.000606038 6.10823e-06 0
0.000594002 6.20742e-06 0
0.000594002 6.20742e-06 0
0.000581761 6.30679e-06 0
0.000581761 6.30679e-06 0
0.000569314 6.40609e-06 0
0.000569314 6.40609e-06 0
0.000556661 6.50505e-06 0
0.000556661 6.50505e-06 0
0.000543798 6.60349e-06 0
0.000543798 6.60349e-06 0
0.000530728 6.7012e-06 0
0.000530728 6.7012e-06 0
0.000517449 6.79805e-06 0
0.000517449 6.79805e-06 0
0.000503963 6.89328e-06 0
0.000503963 6.89328e-06 0
0.000490273 6.98543e-06 0
0.000490273 6.98543e-06 0
0.000476378 7.07339e-06 0
0.000476378 7.07339e-06 0
0.000462282 7.15642e-06 0
0.000462282 7.15642e-06 0
0.000447988 7.23407e-06 0
0.000447988 7.23407e-06 0
0.000433499 7.30601e-06 0
0.000433499 7.30601e-06 0
0.000418822 7.37185e-06 0
0.000418822 7.37185e-06 0
0.000403962 7.43113e-06 0
0.000403962 7.43113e-06 0
0.000388925 7.48336e-06 0
0.000388925 7.48336e-06 0
0.00037372 7.52814e-06 0
0.00037372 7.52814e-06 0
0.000358353 7.5651e-06 0
0.000358353 7.5651e-06 0
0.000342835 7.59395e-06 0
0.000342835 7.59395e-06 0
0.000327176 7.61448e-06 0
0.000327176 7.61448e-06 0
0.000311385 7.62658e-06 0
0.000311385 7.62658e-06 0
0.000295472 7.63025e-06 0
0.000295472 7.63025e-06 0
0.000279451 7.62561e-06 0
0.000279451 7.62561e-06 0
0.000263331 7.61293e-06 0
0.000263331 7.61293e-06 0
0.000247125 7.59264e-06 0
0.000247125 7.59264e-06 0
0.000230845 7.56534e-06 0
0.000230845 7.56534e-06 0
0.0002145 7.53179e-06 0
0.0002145 7.53179e-06 0
0.000198104 7.49292e-06 0
0.000198104 7.49292e-06 0
0.000181664 7.44982e-06 0
0.000181664 7.44982e-06 0
0.000165193 7.40371e-06 0
0.000165193 7.40371e-06 0
0.000148697 7.35593e-06 0
0.000148697 7.35593e-06 0
0.000132184 7.3079e-06 0
0.000132184 7.3079e-06 0
0.000115661 7.26107e-06 0
0.000115661 7.26107e-06 0
9.9132e-05 7.21692e-06 0
9.9132e-05 7.21692e-06 0
8.26019e-05 7.17683e-06 0
8.26019e-05 7.17683e-06 0
6.6073e-05 7.14215e-06 0
6.6073e-05 7.14215e-06 0
4.95464e-05 7.11361e-06 0
4.95464e-05 7.11361e-06 0
3.30238e-05 7.09125e-06 0
3.30238e-05 7.09125e-06 0
1.65039e-05 7.07835e-06 0
1.65039e-05 7.07835e-06 0
8.24401e-06 7.07508e-06 0
8.24401e-06 7.07508e-06 0
9.1386e-06 1.65979e-05 0
9.1386e-06 1.65979e-05 0
9.86901e-06 3.64708e-05 0
9.86901e-06 3.64708e-05 0
9.58919e-06 5.61352e-05 0
9.58919e-06 5.61352e-05 0
9.44939e-06 7.49462e-05 0
9.44939e-06 7.49462e-05 0
9.43768e-06 9.39066e-05 0
9.43768e-06 9.39066e-05 0
9.47355e-06 0.000112854 0
9.47355e-06 0.000112854 0
9.525e-06 0.000131874 0
9.525e-06 0.000131874 0
9.58494e-06 0.000151012 0
9.58494e-06 0.000151012 0
9.65299e-06 0.000170279 0
9.65299e-06 0.000170279 0
9.72979e-06 0.000189691 0
9.72979e-06 0.000189691 0
9.81593e-06 0.000209265 0
9.81593e-06 0.000209265 0
9.91195e-06 0.000229021 0
9.91195e-06 0.000229021 0
1.00184e-05 0.000248978 0
1.00184e-05 0.000248978 0
1.0136e-05 0.00026916 0
1.0136e-05 0.00026916 0
1.02653e-05 0.000289588 0
1.02653e-05 0.000289588 0
1.04073e-05 0.000310287 0
1.04073e-05 0.000310287 0
1.05628e-05 0.000331282 0
1.05628e-05 0.000331282 0
1.07328e-05 0.000352603 0
1.07328e-05 0.000352603 0
1.09186e-05 0.000374279 0
1.09186e-05 0.000374279 0
1.11215e-05 0.000396342 0
1.11215e-05 0.000396342 0
1.13432e-05 0.000418829 0
1.13432e-05 0.000418829 0
1.1585e-05 0.000441779 0
1.1585e-05 0.000441779 0
1.18495e-05 0.000465233 0
1.18495e-05 0.000465233 0
1.21394e-05 0.000489241 0
1.21394e-05 0.000489241 0
1.24538e-05 0.00051385 0
1.24538e-05 0.00051385 0
1.28059e-05 0.000539127 0
1.28059e-05 0.000539127 0
1.31818e-05 0.000565123 0
1.31818e-05 0.000565123 0
1.36057e-05 0.000591928 0
1.36057e-05 0.000591928 0
1.40721e-05 0.000619605 0
1.40721e-05 0.000619605 0
1.45832e-05 0.000648265 0
1.45832e-05 0.000648265 0
1.51483e-05 0.000677999 0
1.51483e-05 0.000677999 0
1.58144e-05 0.000708963 0
1.58144e-05 0.000708963 0
1.64848e-05 0.000741215 0
1.64848e-05 0.000741215 0
1.73476e-05 0.000775074 0
1.73476e-05 0.000775074 0
1.82098e-05 0.00081054 0
1.82098e-05 0.00081054 0
1.93378e-05 0.000848101 0
1.93378e-05 0.000848101 0
2.03607e-05 0.000887635 0
2.03607e-05 0.000887635 0
2.21171e-05 0.000930133 0
2.21171e-05 0.000930133 0
2.33416e-05 0.000975177 0
2.33416e-05 0.000975177 0
2.58471e-05 0.00102446 0
2.58471e-05 0.00102446 0
2.73061e-05 0.00107688 0
2.73061e-05 0.00107688 0
3.18319e-05 0.00113608 0
3.18319e-05 0.00113608 0
3.33852e-05 0.00119955 0
3.33852e-05 0.00119955 0
4.20631e-05 0.00127464 0
4.20631e-05 0.00127464 0
4.31174e-05 0.00135648 0
4.31174e-05 0.00135648 0
6.33919e-05 0.0014597 0
6.33919e-05 0.0014597 0
6.6046e-05 0.00158032 0
6.6046e-05 0.00158032 0
0.000124046 0.00174415 0
0.000124046 0.00174415 0
0.000148904 0.00196529 0
0.000148904 0.00196529 0
0.000145243 0.00121622 0
0.000145243 0.00121622 0
-0.000222982 -7.1656e-05 0
-0.000222982 -7.1656e-05 0
-6.40233e-05 -0.000584854 0
-6.40233e-05 -0.000584854 0
0.000330543 -0.000330063 0
0.000330543 -0.000330063 0
-0.000140656 0.00024268 0
-0.000140656 0.00024268 0
-0.0009768 0.000499304 0
-0.0009768 0.000499304 0
-0.00193405 0.000484527 0
-0.00193405 0.000484527 0
-0.00268588 0.000383693 0
-0.00268588 0.000383693 0
-0.0032356 0.000253108 0
-0.0032356 0.000253108 0
-0.00352261 0.000115969 0
-0.00352261 0.000115969 0
-0.00356937 -1.18186e-05 0
-0.00356937 -1.18186e-05 0
-0.00340371 -0.000119049 0
-0.00340371 -0.000119049 0
-0.00307311 -0.000199687 0
-0.00307311 -0.000199687 0
-0.00261934 -0.00025185 0
-0.00261934 -0.00025185 0
-0.00209714 -0.000278311 0
-0.00209714 -0.000278311 0
-0.00155073 -0.000281647 0
-0.00155073 -0.000281647 0
-0.00101614 -0.000266681 0
-0.00101614 -0.000266681 0
-0.000517162 -0.000238604 0
-0.000517162 -0.000238604 0
-7.89398e-05 -0.000205665 0
-7.89398e-05 -0.000205665 0
0.000292273 -0.000174728 0
0.000292273 -0.000174728 0
0.000598316 -0.000142308 0
0.000598316 -0.000142308 0
0.000851567 -0.000118469 0
0.000851567 -0.000118469 0
0.0010571 -9.46562e-05 0
0.0010571 -9.46562e-05 0
0.00123187 -8.71568e-05 0
0.00123187 -8.71568e-05 0
0.00138137 -7.53261e-05 0
0.00138137 -7.53261e-05 0
0.000802852 -5.41063e-05 0
0.000802852 -5.41063e-05 0
9.32408e-07 -1.5362e-06 0
9.32408e-07 -1.5362e-06 0
9.19067e-07 -3.07269e-06 0
9.19067e-07 -3.07269e-06 0
8.78261e-07 -6.1051e-06 0
8.78261e-07 -6.1051e-06 0
8.08329e-07 -9.02758e-06 0
8.08329e-07 -9.02758e-06 0
7.08202e-07 -1.17824e-05 0
7.08202e-07 -1.17824e-05 0
5.77092e-07 -1.43103e-05 0
5.77092e-07 -1.43103e-05 0
4.13441e-07 -1.65489e-05 0
4.13441e-07 -1.65489e-05 0
2.15e-07 -1.84318e-05 0
2.15e-07 -1.84318e-05 0
-2.11367e-08 -1.98881e-05 0
-2.11367e-08 -1.98881e-05 0
-2.98466e-07 -2.08415e-05 0
-2.98466e-07 -2.08415e-05 0
-6.20146e-07 -2.12094e-05 0
-6.20146e-07 -2.12094e-05 0
-9.8686e-07 -2.08998e-05 0
-9.8686e-07 -2.08998e-05 0
-1.39947e-06 -1.98088e-05 0
-1.39947e-06 -1.98088e-05 0
-1.86429e-06 -1.78222e-05 0
-1.86429e-06 -1.78222e-05 0
-2.39068e-06 -1.48139e-05 0
-2.39068e-06 -1.48139e-05 0
-2.98758e-06 -1.06422e-05 0
-2.98758e-06 -1.06422e-05 0
-3.66389e-06 -5.15632e-06 0
-3.66389e-06 -5.15632e-06 0
-4.4217e-06 1.82884e-06 0
-4.4217e-06 1.82884e-06 0
-5.27449e-06 1.05387e-05 0
-5.27449e-06 1.05387e-05 0
-6.24216e-06 2.12029e-05 0
-6.24216e-06 2.12029e-05 0
-7.34682e-06 3.40873e-05 0
-7.34682e-06 3.40873e-05 0
-8.60402e-06 4.95025e-05 0
-8.60402e-06 4.95025e-05 0
-1.00252e-05 6.78013e-05 0
-1.00252e-05 6.78013e-05 0
-1.16355e-05 8.93618e-05 0
-1.16355e-05 8.93618e-05 0
-1.34608e-05 0.00011465 0
-1.34608e-05 0.00011465 0
-1.55249e-05 0.000144102 0
-1.55249e-05 0.000144102 0
-1.78472e-05 0.000178361 0
-1.78472e-05 0.000178361 0
-2.04561e-05 0.000217812 0
-2.04561e-05 0.000217812 0
-2.33321e-05 0.000263338 0
-2.33321e-05 0.000263338 0
-2.65364e-05 0.000315088 0
-2.65364e-05 0.000315088 0
-2.98239e-05 0.000374105 0
-2.98239e-05 0.000374105 0
-3.35364e-05 0.000440024 0
-3.35364e-05 0.000440024 0
-3.69352e-05 0.000513768 0
-3.69352e-05 0.000513768 0
-3.97027e-05 0.000594058 0
-3.97027e-05 0.000594058 0
-4.27043e-05 0.000679791 0
-4.27043e-05 0.000679791 0
-4.45187e-05 0.000770703 0
-4.45187e-05 0.000770703 0
-4.35223e-05 0.000863313 0
-4.35223e-05 0.000863313 0
-3.96403e-05 0.000951864 0
-3.96403e-05 0.000951864 0
-3.34178e-05 0.00103227 0
-3.34178e-05 0.00103227 0
-2.42688e-05 0.00109675 0
-2.42688e-05 0.00109675 0
-1.01613e-05 0.00113934 0
-1.01613e-05 0.00113934 0
9.22047e-06 0.00114741 0
9.22047e-06 0.00114741 0
3.45105e-05 0.00111884 0
3.45105e-05 0.00111884 0
6.34061e-05 0.00103595 0
6.34061e-05 0.00103595 0
9.23692e-05 0.0009088 0
9.23692e-05 0.0009088 0
0.00011122 0.000719617 0
0.00011122 0.000719617 0
0.000131389 0.000529305 0
0.000131389 0.000529305 0
9.55122e-05 0.000266019 0
9.55122e-05 0.000266019 0
-4.50174e-06 0.00012263 0
-4.50174e-06 0.00012263 0
5.36014e-05 6.13742e-05 0
5.36014e-05 6.13742e-05 0
3.09565e-06 -1.92761e-06 0
3.09565e-06 -1.92761e-06 0
7.69775e-06 -2.23999e-06 0
7.69775e-06 -2.23999e-06 0
1.21126e-05 -2.15738e-06 0
1.21126e-05 -2.15738e-06 0
1.63622e-05 -2.20041e-06 0
1.63622e-05 -2.20041e-06 0
2.09407e-05 -2.31375e-06 0
2.09407e-05 -2.31375e-06 0
2.57116e-05 -2.45858e-06 0
2.57116e-05 -2.45858e-06 0
3.08103e-05 -2.62466e-06 0
3.08103e-05 -2.62466e-06 0
3.62608e-05 -2.80945e-06 0
3.62608e-05 -2.80945e-06 0
4.20992e-05 -3.01062e-06 0
4.20992e-05 -3.01062e-06 0
4.83563e-05 -3.22551e-06 0
4.83563e-05 -3.22551e-06 0
5.50565e-05 -3.45131e-06 0
5.50565e-05 -3.45131e-06 0
6.22187e-05 -3.68509e-06 0
6.22187e-05 -3.68509e-06 0
6.98557e-05 -3.92392e-06 0
6.98557e-05 -3.92392e-06 0
7.79747e-05 -4.16491e-06 0
7.79747e-05 -4.16491e-06 0
8.65767e-05 -4.40523e-06 0
8.65767e-05 -4.40523e-06 0
9.56576e-05 -4.64219e-06 0
9.56576e-05 -4.64219e-06 0
0.000105208 -4.87326e-06 0
0.000105208 -4.87326e-06 0
0.000115213 -5.09616e-06 0
0.000115213 -5.09616e-06 0
0.000125656 -5.30884e-06 0
0.000125656 -5.30884e-06 0
0.000136512 -5.50946e-06 0
0.000136512 -5.50946e-06 0
0.000147756 -5.69649e-06 0
0.000147756 -5.69649e-06 0
0.00015936 -5.86863e-06 0
0.00015936 -5.86863e-06 0
0.000171293 -6.02487e-06 0
0.000171293 -6.02487e-06 0
0.000183521 -6.16447e-06 0
0.000183521 -6.16447e-06 0
0.000196012 -6.28693e-06 0
0.000196012 -6.28693e-06 0
0.00020873 -6.392e-06 0
0.00020873 -6.392e-06 0
0.00022164 -6.47964e-06 0
0.00022164 -6.47964e-06 0
0.000234709 -6.55002e-06 0
0.000234709 -6.55002e-06 0
0.000247901 -6.60349e-06 0
0.000247901 -6.60349e-06 0
0.000261183 -6.64053e-06 0
0.000261183 -6.64053e-06 0
0.000274523 -6.66178e-06 0
0.000274523 -6.66178e-06 0
0.00028789 -6.66795e-06 0
0.00028789 -6.66795e-06 0
0.000301255 -6.65986e-06 0
0.000301255 -6.65986e-06 0
0.000314589 -6.6384e-06 0
0.000314589 -6.6384e-06 0
0.000327869 -6.60446e-06 0
0.000327869 -6.60446e-06 0
0.000341068 -6.559e-06 0
0.000341068 -6.559e-06 0
0.000354165 -6.50297e-06 0
0.000354165 -6.50297e-06 0
0.00036714 -6.43732e-06 0
0.00036714 -6.43732e-06 0
0.000379974 -6.36299e-06 0
0.000379974 -6.36299e-06 0
0.000392651 -6.28088e-06 0
0.000392651 -6.28088e-06 0
0.000405156 -6.19187e-06 0
0.000405156 -6.19187e-06 0
0.000417476 -6.0968e-06 0
0.000417476 -6.0968e-06 0
0.0004296 -5.99647e-06 0
0.0004296 -5.99647e-06 0
0.000441518 -5.89162e-06 0
0.000441518 -5.89162e-06 0
0.000453222 -5.78297e-06 0
0.000453222 -5.78297e-06 0
0.000464705 -5.67116e-06 0
0.000464705 -5.67116e-06 0
0.000475961 -5.5568e-06 0
0.000475961 -5.5568e-06 0
0.000486985 -5.44045e-06 0
0.000486985 -5.44045e-06 0
0.000497774 -5.32262e-06 0
0.000497774 -5.32262e-06 0
0.000508326 -5.20377e-06 0
0.000508326 -5.20377e-06 0
0.000518639 -5.08432e-06 0
0.000518639 -5.08432e-06 0
0.000528713 -4.96465e-06 0
0.000528713 -4.96465e-06 0
0.000538546 -4.8451e-06 0
0.000538546 -4.8451e-06 0
0.00054814 -4.72596e-06 0
0.00054814 -4.72596e-06 0
0.000557496 -4.60752e-06 0
0.000557496 -4.60752e-06 0
0.000566615 -4.49e-06 0
0.000566615 -4.49e-06 0
0.000575499 -4.37361e-06 0
0.000575499 -4.37361e-06 0
0.000584152 -4.25852e-06 0
0.000584152 -4.25852e-06 0
0.000592575 -4.1449e-06 0
0.000592575 -4.1449e-06 0
0.000600773 -4.03286e-06 0
0.000600773 -4.03286e-06 0
0.000608747 -3.92252e-06 0
0.000608747 -3.92252e-06 0
0.000616502 -3.81397e-06 0
0.000616502 -3.81397e-06 0
0.000624041 -3.70728e-06 0
0.000624041 -3.70728e-06 0
0.000631368 -3.6025e-06 0
0.000631368 -3.6025e-06 0
0.000638487 -3.49969e-06 0
0.000638487 -3.49969e-06 0
0.000645402 -3.39887e-06 0
0.000645402 -3.39887e-06 0
0.000652117 -3.30005e-06 0
0.000652117 -3.30005e-06 0
0.000658636 -3.20326e-06 0
0.000658636 -3.20326e-06 0
0.000664963 -3.10848e-06 0
0.000664963 -3.10848e-06 0
0.000671102 -3.01572e-06 0
0.000671102 -3.01572e-06 0
0.000677057 -2.92496e-06 0
0.000677057 -2.92496e-06 0
0.000682833 -2.83617e-06 0
0.000682833 -2.83617e-06 0
0.000688432 -2.74934e-06 0
0.000688432 -2.74934e-06 0
0.000693859 -2.66443e-06 0
0.000693859 -2.66443e-06 0
0.000699118 -2.58141e-06 0
0.000699118 -2.58141e-06 0
0.000704212 -2.50025e-06 0
0.000704212 -2.50025e-06 0
0.000709146 -2.42089e-06 0
0.000709146 -2.42089e-06 0
0.000713922 -2.34331e-06 0
0.000713922 -2.34331e-06 0
0.000718544 -2.26744e-06 0
0.000718544 -2.26744e-06 0
0.000723016 -2.19326e-06 0
0.000723016 -2.19326e-06 0
0.000727341 -2.12071e-06 0
0.000727341 -2.12071e-06 0
0.000731522 -2.04975e-06 0
0.000731522 -2.04975e-06 0
0.000735563 -1.9803e-06 0
0.000735563 -1.9803e-06 0
0.000739465 -1.91235e-06 0
0.000739465 -1.91235e-06 0
0.000743234 -1.84581e-06 0
0.000743234 -1.84581e-06 0
0.000746869 -1.78069e-06 0
0.000746869 -1.78069e-06 0
0.000750377 -1.71683e-06 0
0.000750377 -1.71683e-06 0
0.000753756 -1.65435e-06 0
0.000753756 -1.65435e-06 0
0.000757015 -1.59292e-06 0
0.000757015 -1.59292e-06 0
0.000760144 -1.53293e-06 0
0.000760144 -1.53293e-06 0
0.000763167 -1.47366e-06 0
0.000763167 -1.47366e-06 0
0.000766053 -1.41606e-06 0
0.000766053 -1.41606e-06 0
0.000768854 -1.35853e-06 0
0.000768854 -1.35853e-06 0
0.000771493 -1.30344e-06 0
0.000771493 -1.30344e-06 0
0.0007741 -1.24701e-06 0
0.0007741 -1.24701e-06 0
0.000776471 -1.19482e-06 0
0.000776471 -1.19482e-06 0
0.000778931 -1.13833e-06 0
0.000778931 -1.13833e-06 0
0.000780972 -1.09044e-06 0
0.000780972 -1.09044e-06 0
0.982209 -0.00123141 0
0.982209 -0.00123141 0
1.96364 -0.00246175 0
1.96364 -0.00246175 0
