/*--------------------------------*- C++ -*----------------------------------*\
| =========                 |                                                 |
| \\      /  F ield         | OpenFOAM: The Open Source CFD Toolbox           |
|  \\    /   O peration     | Version:  4.1                                   |
|   \\  /    A nd           | Web:      www.OpenFOAM.org                      |
|    \\/     M anipulation  |                                                 |
\*---------------------------------------------------------------------------*/
FoamFile
{
    version     2.0;
    format      ascii;
    class       volVectorField;
    location    "99";
    object      U;
}
// * * * * * * * * * * * * * * * * * * * * * * * * * * * * * * * * * * * * * //

dimensions      [0 1 -1 0 0 0 0];

internalField   nonuniform List<vector> 
43750
(
(0.00959494 0.000329545 0)
(0.00900782 0.000647239 0)
(0.00825152 0.000687138 0)
(0.00733145 0.000612951 0)
(0.00643795 0.00050571 0)
(0.0056643 0.000390367 0)
(0.00500622 0.000280857 0)
(0.00444442 0.000188198 0)
(0.00397184 0.000117059 0)
(0.00358254 6.63538e-05 0)
(0.00326515 3.24398e-05 0)
(0.00300635 1.12463e-05 0)
(0.00279428 -9.02938e-07 0)
(0.00261916 -6.97861e-06 0)
(0.00247277 -9.17954e-06 0)
(0.00234837 -9.04453e-06 0)
(0.00224062 -7.62113e-06 0)
(0.00214543 -5.59758e-06 0)
(0.00205974 -3.40271e-06 0)
(0.0019813 -1.28782e-06 0)
(0.0019085 6.12423e-07 0)
(0.00184021 2.23787e-06 0)
(0.00177565 3.57381e-06 0)
(0.00171431 4.63063e-06 0)
(0.00165587 5.42996e-06 0)
(0.00160011 5.99631e-06 0)
(0.00154693 6.35317e-06 0)
(0.00149626 6.52256e-06 0)
(0.00144803 6.52651e-06 0)
(0.0014022 6.38953e-06 0)
(0.00135867 6.14044e-06 0)
(0.00131729 5.8133e-06 0)
(0.00127786 5.44662e-06 0)
(0.00124012 5.08067e-06 0)
(0.00120378 4.75297e-06 0)
(0.00116856 4.49314e-06 0)
(0.00113417 4.31808e-06 0)
(0.0011004 4.22905e-06 0)
(0.00106708 4.21166e-06 0)
(0.00103413 4.23933e-06 0)
(0.00100153 4.27942e-06 0)
(0.000969301 4.30056e-06 0)
(0.000937509 4.27894e-06 0)
(0.000906229 4.20202e-06 0)
(0.000875525 4.06912e-06 0)
(0.000845438 3.8893e-06 0)
(0.000815977 3.67793e-06 0)
(0.000787115 3.45295e-06 0)
(0.000758791 3.2316e-06 0)
(0.000730914 3.02819e-06 0)
(0.000703378 2.85263e-06 0)
(0.000676071 2.70992e-06 0)
(0.000648884 2.60012e-06 0)
(0.000621729 2.51905e-06 0)
(0.000594539 2.45941e-06 0)
(0.000567277 2.41239e-06 0)
(0.000539933 2.36926e-06 0)
(0.00051252 2.32258e-06 0)
(0.000485068 2.26681e-06 0)
(0.00045762 2.1984e-06 0)
(0.000430227 2.11537e-06 0)
(0.000402941 2.01684e-06 0)
(0.00037582 1.90255e-06 0)
(0.000348921 1.77253e-06 0)
(0.000322305 1.62692e-06 0)
(0.00029603 1.46586e-06 0)
(0.00027016 1.28947e-06 0)
(0.000244756 1.09784e-06 0)
(0.000219883 8.91026e-07 0)
(0.000195605 6.69086e-07 0)
(0.00017199 4.32052e-07 0)
(0.000149103 1.79956e-07 0)
(0.000127012 -8.71626e-08 0)
(0.000105787 -3.69252e-07 0)
(8.54941e-05 -6.66237e-07 0)
(6.62022e-05 -9.78025e-07 0)
(4.79781e-05 -1.30452e-06 0)
(3.08878e-05 -1.64572e-06 0)
(1.49951e-05 -2.00216e-06 0)
(3.43229e-07 -2.3754e-06 0)
(-1.30006e-05 -2.75017e-06 0)
(-2.49509e-05 -3.13223e-06 0)
(-3.54896e-05 -3.53577e-06 0)
(-4.45883e-05 -3.94352e-06 0)
(-5.22035e-05 -4.36159e-06 0)
(-5.83257e-05 -4.78445e-06 0)
(-6.294e-05 -5.20654e-06 0)
(-6.60532e-05 -5.63094e-06 0)
(-6.77037e-05 -6.05362e-06 0)
(-6.79602e-05 -6.45328e-06 0)
(-6.6846e-05 -6.77455e-06 0)
(-6.44447e-05 -7.05974e-06 0)
(-6.09506e-05 -7.29446e-06 0)
(-5.66034e-05 -7.44676e-06 0)
(-5.1743e-05 -7.47214e-06 0)
(-4.67539e-05 -7.35015e-06 0)
(-4.16935e-05 -7.21025e-06 0)
(-3.5333e-05 -7.52105e-06 0)
(-2.48294e-05 -8.66957e-06 0)
(-8.10992e-06 -8.42627e-06 0)
(0.0101182 0.000392858 0)
(0.0104668 0.000847292 0)
(0.0107361 0.00102733 0)
(0.0108241 0.00108727 0)
(0.0107485 0.00108845 0)
(0.0105576 0.00104221 0)
(0.0102848 0.000960303 0)
(0.00995432 0.000859275 0)
(0.00958992 0.000752691 0)
(0.00921241 0.00064913 0)
(0.00883664 0.00055378 0)
(0.0084719 0.000469571 0)
(0.0081237 0.000397631 0)
(0.00779505 0.000337744 0)
(0.00748714 0.000288882 0)
(0.00719986 0.000249619 0)
(0.00693234 0.000218399 0)
(0.00668331 0.000193705 0)
(0.00645134 0.000174156 0)
(0.00623494 0.000158566 0)
(0.00603272 0.000145963 0)
(0.00584339 0.000135572 0)
(0.00566581 0.000126797 0)
(0.00549899 0.000119188 0)
(0.00534206 0.000112413 0)
(0.00519427 0.000106236 0)
(0.00505497 0.000100503 0)
(0.00492355 9.51257e-05 0)
(0.00479942 9.00777e-05 0)
(0.00468201 8.53805e-05 0)
(0.00457069 8.10913e-05 0)
(0.00446477 7.72825e-05 0)
(0.00436352 7.4018e-05 0)
(0.00426618 7.13309e-05 0)
(0.00417197 6.9209e-05 0)
(0.00408017 6.75901e-05 0)
(0.00399013 6.63708e-05 0)
(0.00390137 6.54233e-05 0)
(0.00381358 6.46179e-05 0)
(0.00372663 6.3844e-05 0)
(0.00364059 6.3024e-05 0)
(0.00355562 6.21196e-05 0)
(0.00347196 6.11279e-05 0)
(0.00338986 6.00724e-05 0)
(0.00330949 5.8992e-05 0)
(0.00323089 5.7932e-05 0)
(0.003154 5.69388e-05 0)
(0.00307862 5.60562e-05 0)
(0.00300447 5.53227e-05 0)
(0.00293121 5.47672e-05 0)
(0.00285848 5.44045e-05 0)
(0.00278595 5.42309e-05 0)
(0.00271334 5.42239e-05 0)
(0.00264044 5.4345e-05 0)
(0.00256712 5.45465e-05 0)
(0.0024933 5.47793e-05 0)
(0.00241895 5.49995e-05 0)
(0.00234412 5.51725e-05 0)
(0.00226883 5.52742e-05 0)
(0.00219316 5.52892e-05 0)
(0.00211718 5.52085e-05 0)
(0.00204098 5.50269e-05 0)
(0.00196464 5.4741e-05 0)
(0.00188825 5.43481e-05 0)
(0.00181191 5.38457e-05 0)
(0.00173572 5.32311e-05 0)
(0.00165978 5.25017e-05 0)
(0.0015842 5.16548e-05 0)
(0.00150911 5.06879e-05 0)
(0.0014346 4.95985e-05 0)
(0.00136082 4.83846e-05 0)
(0.00128787 4.70446e-05 0)
(0.0012159 4.55772e-05 0)
(0.00114503 4.39819e-05 0)
(0.0010754 4.22591e-05 0)
(0.00100713 4.04098e-05 0)
(0.000940367 3.84362e-05 0)
(0.00087523 3.63414e-05 0)
(0.000811849 3.41295e-05 0)
(0.00075034 3.18057e-05 0)
(0.000690821 2.93941e-05 0)
(0.000633404 2.68963e-05 0)
(0.000578177 2.43091e-05 0)
(0.000525215 2.16628e-05 0)
(0.000474581 1.89692e-05 0)
(0.000426316 1.62511e-05 0)
(0.000380441 1.35366e-05 0)
(0.000336951 1.08499e-05 0)
(0.000295813 8.22594e-06 0)
(0.000256971 5.71699e-06 0)
(0.000220287 3.40912e-06 0)
(0.000185582 1.33616e-06 0)
(0.000152655 -4.06734e-07 0)
(0.000121204 -1.68478e-06 0)
(9.08352e-05 -2.38692e-06 0)
(6.11675e-05 -2.72297e-06 0)
(3.23984e-05 -3.98243e-06 0)
(6.93265e-06 -9.19467e-06 0)
(-9.03566e-06 -2.03733e-05 0)
(-6.65233e-06 -2.45705e-05 0)
(0.0100098 0.00012306 0)
(0.0101314 0.000352671 0)
(0.0103504 0.000537352 0)
(0.0105961 0.000683773 0)
(0.0108181 0.000795749 0)
(0.0109963 0.00086689 0)
(0.0111198 0.000896794 0)
(0.0111821 0.000893564 0)
(0.0111843 0.000867262 0)
(0.0111337 0.000826284 0)
(0.0110394 0.000777153 0)
(0.0109105 0.000724865 0)
(0.0107553 0.000672952 0)
(0.0105809 0.000623602 0)
(0.0103932 0.000577964 0)
(0.0101969 0.000536485 0)
(0.00999576 0.000499166 0)
(0.00979249 0.000465744 0)
(0.00958919 0.000435812 0)
(0.00938744 0.000408914 0)
(0.00918838 0.0003846 0)
(0.00899289 0.000362459 0)
(0.0088016 0.000342132 0)
(0.00861498 0.000323317 0)
(0.00843337 0.000305772 0)
(0.00825701 0.000289318 0)
(0.00808603 0.000273834 0)
(0.00792047 0.000259266 0)
(0.00776028 0.000245621 0)
(0.00760532 0.000232969 0)
(0.00745536 0.000221427 0)
(0.00731008 0.00021114 0)
(0.00716906 0.000202249 0)
(0.00703183 0.000194854 0)
(0.00689781 0.000188975 0)
(0.0067664 0.000184527 0)
(0.00663694 0.000181309 0)
(0.00650881 0.000179015 0)
(0.00638148 0.000177263 0)
(0.00625455 0.000175652 0)
(0.0061278 0.000173821 0)
(0.00600126 0.000171511 0)
(0.00587522 0.000168612 0)
(0.00575017 0.00016518 0)
(0.00562672 0.000161412 0)
(0.00550552 0.000157597 0)
(0.00538709 0.000154043 0)
(0.00527171 0.000151012 0)
(0.00515936 0.000148674 0)
(0.0050497 0.000147097 0)
(0.00494217 0.000146256 0)
(0.00483604 0.000146056 0)
(0.00473064 0.000146366 0)
(0.00462533 0.000147038 0)
(0.00451966 0.00014793 0)
(0.00441334 0.00014892 0)
(0.0043062 0.000149908 0)
(0.0041982 0.000150823 0)
(0.00408933 0.000151618 0)
(0.00397961 0.000152262 0)
(0.00386909 0.000152737 0)
(0.00375783 0.000153031 0)
(0.00364588 0.000153135 0)
(0.0035333 0.00015304 0)
(0.00342017 0.000152739 0)
(0.00330657 0.000152222 0)
(0.00319259 0.00015148 0)
(0.00307831 0.000150504 0)
(0.00296385 0.000149285 0)
(0.00284932 0.000147815 0)
(0.00273483 0.000146086 0)
(0.00262052 0.000144092 0)
(0.00250652 0.000141827 0)
(0.00239296 0.000139288 0)
(0.00227998 0.000136472 0)
(0.00216775 0.00013338 0)
(0.00205639 0.000130015 0)
(0.00194607 0.000126383 0)
(0.00183692 0.000122492 0)
(0.0017291 0.000118357 0)
(0.00162274 0.000113997 0)
(0.00151798 0.00010943 0)
(0.00141494 0.000104681 0)
(0.00131373 9.97832e-05 0)
(0.00121443 9.47737e-05 0)
(0.00111712 8.96969e-05 0)
(0.00102185 8.46055e-05 0)
(0.000928651 7.95586e-05 0)
(0.000837508 7.4626e-05 0)
(0.000748388 6.98852e-05 0)
(0.000661206 6.54184e-05 0)
(0.00057584 6.13647e-05 0)
(0.000492133 5.78829e-05 0)
(0.000409881 5.51616e-05 0)
(0.000328846 5.33006e-05 0)
(0.00024883 5.17644e-05 0)
(0.000170113 4.7897e-05 0)
(9.51851e-05 3.51235e-05 0)
(3.28463e-05 6.43526e-06 0)
(-9.66539e-07 -2.23887e-05 0)
(0.0100081 0.000107772 0)
(0.0100669 0.00030684 0)
(0.0101718 0.000462927 0)
(0.0103028 0.000574553 0)
(0.0104434 0.000654936 0)
(0.010588 0.000712188 0)
(0.0107315 0.000749195 0)
(0.0108647 0.00076891 0)
(0.0109792 0.000774949 0)
(0.0110698 0.000770508 0)
(0.0111347 0.000758226 0)
(0.0111737 0.000740452 0)
(0.0111881 0.000719244 0)
(0.0111797 0.000696246 0)
(0.0111509 0.000672638 0)
(0.0111044 0.000649206 0)
(0.0110423 0.000626414 0)
(0.010967 0.000604489 0)
(0.0108803 0.000583493 0)
(0.0107839 0.000563378 0)
(0.0106793 0.000544035 0)
(0.0105679 0.000525335 0)
(0.0104506 0.000507149 0)
(0.0103286 0.000489371 0)
(0.0102027 0.000471928 0)
(0.0100736 0.000454794 0)
(0.00994211 0.000437991 0)
(0.0098087 0.0004216 0)
(0.0096739 0.000405757 0)
(0.00953813 0.000390653 0)
(0.00940171 0.000376517 0)
(0.00926492 0.0003636 0)
(0.00912794 0.000352142 0)
(0.00899089 0.000342341 0)
(0.00885381 0.000334317 0)
(0.00871664 0.000328089 0)
(0.00857924 0.000323551 0)
(0.00844137 0.000320471 0)
(0.00830271 0.0003185 0)
(0.00816286 0.000317193 0)
(0.00802142 0.000316047 0)
(0.00787803 0.000314547 0)
(0.00773247 0.00031223 0)
(0.00758481 0.000308753 0)
(0.00743546 0.00030397 0)
(0.00728525 0.000297985 0)
(0.00713537 0.000291173 0)
(0.00698721 0.000284117 0)
(0.00684204 0.000277499 0)
(0.00670079 0.000271944 0)
(0.00656378 0.00026788 0)
(0.00643074 0.000265463 0)
(0.00630088 0.000264586 0)
(0.00617318 0.000264949 0)
(0.00604657 0.000266173 0)
(0.00592018 0.000267892 0)
(0.0057934 0.000269817 0)
(0.00566585 0.000271752 0)
(0.00553733 0.000273586 0)
(0.00540777 0.000275258 0)
(0.00527713 0.000276742 0)
(0.00514538 0.000278018 0)
(0.00501251 0.000279071 0)
(0.00487853 0.000279885 0)
(0.00474344 0.00028044 0)
(0.00460727 0.000280719 0)
(0.00447004 0.000280702 0)
(0.00433179 0.000280371 0)
(0.00419259 0.000279708 0)
(0.00405249 0.000278695 0)
(0.00391156 0.000277316 0)
(0.00376991 0.000275555 0)
(0.00362761 0.0002734 0)
(0.00348478 0.00027084 0)
(0.00334151 0.000267866 0)
(0.00319794 0.000264475 0)
(0.00305419 0.000260665 0)
(0.00291039 0.000256441 0)
(0.00276667 0.000251811 0)
(0.00262317 0.000246791 0)
(0.00248002 0.000241403 0)
(0.00233737 0.000235674 0)
(0.00219533 0.000229638 0)
(0.00205404 0.00022334 0)
(0.0019136 0.000216833 0)
(0.00177412 0.000210181 0)
(0.00163568 0.000203455 0)
(0.00149834 0.000196741 0)
(0.00136216 0.000190136 0)
(0.00122716 0.000183751 0)
(0.00109332 0.000177712 0)
(0.000960614 0.000172181 0)
(0.000828998 0.000167343 0)
(0.000698412 0.000163398 0)
(0.000568798 0.000160406 0)
(0.000440134 0.000157566 0)
(0.000312679 0.000151006 0)
(0.000188579 0.000130184 0)
(7.83883e-05 7.96203e-05 0)
(5.30935e-06 6.09546e-06 0)
(0.0100043 8.09453e-05 0)
(0.0100396 0.000233223 0)
(0.0101059 0.000361758 0)
(0.0101913 0.000461652 0)
(0.0102829 0.000537309 0)
(0.0103756 0.000593567 0)
(0.0104683 0.000632956 0)
(0.0105589 0.000657957 0)
(0.0106447 0.000671803 0)
(0.0107235 0.000677583 0)
(0.010794 0.000677692 0)
(0.0108554 0.000673935 0)
(0.0109069 0.000667708 0)
(0.0109482 0.000660051 0)
(0.0109791 0.000651666 0)
(0.0109998 0.000642984 0)
(0.0110105 0.000634231 0)
(0.0110115 0.000625496 0)
(0.0110033 0.000616772 0)
(0.0109862 0.000607995 0)
(0.0109605 0.00059907 0)
(0.0109265 0.0005899 0)
(0.0108848 0.0005804 0)
(0.0108355 0.000570509 0)
(0.010779 0.000560205 0)
(0.0107158 0.000549509 0)
(0.010646 0.000538492 0)
(0.0105702 0.000527281 0)
(0.0104885 0.000516058 0)
(0.0104014 0.000505052 0)
(0.0103093 0.000494534 0)
(0.0102124 0.000484793 0)
(0.0101112 0.000476114 0)
(0.010006 0.00046875 0)
(0.00989718 0.000462892 0)
(0.00978495 0.000458646 0)
(0.00966953 0.000456017 0)
(0.00955103 0.000454896 0)
(0.0094294 0.00045507 0)
(0.00930449 0.000456229 0)
(0.00917596 0.000457983 0)
(0.00904334 0.000459866 0)
(0.00890605 0.000461345 0)
(0.00876356 0.000461833 0)
(0.0086155 0.000460736 0)
(0.00846193 0.000457559 0)
(0.00830359 0.000452055 0)
(0.00814191 0.000444379 0)
(0.00797897 0.000435156 0)
(0.00781706 0.000425396 0)
(0.00765827 0.000416275 0)
(0.00750399 0.000408829 0)
(0.00735466 0.000403703 0)
(0.00720984 0.000401041 0)
(0.0070685 0.000400547 0)
(0.00692935 0.000401666 0)
(0.00679123 0.000403793 0)
(0.00665321 0.000406421 0)
(0.00651472 0.000409212 0)
(0.0063754 0.000411976 0)
(0.00623505 0.000414626 0)
(0.00609355 0.000417124 0)
(0.00595078 0.000419445 0)
(0.00580668 0.000421563 0)
(0.00566117 0.000423447 0)
(0.00551419 0.000425066 0)
(0.0053657 0.000426387 0)
(0.00521567 0.000427379 0)
(0.0050641 0.000428012 0)
(0.00491097 0.000428257 0)
(0.00475631 0.000428085 0)
(0.00460012 0.000427472 0)
(0.00444246 0.000426393 0)
(0.00428336 0.000424827 0)
(0.00412287 0.000422757 0)
(0.00396107 0.000420169 0)
(0.00379803 0.000417055 0)
(0.00363384 0.000413413 0)
(0.00346859 0.000409245 0)
(0.00330237 0.000404562 0)
(0.0031353 0.000399384 0)
(0.00296749 0.000393738 0)
(0.00279906 0.000387661 0)
(0.00263011 0.000381201 0)
(0.00246076 0.000374418 0)
(0.00229113 0.000367385 0)
(0.00212132 0.000360186 0)
(0.00195143 0.000352921 0)
(0.00178155 0.000345704 0)
(0.00161176 0.000338664 0)
(0.00144212 0.000331949 0)
(0.00127271 0.000325727 0)
(0.00110357 0.000320188 0)
(0.000934778 0.000315517 0)
(0.000766428 0.00031173 0)
(0.000598639 0.000307818 0)
(0.000431693 0.000298831 0)
(0.000267468 0.000269967 0)
(0.000117864 0.000194369 0)
(1.13551e-05 5.97734e-05 0)
(0.0100027 6.39193e-05 0)
(0.0100258 0.000187155 0)
(0.0100718 0.000297243 0)
(0.0101343 0.000388836 0)
(0.0102035 0.000461956 0)
(0.0102736 0.000518663 0)
(0.0103419 0.000560693 0)
(0.0104068 0.000589863 0)
(0.010467 0.000608602 0)
(0.0105215 0.000619506 0)
(0.0105703 0.000624818 0)
(0.0106134 0.000626316 0)
(0.0106513 0.000625391 0)
(0.0106842 0.000623092 0)
(0.0107122 0.000620153 0)
(0.0107357 0.000617035 0)
(0.0107548 0.000613991 0)
(0.0107694 0.000611129 0)
(0.0107796 0.000608449 0)
(0.0107854 0.000605888 0)
(0.0107865 0.000603345 0)
(0.0107829 0.000600705 0)
(0.0107743 0.000597859 0)
(0.0107606 0.000594716 0)
(0.0107416 0.000591218 0)
(0.0107172 0.000587343 0)
(0.0106871 0.00058312 0)
(0.0106513 0.000578626 0)
(0.0106097 0.00057399 0)
(0.0105623 0.000569391 0)
(0.0105091 0.000565046 0)
(0.0104503 0.000561197 0)
(0.010386 0.000558093 0)
(0.0103165 0.000555967 0)
(0.0102418 0.000555014 0)
(0.0101624 0.000555374 0)
(0.0100784 0.00055711 0)
(0.00998987 0.000560215 0)
(0.00989698 0.000564602 0)
(0.00979965 0.00057013 0)
(0.00969764 0.000576601 0)
(0.00959051 0.00058376 0)
(0.00947757 0.000591246 0)
(0.00935793 0.000598529 0)
(0.00923057 0.00060485 0)
(0.00909463 0.000609239 0)
(0.00894975 0.000610674 0)
(0.00879642 0.000608371 0)
(0.00863619 0.000602123 0)
(0.00847156 0.000592517 0)
(0.00830557 0.000580898 0)
(0.00814112 0.000569047 0)
(0.00798037 0.000558686 0)
(0.00782436 0.00055103 0)
(0.00767303 0.000546548 0)
(0.00752551 0.000545018 0)
(0.00738056 0.000545781 0)
(0.00723699 0.000548055 0)
(0.00709381 0.000551173 0)
(0.00695037 0.000554683 0)
(0.00680623 0.000558332 0)
(0.00666113 0.000562001 0)
(0.00651486 0.000565628 0)
(0.00636726 0.000569171 0)
(0.00621818 0.000572584 0)
(0.00606749 0.000575818 0)
(0.0059151 0.000578825 0)
(0.00576091 0.000581558 0)
(0.00560483 0.000583974 0)
(0.00544682 0.000586029 0)
(0.00528681 0.000587684 0)
(0.00512477 0.000588901 0)
(0.00496068 0.000589644 0)
(0.00479452 0.000589881 0)
(0.00462628 0.000589584 0)
(0.00445598 0.000588727 0)
(0.00428363 0.000587292 0)
(0.00410926 0.000585264 0)
(0.00393292 0.000582639 0)
(0.00375464 0.000579417 0)
(0.00357451 0.00057561 0)
(0.00339258 0.000571237 0)
(0.00320894 0.00056633 0)
(0.00302367 0.000560933 0)
(0.00283688 0.000555103 0)
(0.00264866 0.000548911 0)
(0.00245913 0.000542443 0)
(0.00226838 0.0005358 0)
(0.00207654 0.000529099 0)
(0.00188373 0.000522473 0)
(0.00169006 0.000516072 0)
(0.00149567 0.000510061 0)
(0.00130068 0.000504615 0)
(0.00110528 0.000499896 0)
(0.000909638 0.000495872 0)
(0.000713994 0.000491356 0)
(0.00051869 0.000480358 0)
(0.000325477 0.000443523 0)
(0.000147236 0.000340525 0)
(1.60834e-05 0.000132596 0)
(0.0100019 5.2978e-05 0)
(0.0100182 0.000156374 0)
(0.0100512 0.000251638 0)
(0.0100974 0.00033421 0)
(0.0101505 0.000402818 0)
(0.0102056 0.000458311 0)
(0.0102602 0.00050192 0)
(0.0103125 0.000534918 0)
(0.0103608 0.00055887 0)
(0.0104041 0.000575548 0)
(0.010442 0.000586637 0)
(0.0104743 0.000593587 0)
(0.0105015 0.000597609 0)
(0.010524 0.000599692 0)
(0.0105422 0.000600599 0)
(0.0105566 0.000600884 0)
(0.0105676 0.000600919 0)
(0.0105755 0.000600935 0)
(0.0105807 0.000601054 0)
(0.0105831 0.00060132 0)
(0.0105829 0.000601722 0)
(0.0105801 0.000602217 0)
(0.0105746 0.00060275 0)
(0.0105662 0.000603265 0)
(0.0105546 0.00060372 0)
(0.0105398 0.000604097 0)
(0.0105214 0.000604407 0)
(0.0104992 0.000604698 0)
(0.010473 0.000605054 0)
(0.0104426 0.000605598 0)
(0.0104078 0.000606483 0)
(0.0103686 0.000607884 0)
(0.0103249 0.000609987 0)
(0.0102768 0.00061297 0)
(0.0102242 0.000616994 0)
(0.0101673 0.000622184 0)
(0.0101062 0.000628621 0)
(0.0100408 0.00063634 0)
(0.00997131 0.000645339 0)
(0.00989759 0.000655599 0)
(0.00981946 0.000667104 0)
(0.00973654 0.00067984 0)
(0.00964817 0.000693738 0)
(0.00955337 0.000708541 0)
(0.00945085 0.000723629 0)
(0.00933916 0.000737885 0)
(0.00921703 0.000749728 0)
(0.00908382 0.000757411 0)
(0.00893996 0.000759543 0)
(0.00878711 0.00075564 0)
(0.00862805 0.000746453 0)
(0.0084661 0.000733867 0)
(0.00830441 0.000720369 0)
(0.00814531 0.000708324 0)
(0.00798999 0.000699357 0)
(0.00783852 0.000694093 0)
(0.00769021 0.000692273 0)
(0.00754403 0.000693127 0)
(0.00739895 0.000695774 0)
(0.00725416 0.000699486 0)
(0.00710905 0.000703787 0)
(0.00696324 0.00070841 0)
(0.00681642 0.00071322 0)
(0.00666837 0.000718133 0)
(0.00651889 0.000723081 0)
(0.00636782 0.000727998 0)
(0.00621499 0.000732816 0)
(0.00606026 0.000737471 0)
(0.00590353 0.000741905 0)
(0.00574468 0.000746062 0)
(0.00558361 0.00074989 0)
(0.00542025 0.000753339 0)
(0.00525451 0.000756362 0)
(0.00508634 0.000758916 0)
(0.00491569 0.00076096 0)
(0.00474251 0.00076246 0)
(0.00456678 0.000763383 0)
(0.00438847 0.000763707 0)
(0.00420758 0.000763412 0)
(0.0040241 0.000762489 0)
(0.00383807 0.000760936 0)
(0.00364949 0.000758763 0)
(0.00345842 0.000755989 0)
(0.0032649 0.000752649 0)
(0.00306901 0.000748788 0)
(0.00287081 0.000744467 0)
(0.00267041 0.000739763 0)
(0.0024679 0.000734767 0)
(0.0022634 0.000729589 0)
(0.00205705 0.00072435 0)
(0.00184899 0.000719189 0)
(0.00163939 0.000714255 0)
(0.00142843 0.0007097 0)
(0.00121633 0.000705656 0)
(0.00100334 0.000702044 0)
(0.000789748 0.0006975 0)
(0.000575983 0.000684966 0)
(0.000363781 0.000640283 0)
(0.000166715 0.000508337 0)
(1.92471e-05 0.000219091 0)
(0.0100014 4.52314e-05 0)
(0.0100132 0.000133963 0)
(0.0100374 0.000217228 0)
(0.010072 0.000291625 0)
(0.0101128 0.000355691 0)
(0.0101563 0.000409538 0)
(0.0102001 0.000453841 0)
(0.0102428 0.000489412 0)
(0.0102828 0.000517275 0)
(0.010319 0.000538651 0)
(0.0103509 0.000554794 0)
(0.010378 0.000566845 0)
(0.0104005 0.000575792 0)
(0.0104185 0.000582473 0)
(0.0104322 0.000587569 0)
(0.010442 0.00059161 0)
(0.0104482 0.000594991 0)
(0.0104512 0.000597991 0)
(0.0104512 0.000600799 0)
(0.0104485 0.000603535 0)
(0.0104432 0.000606269 0)
(0.0104356 0.000609035 0)
(0.0104256 0.000611849 0)
(0.0104133 0.000614719 0)
(0.0103986 0.000617655 0)
(0.0103815 0.000620677 0)
(0.0103617 0.000623823 0)
(0.0103393 0.000627152 0)
(0.010314 0.000630745 0)
(0.0102858 0.000634706 0)
(0.0102545 0.000639159 0)
(0.01022 0.000644241 0)
(0.0101822 0.000650097 0)
(0.0101411 0.000656866 0)
(0.0100968 0.000664677 0)
(0.0100491 0.000673636 0)
(0.00999816 0.000683822 0)
(0.00994394 0.000695285 0)
(0.00988645 0.000708069 0)
(0.00982563 0.000722236 0)
(0.00976132 0.00073791 0)
(0.00969322 0.000755297 0)
(0.00962078 0.000774631 0)
(0.00954311 0.000796017 0)
(0.00945895 0.000819153 0)
(0.00936673 0.000843049 0)
(0.00926479 0.000865889 0)
(0.00915178 0.000885224 0)
(0.00902716 0.00089855 0)
(0.00889152 0.000904118 0)
(0.00874671 0.000901624 0)
(0.0085955 0.000892452 0)
(0.00844104 0.000879296 0)
(0.00828614 0.000865325 0)
(0.00813277 0.000853259 0)
(0.00798187 0.000844749 0)
(0.0078335 0.000840246 0)
(0.0076871 0.000839301 0)
(0.00754193 0.00084104 0)
(0.00739724 0.00084458 0)
(0.00725244 0.00084925 0)
(0.00710706 0.000854632 0)
(0.0069608 0.000860489 0)
(0.00681337 0.000866685 0)
(0.00666457 0.000873119 0)
(0.00651419 0.000879701 0)
(0.00636205 0.000886346 0)
(0.00620801 0.000892974 0)
(0.00605192 0.000899511 0)
(0.00589364 0.000905888 0)
(0.00573305 0.000912043 0)
(0.00557005 0.000917913 0)
(0.00540454 0.000923444 0)
(0.00523642 0.000928581 0)
(0.00506561 0.000933275 0)
(0.00489204 0.00093748 0)
(0.00471564 0.000941155 0)
(0.00453637 0.000944265 0)
(0.00435417 0.000946779 0)
(0.00416901 0.000948677 0)
(0.00398088 0.000949944 0)
(0.00378976 0.000950576 0)
(0.00359566 0.00095058 0)
(0.00339861 0.000949975 0)
(0.00319863 0.000948791 0)
(0.00299577 0.000947074 0)
(0.00279012 0.000944885 0)
(0.00258174 0.000942298 0)
(0.00237077 0.000939403 0)
(0.00215731 0.000936305 0)
(0.00194153 0.000933118 0)
(0.00172359 0.000929967 0)
(0.00150372 0.000926976 0)
(0.00128214 0.000924245 0)
(0.00105913 0.000921646 0)
(0.00083501 0.000917628 0)
(0.000610277 0.000904006 0)
(0.000386716 0.000851599 0)
(0.000178354 0.000689702 0)
(2.11101e-05 0.000314269 0)
(0.010001 3.95472e-05 0)
(0.0100098 0.000117397 0)
(0.0100279 0.000191422 0)
(0.0100542 0.00025912 0)
(0.0100857 0.000319117 0)
(0.01012 0.000371124 0)
(0.0101552 0.000415402 0)
(0.0101898 0.000452446 0)
(0.0102226 0.000482944 0)
(0.0102528 0.000507763 0)
(0.0102795 0.000527837 0)
(0.0103026 0.00054406 0)
(0.0103217 0.000557234 0)
(0.0103369 0.000568055 0)
(0.0103483 0.00057711 0)
(0.010356 0.000584874 0)
(0.0103603 0.00059172 0)
(0.0103613 0.000597932 0)
(0.0103592 0.000603719 0)
(0.0103542 0.000609231 0)
(0.0103465 0.000614577 0)
(0.0103363 0.000619832 0)
(0.0103234 0.000625055 0)
(0.0103082 0.000630292 0)
(0.0102905 0.000635591 0)
(0.0102703 0.000641003 0)
(0.0102477 0.00064659 0)
(0.0102227 0.000652425 0)
(0.010195 0.0006586 0)
(0.0101649 0.000665217 0)
(0.0101321 0.000672392 0)
(0.0100966 0.000680248 0)
(0.0100586 0.000688912 0)
(0.0100178 0.000698505 0)
(0.00997439 0.000709142 0)
(0.00992836 0.000720919 0)
(0.00987973 0.000733915 0)
(0.00982851 0.000748191 0)
(0.00977472 0.000763818 0)
(0.00971832 0.000780918 0)
(0.00965921 0.000799724 0)
(0.00959717 0.000820622 0)
(0.00953177 0.000844114 0)
(0.00946228 0.00087065 0)
(0.00938765 0.000900288 0)
(0.00930649 0.000932297 0)
(0.00921721 0.000964859 0)
(0.00911833 0.000995134 0)
(0.00900882 0.00101981 0)
(0.00888853 0.00103602 0)
(0.00875834 0.00104235 0)
(0.00862015 0.00103939 0)
(0.00847642 0.0010296 0)
(0.00832973 0.00101649 0)
(0.00818221 0.00100354 0)
(0.00803523 0.000993313 0)
(0.00788941 0.000987013 0)
(0.00774473 0.000984678 0)
(0.00760081 0.000985633 0)
(0.00745717 0.000988988 0)
(0.00731332 0.000993976 0)
(0.00716886 0.00100006 0)
(0.00702348 0.00100693 0)
(0.00687693 0.00101438 0)
(0.00672897 0.00102229 0)
(0.00657943 0.00103053 0)
(0.00642811 0.00103901 0)
(0.00627486 0.00104762 0)
(0.00611953 0.0010563 0)
(0.00596198 0.00106494 0)
(0.00580208 0.00107348 0)
(0.00563971 0.00108185 0)
(0.00547476 0.00108999 0)
(0.00530713 0.00109783 0)
(0.00513671 0.00110532 0)
(0.00496343 0.00111239 0)
(0.00478719 0.00111901 0)
(0.00460792 0.00112513 0)
(0.00442557 0.0011307 0)
(0.00424008 0.00113569 0)
(0.0040514 0.00114008 0)
(0.00385951 0.00114385 0)
(0.00366438 0.001147 0)
(0.00346602 0.00114952 0)
(0.00326444 0.00115143 0)
(0.00305966 0.00115276 0)
(0.00285175 0.00115355 0)
(0.00264077 0.00115385 0)
(0.00242682 0.00115373 0)
(0.00221001 0.00115327 0)
(0.00199049 0.00115255 0)
(0.00176845 0.00115167 0)
(0.00154409 0.00115073 0)
(0.00131764 0.00114978 0)
(0.00108938 0.00114866 0)
(0.000859633 0.00114561 0)
(0.000628968 0.00113126 0)
(0.000399212 0.00107122 0)
(0.000184654 0.000878764 0)
(2.20788e-05 0.000414419 0)
(0.0100008 3.52953e-05 0)
(0.0100074 0.000104953 0)
(0.0100212 0.000171825 0)
(0.0100413 0.000234042 0)
(0.0100659 0.000290422 0)
(0.010093 0.000340526 0)
(0.0101211 0.000384379 0)
(0.010149 0.000422253 0)
(0.0101759 0.0004546 0)
(0.0102007 0.000482023 0)
(0.0102229 0.000505205 0)
(0.0102422 0.000524835 0)
(0.0102582 0.000541555 0)
(0.0102708 0.000555944 0)
(0.0102801 0.000568504 0)
(0.0102862 0.000579659 0)
(0.0102891 0.000589756 0)
(0.0102889 0.00059907 0)
(0.0102857 0.000607817 0)
(0.0102798 0.00061616 0)
(0.0102711 0.000624229 0)
(0.0102598 0.00063212 0)
(0.0102459 0.000639915 0)
(0.0102294 0.000647682 0)
(0.0102105 0.000655486 0)
(0.010189 0.000663395 0)
(0.010165 0.000671482 0)
(0.0101385 0.000679829 0)
(0.0101095 0.000688527 0)
(0.0100779 0.000697678 0)
(0.0100438 0.00070739 0)
(0.0100072 0.000717777 0)
(0.00996809 0.000728956 0)
(0.00992649 0.000741039 0)
(0.00988245 0.000754131 0)
(0.009836 0.000768326 0)
(0.00978719 0.000783702 0)
(0.00973606 0.000800333 0)
(0.00968264 0.000818311 0)
(0.00962694 0.000837806 0)
(0.00956888 0.000859141 0)
(0.0095083 0.000882853 0)
(0.00944485 0.000909666 0)
(0.00937796 0.00094031 0)
(0.00930678 0.000975153 0)
(0.00923019 0.00101371 0)
(0.00914692 0.00105427 0)
(0.00905567 0.0010938 0)
(0.00895544 0.00112848 0)
(0.00884576 0.00115467 0)
(0.00872691 0.00117003 0)
(0.00859998 0.00117436 0)
(0.00846667 0.00116967 0)
(0.00832892 0.0011595 0)
(0.0081886 0.00114772 0)
(0.00804711 0.00113752 0)
(0.00790531 0.00113073 0)
(0.00776356 0.00112789 0)
(0.00762182 0.00112859 0)
(0.00747985 0.00113208 0)
(0.00733737 0.00113757 0)
(0.00719408 0.00114448 0)
(0.00704972 0.00115244 0)
(0.00690406 0.00116122 0)
(0.00675691 0.00117064 0)
(0.0066081 0.00118059 0)
(0.00645745 0.00119094 0)
(0.00630482 0.00120158 0)
(0.00615005 0.00121242 0)
(0.00599301 0.00122337 0)
(0.00583358 0.00123434 0)
(0.00567163 0.00124526 0)
(0.00550706 0.00125605 0)
(0.00533975 0.00126665 0)
(0.0051696 0.001277 0)
(0.00499653 0.00128702 0)
(0.00482044 0.00129667 0)
(0.00464125 0.00130589 0)
(0.0044589 0.00131463 0)
(0.00427332 0.00132284 0)
(0.00408446 0.0013305 0)
(0.00389228 0.00133757 0)
(0.00369676 0.00134403 0)
(0.00349787 0.00134987 0)
(0.00329563 0.00135509 0)
(0.00309005 0.00135969 0)
(0.00288117 0.00136369 0)
(0.00266906 0.00136713 0)
(0.0024538 0.00137004 0)
(0.0022355 0.00137249 0)
(0.00201431 0.00137451 0)
(0.00179039 0.00137619 0)
(0.00156394 0.00137758 0)
(0.0013352 0.00137872 0)
(0.00110442 0.00137938 0)
(0.000871943 0.00137758 0)
(0.000638354 0.00136273 0)
(0.000405521 0.00129515 0)
(0.000187825 0.0010718 0)
(2.25356e-05 0.000517159 0)
(0.0100006 3.20646e-05 0)
(0.0100057 9.54645e-05 0)
(0.0100163 0.000156762 0)
(0.0100318 0.000214541 0)
(0.010051 0.00026783 0)
(0.0100724 0.000316164 0)
(0.0100948 0.000359438 0)
(0.0101174 0.00039777 0)
(0.0101392 0.000431439 0)
(0.0101595 0.000460857 0)
(0.0101777 0.000486519 0)
(0.0101935 0.00050895 0)
(0.0102066 0.00052866 0)
(0.0102169 0.000546123 0)
(0.0102242 0.000561769 0)
(0.0102286 0.000575968 0)
(0.0102301 0.000589038 0)
(0.0102288 0.000601239 0)
(0.0102248 0.000612785 0)
(0.010218 0.000623848 0)
(0.0102087 0.000634567 0)
(0.0101968 0.000645054 0)
(0.0101823 0.000655407 0)
(0.0101654 0.000665707 0)
(0.0101459 0.000676032 0)
(0.010124 0.00068646 0)
(0.0100996 0.000697069 0)
(0.0100727 0.000707943 0)
(0.0100433 0.000719172 0)
(0.0100114 0.000730852 0)
(0.00997694 0.000743084 0)
(0.00994003 0.000755973 0)
(0.00990065 0.000769625 0)
(0.00985884 0.000784144 0)
(0.00981461 0.000799627 0)
(0.00976803 0.000816165 0)
(0.00971913 0.000833836 0)
(0.00966795 0.00085272 0)
(0.00961454 0.000872928 0)
(0.00955889 0.000894675 0)
(0.00950096 0.000918366 0)
(0.0094406 0.000944668 0)
(0.0093775 0.000974491 0)
(0.00931115 0.00100879 0)
(0.00924085 0.00104815 0)
(0.00916571 0.00109228 0)
(0.00908473 0.00113951 0)
(0.00899696 0.00118674 0)
(0.00890159 0.00122984 0)
(0.0087982 0.00126464 0)
(0.00868684 0.00128819 0)
(0.00856809 0.00129968 0)
(0.00844303 0.00130068 0)
(0.00831302 0.00129457 0)
(0.00817946 0.00128536 0)
(0.00804356 0.0012766 0)
(0.00790619 0.00127056 0)
(0.00776786 0.00126818 0)
(0.00762876 0.00126934 0)
(0.00748885 0.00127344 0)
(0.00734801 0.00127976 0)
(0.00720606 0.00128773 0)
(0.00706281 0.00129696 0)
(0.00691809 0.0013072 0)
(0.00677174 0.00131826 0)
(0.0066236 0.00133001 0)
(0.00647352 0.00134231 0)
(0.00632137 0.00135505 0)
(0.006167 0.00136812 0)
(0.0060103 0.00138143 0)
(0.00585113 0.00139488 0)
(0.00568939 0.0014084 0)
(0.00552496 0.0014219 0)
(0.00535774 0.00143531 0)
(0.00518763 0.00144856 0)
(0.00501454 0.00146159 0)
(0.00483839 0.00147431 0)
(0.00465909 0.00148669 0)
(0.00447657 0.00149865 0)
(0.00429078 0.00151015 0)
(0.00410166 0.00152114 0)
(0.00390917 0.00153157 0)
(0.00371328 0.00154142 0)
(0.00351397 0.00155066 0)
(0.00331126 0.00155926 0)
(0.00310515 0.00156722 0)
(0.00289569 0.00157453 0)
(0.00268293 0.00158121 0)
(0.00246696 0.00158726 0)
(0.00224789 0.00159272 0)
(0.00202585 0.00159762 0)
(0.00180101 0.00160198 0)
(0.00157357 0.00160584 0)
(0.00134375 0.0016092 0)
(0.0011118 0.00161179 0)
(0.000878028 0.00161142 0)
(0.000643066 0.00159621 0)