/*--------------------------------*- C++ -*----------------------------------*\
| =========                 |                                                 |
| \\      /  F ield         | OpenFOAM: The Open Source CFD Toolbox           |
|  \\    /   O peration     | Version:  4.1                                   |
|   \\  /    A nd           | Web:      www.OpenFOAM.org                      |
|    \\/     M anipulation  |                                                 |
\*---------------------------------------------------------------------------*/
FoamFile
{
    version     2.0;
    format      ascii;
    class       volScalarField;
    location    "0.1";
    object      k;
}
// * * * * * * * * * * * * * * * * * * * * * * * * * * * * * * * * * * * * * //

dimensions      [0 2 -2 0 0 0 0];

internalField   nonuniform List<scalar> 
43750
(
8.42694e-05
7.48913e-05
7.56604e-05
8.92727e-05
9.3269e-05
8.79155e-05
8.5286e-05
9.45457e-05
0.000167088
0.000459641
0.000678634
0.000698988
0.00060331
0.000329133
0.000192761
0.000169335
0.000192982
0.000364925
0.000953461
0.00152936
0.00179987
0.00185503
0.00183582
0.00171817
0.00134651
0.000879579
0.000502661
0.000268848
0.000164692
0.000135606
0.000140068
0.000165436
0.000166392
0.000139946
0.000120227
0.000124483
0.000184933
0.000551694
0.00157382
0.00210062
0.00215674
0.00205067
0.00181107
0.0017458
0.00178431
0.00211622
0.00341913
0.00508914
0.00618958
0.00680353
0.00707987
0.0071646
0.00717108
0.00714813
0.00707153
0.006996
0.00693344
0.00687729
0.00682375
0.00677221
0.0067209
0.00666884
0.00661643
0.00656213
0.00650542
0.00644599
0.00638244
0.00631434
0.00624099
0.00616115
0.00607414
0.00597923
0.00587528
0.00576144
0.00563691
0.00550067
0.00535193
0.00519023
0.00501497
0.00482539
0.00462128
0.00440303
0.00417133
0.00392676
0.00366985
0.0034013
0.00312224
0.00283431
0.00253973
0.00224138
0.0019428
0.00164815
0.00136207
0.00108979
0.000836048
0.000606905
0.000404118
0.000237852
0.000104485
1.335e-05
2.01702e-05
2.03196e-05
2.03584e-05
2.03095e-05
2.02068e-05
2.01741e-05
2.01758e-05
2.02421e-05
2.07437e-05
2.35518e-05
2.80707e-05
2.9032e-05
2.80268e-05
2.44051e-05
2.27135e-05
2.2743e-05
2.43918e-05
3.31568e-05
4.89723e-05
5.56876e-05
5.78387e-05
6.06809e-05
6.23284e-05
6.18512e-05
5.74938e-05
4.58828e-05
3.69126e-05
3.17487e-05
2.91856e-05
2.82631e-05
2.81629e-05
2.83673e-05
2.86561e-05
2.86699e-05
2.87242e-05
2.92023e-05
3.1737e-05
4.22216e-05
7.61711e-05
0.000165756
0.000259096
0.000317465
0.000345294
0.000364235
0.000397985
0.000483084
0.000672853
0.000855102
0.000988592
0.0010725
0.00112036
0.00114685
0.00116113
0.00116788
0.00117472
0.00118496
0.00119912
0.00121595
0.00123449
0.00125463
0.00127589
0.00129845
0.0013219
0.00134689
0.00137208
0.0013988
0.00142557
0.00145282
0.00148043
0.001507
0.00153428
0.00155847
0.00158372
0.00160393
0.00162413
0.00163891
0.00165053
0.0016569
0.00165553
0.00164994
0.00163749
0.00161506
0.00158365
0.00154227
0.00149066
0.00142844
0.00135512
0.00127062
0.00117548
0.00107067
0.000957529
0.00083847
0.000716214
0.000594964
0.000478105
0.000372202
0.000275242
0.000200497
7.5787e-05
1.12584e-05
2.0066e-05
2.00274e-05
1.99004e-05
1.96295e-05
1.91044e-05
1.76892e-05
1.61243e-05
1.58458e-05
1.59678e-05
1.58135e-05
1.47037e-05
1.40005e-05
1.40976e-05
1.48394e-05
1.59073e-05
1.6567e-05
1.70128e-05
1.72912e-05
1.73653e-05
1.72281e-05
1.62975e-05
1.48386e-05
1.41861e-05
1.40323e-05
1.40272e-05
1.40586e-05
1.41196e-05
1.41985e-05
1.42796e-05
1.43185e-05
1.43113e-05
1.41845e-05
1.36031e-05
1.29875e-05
1.27728e-05
1.27636e-05
1.28676e-05
1.33689e-05
1.52463e-05
1.94159e-05
2.28271e-05
2.59298e-05
3.01398e-05
3.69375e-05
4.8241e-05
6.46553e-05
8.31052e-05
9.91784e-05
0.000110938
0.0001189
0.000124269
0.000127565
0.000129801
0.000131841
0.000134682
0.000138331
0.000142735
0.000147597
0.000152889
0.000158639
0.000164786
0.000171494
0.000178571
0.000186386
0.000194474
0.000203404
0.000212697
0.000222631
0.000233215
0.000244109
0.000255903
0.000267656
0.000280416
0.000292912
0.000306106
0.000319094
0.000332136
0.000344772
0.000357106
0.000368327
0.000378631
0.000387878
0.000394527
0.000400595
0.000403036
0.000402624
0.000400614
0.000395873
0.0003867
0.000373742
0.000356904
0.000335359
0.000308554
0.000274591
0.00023404
0.000184795
0.000134613
8.36192e-05
3.15002e-05
4.95613e-06
2.07817e-05
2.12049e-05
2.11995e-05
2.11036e-05
2.10948e-05
2.12142e-05
2.13672e-05
2.1409e-05
2.13988e-05
2.13297e-05
2.128e-05
2.12819e-05
2.13653e-05
2.17583e-05
2.21531e-05
2.21976e-05
2.20819e-05
2.16497e-05
2.11078e-05
2.07406e-05
2.05282e-05
2.04562e-05
2.04561e-05
2.05084e-05
2.07468e-05
2.15443e-05
2.25771e-05
2.32069e-05
2.33818e-05
2.33217e-05
2.28658e-05
2.18119e-05
2.12442e-05
2.11253e-05
2.1143e-05
2.12116e-05
2.13758e-05
2.16005e-05
2.18021e-05
2.19193e-05
2.20342e-05
2.23718e-05
2.37167e-05
2.86375e-05
3.94361e-05
4.91235e-05
5.58364e-05
5.9065e-05
5.96089e-05
5.81714e-05
5.13875e-05
4.40791e-05
3.98677e-05
3.81011e-05
3.78048e-05
3.79208e-05
3.8423e-05
3.98351e-05
4.18311e-05
4.39239e-05
4.61352e-05
4.85466e-05
5.10768e-05
5.38887e-05
5.68044e-05
6.0039e-05
6.34318e-05
6.70779e-05
7.10004e-05
7.50924e-05
7.95248e-05
8.40863e-05
8.8986e-05
9.3984e-05
9.92555e-05
0.000104581
0.000110078
0.000115477
0.000120922
0.000126137
0.000130934
0.000135558
0.000139168
0.000142324
0.000144749
0.000145179
0.000144836
0.000143664
0.000140917
0.000135943
0.000129506
0.000121365
0.000111831
0.000100166
8.73958e-05
7.08927e-05
5.33383e-05
3.24189e-05
1.26292e-05
1.99431e-06
2.05334e-05
2.08544e-05
2.08782e-05
2.09699e-05
2.14262e-05
2.18184e-05
2.18866e-05
2.18146e-05
2.15247e-05
2.13924e-05
2.14119e-05
2.16201e-05
2.19384e-05
2.20999e-05
2.21715e-05
2.22186e-05
2.23341e-05
2.26269e-05
2.28332e-05
2.28634e-05
2.27404e-05
2.22162e-05
2.18386e-05
2.17845e-05
2.19266e-05
2.27684e-05
2.43753e-05
2.5311e-05
2.55882e-05
2.55123e-05
2.47688e-05
2.31464e-05
2.23455e-05
2.21679e-05
2.21732e-05
2.21773e-05
2.21539e-05
2.20722e-05
2.20373e-05
2.20452e-05
2.21317e-05
2.25762e-05
2.44513e-05
3.06009e-05
3.71598e-05
4.08547e-05
4.21151e-05
4.20528e-05
4.02562e-05
3.24834e-05
2.2157e-05
1.51128e-05
1.07556e-05
8.31301e-06
7.11754e-06
6.68828e-06
6.64083e-06
6.70453e-06
6.95495e-06
7.46081e-06
7.99222e-06
8.57055e-06
9.1817e-06
9.87428e-06
1.06066e-05
1.14344e-05
1.23255e-05
1.33014e-05
1.43784e-05
1.55326e-05
1.6806e-05
1.81667e-05
1.96519e-05
2.12267e-05
2.29308e-05
2.47116e-05
2.66166e-05
2.85684e-05
3.05999e-05
3.26747e-05
3.46822e-05
3.67334e-05
3.85677e-05
4.02689e-05
4.185e-05
4.29124e-05
4.37195e-05
4.39514e-05
4.38073e-05
4.32348e-05
4.19101e-05
3.98309e-05
3.73596e-05
3.42059e-05
3.08913e-05
2.61131e-05
2.04632e-05
1.29063e-05
5.07679e-06
8.02049e-07
2.07619e-05
2.0941e-05
2.10848e-05
2.11611e-05
2.1189e-05
2.12785e-05
2.148e-05
2.15734e-05
2.15968e-05
2.16215e-05
2.17011e-05
2.17785e-05
2.17338e-05
2.14533e-05
2.12767e-05
2.12681e-05
2.13821e-05
2.18879e-05
2.23005e-05
2.24372e-05
2.25322e-05
2.25775e-05
2.25484e-05
2.25827e-05
2.2996e-05
2.35807e-05
2.3775e-05
2.37702e-05
2.36029e-05
2.30396e-05
2.24194e-05
2.20816e-05
2.20273e-05
2.21227e-05
2.25323e-05
2.27893e-05
2.28116e-05
2.277e-05
2.273e-05
2.27341e-05
2.28091e-05
2.32494e-05
2.52404e-05
3.15668e-05
3.7538e-05
4.04112e-05
4.10473e-05
4.06767e-05
3.77686e-05
2.76688e-05
1.70681e-05
1.0066e-05
5.78582e-06
3.36497e-06
2.09969e-06
1.49772e-06
1.25545e-06
1.19711e-06
1.20267e-06
1.24405e-06
1.3544e-06
1.48907e-06
1.62761e-06
1.78633e-06
1.95692e-06
2.15317e-06
2.37008e-06
2.61192e-06
2.8858e-06
3.18692e-06
3.52568e-06
3.89971e-06
4.3165e-06
4.77207e-06
5.279e-06
5.82482e-06
6.42609e-06
7.06616e-06
7.75043e-06
8.48155e-06
9.21972e-06
1.00007e-05
1.07576e-05
1.14886e-05
1.22134e-05
1.28217e-05
1.33511e-05
1.37101e-05
1.39295e-05
1.393e-05
1.38053e-05
1.342e-05
1.28007e-05
1.20003e-05
1.1185e-05
9.89807e-06
8.07423e-06
5.22678e-06
2.06245e-06
3.2491e-07
2.05693e-05
2.09765e-05
2.11628e-05
2.12549e-05
2.12525e-05
2.12279e-05
2.11745e-05
2.11311e-05
2.11134e-05
2.11134e-05
2.11304e-05
2.11941e-05
2.12225e-05
2.12215e-05
2.1221e-05
2.12268e-05
2.1274e-05
2.15243e-05
2.21357e-05
2.24384e-05
2.24465e-05
2.22136e-05
2.1868e-05
2.1807e-05
2.18516e-05
2.19367e-05
2.19211e-05
2.18032e-05
2.16943e-05
2.16867e-05
2.17253e-05
2.18902e-05
2.24799e-05
2.33045e-05
2.37626e-05
2.39834e-05
2.42082e-05
2.45003e-05
2.4744e-05
2.48845e-05
2.50693e-05
2.55945e-05
2.76818e-05
3.39636e-05
3.93256e-05
4.1718e-05
4.21415e-05
4.16463e-05
3.82702e-05
2.73011e-05
1.64753e-05
9.35468e-06
5.02401e-06
2.58282e-06
1.30051e-06
6.71907e-07
3.8621e-07
2.6951e-07
2.33047e-07
2.29982e-07
2.36135e-07
2.58148e-07
2.90532e-07
3.26243e-07
3.64649e-07
4.09383e-07
4.60133e-07
5.17616e-07
5.84412e-07
6.59698e-07
7.46045e-07
8.4428e-07
9.56302e-07
1.08199e-06
1.22583e-06
1.38529e-06
1.56555e-06
1.76435e-06
1.98261e-06
2.22443e-06
2.47813e-06
2.7544e-06
3.03779e-06
3.32254e-06
3.61552e-06
3.8891e-06
4.1427e-06
4.35146e-06
4.51586e-06
4.61407e-06
4.64099e-06
4.607e-06
4.49813e-06
4.32441e-06
4.14913e-06
3.83915e-06
3.27634e-06
2.16075e-06
8.498e-07
1.33189e-07
2.11269e-05
2.10614e-05
2.11405e-05
2.16078e-05
2.19471e-05
2.19582e-05
2.17967e-05
2.14478e-05
2.12238e-05
2.11205e-05
2.10945e-05
2.11055e-05
2.11999e-05
2.14078e-05
2.1509e-05
2.15456e-05
2.15965e-05
2.17613e-05
2.22798e-05
2.26477e-05
2.2667e-05
2.24703e-05
2.18669e-05
2.14652e-05
2.12926e-05
2.12329e-05
2.12239e-05
2.12389e-05
2.1351e-05
2.1581e-05
2.18417e-05
2.23946e-05
2.30997e-05
2.36381e-05
2.39188e-05
2.40562e-05
2.42286e-05
2.45143e-05
2.48409e-05
2.51431e-05
2.55644e-05
2.64735e-05
2.9223e-05
3.54707e-05
4.01465e-05
4.22434e-05
4.25774e-05
4.20438e-05
3.85471e-05
2.73722e-05
1.64754e-05
9.30864e-06
4.94348e-06
2.47892e-06
1.18189e-06
5.42537e-07
2.46722e-07
1.18612e-07
6.75592e-08
5.02418e-08
4.70824e-08
4.79972e-08
5.20263e-08
6.03382e-08
6.90713e-08
7.91585e-08
9.08566e-08
1.04278e-07
1.2026e-07
1.38726e-07
1.60289e-07
1.85517e-07
2.14982e-07
2.48826e-07
2.88608e-07
3.33992e-07
3.86509e-07
4.46338e-07
5.13753e-07
5.90842e-07
6.74488e-07
7.68157e-07
8.68265e-07
9.73075e-07
1.08353e-06
1.19424e-06
1.30134e-06
1.39827e-06
1.48338e-06
1.54698e-06
1.58931e-06
1.60589e-06
1.59897e-06
1.58177e-06
1.55908e-06
1.50124e-06
1.34132e-06
9.20447e-07
3.55977e-07
5.53229e-08
2.08352e-05
2.11265e-05
2.12276e-05
2.13116e-05
2.13074e-05
2.12242e-05
2.11885e-05
2.12175e-05
2.12895e-05
2.12958e-05
2.12392e-05
2.11661e-05
2.11533e-05
2.11635e-05
2.12267e-05
2.13375e-05
2.13925e-05
2.14535e-05
2.15955e-05
2.20619e-05
2.30365e-05
2.34364e-05
2.34069e-05
2.302e-05
2.21134e-05
2.15896e-05
2.14339e-05
2.14499e-05
2.16799e-05
2.23567e-05
2.27702e-05
2.28844e-05
2.28893e-05
2.28394e-05
2.28069e-05
2.28281e-05
2.2974e-05
2.34744e-05
2.39718e-05
2.4293e-05
2.47078e-05
2.56306e-05
2.84971e-05
3.48319e-05
3.9486e-05
4.158e-05
4.19234e-05
4.14057e-05
3.79818e-05
2.70018e-05
1.62432e-05
9.15299e-06
4.84416e-06
2.41759e-06
1.14153e-06
5.12102e-07
2.19806e-07
9.18163e-08
3.90486e-08
1.87832e-08
1.18695e-08
1.02701e-08
1.03526e-08
1.11825e-08
1.31876e-08
1.55264e-08
1.82287e-08
2.13451e-08
2.51381e-08
2.96328e-08
3.49678e-08
4.13787e-08
4.90522e-08
5.80569e-08
6.8912e-08
8.16581e-08
9.67224e-08
1.14418e-07
1.34859e-07
1.5895e-07
1.85852e-07
2.16903e-07
2.51083e-07
2.88478e-07
3.28536e-07
3.71061e-07
4.13578e-07
4.5452e-07
4.93232e-07
5.24769e-07
5.51051e-07
5.68434e-07
5.75535e-07
5.86112e-07
5.99172e-07
5.92892e-07
5.51756e-07
3.97722e-07
1.51231e-07
2.32675e-08
2.0252e-05
2.06094e-05
2.08132e-05
2.08914e-05
2.09894e-05
2.12515e-05
2.15159e-05
2.15853e-05
2.15436e-05
2.13274e-05
2.11787e-05
2.11518e-05
2.11579e-05
2.11833e-05
2.125e-05
2.13548e-05
2.13844e-05
2.13451e-05
2.13322e-05
2.14565e-05
2.1959e-05
2.22688e-05
2.22982e-05
2.22156e-05
2.18357e-05
2.1466e-05
2.13701e-05
2.13969e-05
2.16131e-05
2.20414e-05
2.22295e-05
2.22474e-05
2.21559e-05
2.19187e-05
2.18521e-05
2.18948e-05
2.21532e-05
2.2428e-05
2.25366e-05
2.2638e-05
2.28754e-05
2.36353e-05
2.64531e-05
3.33421e-05
3.85941e-05
4.10179e-05
4.14735e-05
4.10083e-05
3.77471e-05
2.69941e-05
1.62384e-05
9.15858e-06
4.85119e-06
2.42196e-06
1.14341e-06
5.11957e-07
2.17911e-07
8.85023e-08
3.4614e-08
1.34491e-08
5.65496e-09
3.04882e-09
2.38315e-09
2.36622e-09
2.54216e-09
3.04651e-09
3.69907e-09
4.42706e-09
5.32461e-09
6.41583e-09
7.73016e-09
9.35097e-09
1.13414e-08
1.37254e-08
1.66687e-08
2.02298e-08
2.45218e-08
2.97182e-08
3.58624e-08
4.33331e-08
5.18767e-08
6.20818e-08
7.35459e-08
8.66994e-08
1.00945e-07
1.16867e-07
1.33234e-07
1.49725e-07
1.66311e-07
1.8042e-07
1.93687e-07
2.04134e-07
2.10037e-07
2.19745e-07
2.34406e-07
2.38026e-07
2.28082e-07
1.7269e-07
6.49261e-08
9.89362e-09
2.07179e-05
2.08779e-05
2.1007e-05
2.1005e-05
2.10294e-05
2.11717e-05
2.15581e-05
2.17634e-05
2.17501e-05
2.16031e-05
2.15253e-05
2.15241e-05
2.15732e-05
2.16381e-05
2.17326e-05
2.20152e-05
2.23776e-05
2.24358e-05
2.23134e-05
2.20997e-05
2.20751e-05
2.21225e-05
2.2251e-05
2.22683e-05
2.2186e-05
2.18045e-05
2.14823e-05
2.14135e-05
2.14195e-05
2.14658e-05
2.16159e-05
2.17418e-05
2.17733e-05
2.17733e-05
2.18253e-05
2.21149e-05
2.24089e-05
2.24509e-05
2.23982e-05
2.2375e-05
2.24546e-05
2.29891e-05
2.5423e-05
3.26892e-05
3.8811e-05
4.15746e-05
4.21134e-05
4.16628e-05
3.84216e-05
2.75754e-05
1.65846e-05
9.35546e-06
4.95731e-06
2.47573e-06
1.16876e-06
5.22863e-07
2.22212e-07
8.99687e-08
3.48804e-08
1.29895e-08
4.72058e-09
1.7913e-09
8.39254e-10
5.88583e-10
5.70527e-10
6.12211e-10
7.4602e-10
9.26077e-10
1.13979e-09
1.40474e-09
1.72754e-09
2.13571e-09
2.65056e-09
3.27971e-09
4.07383e-09
5.06564e-09
6.28246e-09
7.80219e-09
9.63631e-09
1.19444e-08
1.46316e-08
1.79719e-08
2.17694e-08
2.63571e-08
3.13599e-08
3.7231e-08
4.34218e-08
4.9877e-08
5.676e-08
6.27533e-08
6.88835e-08
7.4239e-08
7.75987e-08
8.32151e-08
9.27381e-08
9.72008e-08
9.50184e-08
7.50173e-08
2.82797e-08
4.24878e-09
2.12374e-05
2.15824e-05
2.13945e-05
2.11158e-05
2.11348e-05
2.13522e-05
2.15347e-05
2.16266e-05
2.16913e-05
2.18246e-05
2.21322e-05
2.22103e-05
2.21385e-05
2.19584e-05
2.19348e-05
2.19919e-05
2.20168e-05
2.19574e-05
2.18475e-05
2.18445e-05
2.19734e-05
2.2506e-05
2.28858e-05
2.29207e-05
2.27532e-05
2.215e-05
2.17071e-05
2.15178e-05
2.14677e-05
2.1467e-05
2.14851e-05
2.15156e-05
2.15393e-05
2.1585e-05
2.172e-05
2.20442e-05
2.22305e-05
2.22459e-05
2.22268e-05
2.22303e-05
2.23218e-05
2.28472e-05
2.51723e-05
3.26577e-05
3.98457e-05
4.33243e-05
4.41256e-05
4.37622e-05
4.07587e-05
2.98949e-05
1.79972e-05
1.01566e-05
5.38481e-06
2.69071e-06
1.2707e-06
5.68397e-07
2.41293e-07
9.73666e-08
3.73646e-08
1.37119e-08
4.86729e-09
1.68322e-09
5.90795e-10
2.46281e-10
1.54818e-10
1.45436e-10
1.56426e-10
1.92459e-10
2.4592e-10
3.10756e-10
3.89885e-10
4.92294e-10
6.25155e-10
7.90823e-10
1.0041e-09
1.27982e-09
1.62326e-09
2.06686e-09
2.61083e-09
3.32309e-09
4.16118e-09
5.25308e-09
6.49875e-09
8.09083e-09
9.83292e-09
1.19758e-08
1.42946e-08
1.67736e-08
1.95775e-08
2.20492e-08
2.47498e-08
2.72991e-08
2.89902e-08
3.17897e-08
3.70298e-08
4.02133e-08
3.99117e-08
3.26123e-08
1.24769e-08
1.84207e-09
2.0696e-05
2.09157e-05
2.09901e-05
2.10614e-05
2.10862e-05
2.11045e-05
2.11618e-05
2.13212e-05
2.14428e-05
2.14926e-05
2.15319e-05
2.16171e-05
2.1804e-05
2.1958e-05
2.20208e-05
2.20292e-05
2.20271e-05
2.2005e-05
2.19049e-05
2.18233e-05
2.18247e-05
2.1931e-05
2.22997e-05
2.24798e-05
2.24484e-05
2.2185e-05
2.1854e-05
2.17127e-05
2.16326e-05
2.14846e-05
2.1328e-05
2.12497e-05
2.12313e-05
2.12381e-05
2.13045e-05
2.15209e-05
2.16304e-05
2.16473e-05
2.16791e-05
2.17508e-05
2.19479e-05
2.26313e-05
2.52473e-05
3.31446e-05
4.04427e-05
4.40756e-05
4.4989e-05
4.46986e-05
4.19905e-05
3.1545e-05
1.91322e-05
1.08611e-05
5.79159e-06
2.91021e-06
1.382e-06
6.21676e-07
2.65414e-07
1.07706e-07
4.16055e-08
1.53078e-08
5.35801e-09
1.79969e-09
5.91887e-10
1.95252e-10
7.44997e-11
4.29271e-11
3.92793e-11
4.23292e-11
5.28273e-11
6.96407e-11
8.91021e-11
1.14673e-10
1.48846e-10
1.92391e-10
2.49381e-10
3.25973e-10
4.22433e-10
5.51908e-10
7.12096e-10
9.32097e-10
1.19126e-09
1.54842e-09
1.95347e-09
2.5044e-09
3.10732e-09
3.88369e-09
4.74765e-09
5.68652e-09
6.81596e-09
7.81735e-09
8.97246e-09
1.0137e-08
1.09414e-08
1.22395e-08
1.49028e-08
1.68137e-08
1.6909e-08
1.42132e-08
5.5514e-09
8.05578e-10
2.03966e-05
2.07479e-05
2.12284e-05
2.14907e-05
2.15308e-05
2.14575e-05
2.14334e-05
2.14908e-05
2.1891e-05
2.29261e-05
2.32354e-05
2.31324e-05
2.26259e-05
2.2265e-05
2.21681e-05
2.21323e-05
2.21108e-05
2.20615e-05
2.18863e-05
2.16937e-05
2.16333e-05
2.16538e-05
2.18081e-05
2.19368e-05
2.19362e-05
2.1861e-05
2.18474e-05
2.19049e-05
2.19047e-05
2.17834e-05
2.14655e-05
2.12902e-05
2.1257e-05
2.12948e-05
2.15222e-05
2.17596e-05
2.17877e-05
2.17261e-05
2.16459e-05
2.16502e-05
2.17654e-05
2.2385e-05
2.50251e-05
3.3033e-05
4.03881e-05
4.40656e-05
4.50103e-05
4.47455e-05
4.21646e-05
3.19979e-05
1.95194e-05
1.11398e-05
5.97198e-06
3.01701e-06
1.44048e-06
6.51553e-07
2.79728e-07
1.1417e-07
4.43607e-08
1.6426e-08
5.80162e-09
1.95688e-09
6.30498e-10
1.98324e-10
6.24967e-11
2.26314e-11
1.25402e-11
1.13725e-11
1.23448e-11
1.58017e-11
2.09326e-11
2.73279e-11
3.60361e-11
4.74378e-11
6.25556e-11
8.38364e-11
1.10757e-10
1.48627e-10
1.95386e-10
2.63551e-10
3.42903e-10
4.60015e-10
5.90553e-10
7.80927e-10
9.88621e-10
1.26817e-09
1.58942e-09
1.94104e-09
2.39275e-09
2.79406e-09
3.27841e-09
3.79707e-09
4.16818e-09
4.7523e-09
6.03383e-09
7.08626e-09
7.23515e-09
6.21343e-09
2.4838e-09
3.55077e-10
2.07513e-05
2.14369e-05
2.15217e-05
2.13426e-05
2.10406e-05
2.0936e-05
2.09341e-05
2.09775e-05
2.11669e-05
2.13655e-05
2.14081e-05
2.14234e-05
2.14242e-05
2.14295e-05
2.14847e-05
2.17093e-05
2.19317e-05
2.19851e-05
2.19702e-05
2.18993e-05
2.18747e-05
2.19136e-05
2.20955e-05
2.21732e-05
2.21484e-05
2.21172e-05
2.21766e-05
2.24508e-05
2.25588e-05
2.25134e-05
2.22201e-05
2.1775e-05
2.16327e-05
2.16527e-05
2.18777e-05
2.22448e-05
2.2316e-05
2.22475e-05
2.20169e-05
2.19434e-05
2.19995e-05
2.24734e-05
2.46965e-05
3.21209e-05
3.95931e-05
4.34005e-05
4.44389e-05
4.42193e-05
4.18002e-05
3.19901e-05
1.95607e-05
1.11884e-05
6.01506e-06
3.04889e-06
1.46118e-06
6.63651e-07
2.86255e-07
1.17417e-07
4.58622e-08
1.70773e-08
6.06852e-09
2.06021e-09
6.69086e-10
2.08166e-10
6.32371e-11
1.94458e-11
7.05576e-12
4.04648e-12
3.74616e-12
4.11544e-12
5.2966e-12
6.9955e-12
9.2364e-12
1.21735e-11
1.61019e-11
2.20007e-11
2.94406e-11
4.05716e-11
5.40562e-11
7.53086e-11
9.92929e-11
1.37864e-10
1.79502e-10
2.45259e-10
3.16537e-10
4.16598e-10
5.36067e-10
6.66429e-10
8.46241e-10
1.00601e-09
1.20622e-09
1.43349e-09
1.60144e-09
1.86011e-09
2.45611e-09
3.00774e-09
3.12205e-09
2.7279e-09
1.11654e-09
1.57653e-10
2.08905e-05
2.08923e-05
2.10542e-05
2.15121e-05
2.20538e-05
2.21324e-05
2.2055e-05
2.17394e-05
2.13357e-05
2.118e-05
2.11887e-05
2.13705e-05
2.16077e-05
2.16704e-05
2.17042e-05
2.17995e-05
2.21928e-05
2.25943e-05
2.26545e-05
2.25552e-05
2.21234e-05
2.18156e-05
2.17617e-05
2.17975e-05
2.20219e-05
2.27743e-05
2.34755e-05
2.37402e-05
2.37291e-05
2.34582e-05
2.27866e-05
2.24589e-05
2.23924e-05
2.2404e-05
2.25088e-05
2.25894e-05
2.25786e-05
2.24279e-05
2.21893e-05
2.21415e-05
2.21979e-05
2.26417e-05
2.47118e-05
3.11498e-05
3.74326e-05
4.08391e-05
4.18783e-05
4.17543e-05
3.98228e-05
3.12231e-05
1.92108e-05
1.10308e-05
5.95188e-06
3.02696e-06
1.45506e-06
6.62699e-07
2.86557e-07
1.17886e-07
4.62003e-08
1.72696e-08
6.16401e-09
2.10335e-09
6.87201e-10
2.15568e-10
6.52112e-11
1.94803e-11
6.14585e-12
2.50908e-12
1.68229e-12
1.63289e-12
1.79354e-12
2.24766e-12
2.85745e-12
3.63858e-12
4.61279e-12
6.2002e-12
8.18789e-12
1.14708e-11
1.52939e-11
2.19778e-11
2.91037e-11
4.18993e-11
5.50008e-11
7.77254e-11
1.02099e-10
1.37681e-10
1.82177e-10
2.30006e-10
3.01337e-10
3.64681e-10
4.46547e-10
5.45034e-10
6.201e-10
7.33629e-10
1.00469e-09
1.28478e-09
1.35735e-09
1.2034e-09
5.04165e-10
7.0482e-11
2.09554e-05
2.1759e-05
2.19297e-05
2.19995e-05
2.20175e-05
2.17693e-05
2.12828e-05
2.10797e-05
2.10537e-05
2.10986e-05
2.13457e-05
2.1758e-05
2.19829e-05
2.20335e-05
2.20169e-05
2.20223e-05
2.21852e-05
2.24499e-05
2.25001e-05
2.24213e-05
2.20052e-05
2.15868e-05
2.1467e-05
2.14832e-05
2.16905e-05
2.23643e-05
2.28393e-05
2.29363e-05
2.2874e-05
2.25441e-05
2.22711e-05
2.2238e-05
2.23734e-05
2.29176e-05
2.32667e-05
2.33199e-05
2.32482e-05
2.28485e-05
2.24813e-05
2.24082e-05
2.24512e-05
2.28675e-05
2.49364e-05
3.10682e-05
3.62905e-05
3.8834e-05
3.94457e-05
3.91759e-05
3.68734e-05
2.81424e-05
1.74466e-05
1.01251e-05
5.5221e-06
2.83866e-06
1.37914e-06
6.34597e-07
2.76886e-07
1.14767e-07
4.52687e-08
1.70166e-08
6.10413e-09
2.09242e-09
6.86572e-10
2.16326e-10
6.58652e-11
1.96883e-11
6.09598e-12
2.26766e-12
1.28458e-12
1.09902e-12
1.10976e-12
1.22318e-12
1.41764e-12
1.6402e-12
1.88017e-12
2.29372e-12
2.74611e-12
3.67123e-12
4.68688e-12
6.80073e-12
8.87504e-12
1.31401e-11
1.71928e-11
2.50655e-11
3.3362e-11
4.59013e-11
6.2508e-11
7.98245e-11
1.08026e-10
1.33059e-10
1.66227e-10
2.08576e-10
2.41851e-10
2.9143e-10
4.12843e-10
5.52027e-10
5.94197e-10
5.33562e-10
2.2868e-10
3.17218e-11
2.13278e-05
2.12224e-05
2.12269e-05
2.12249e-05
2.12181e-05
2.11898e-05
2.12062e-05
2.12951e-05
2.134e-05
2.13834e-05
2.14945e-05
2.18087e-05
2.25992e-05
2.31907e-05
2.3302e-05
2.31925e-05
2.28606e-05
2.27218e-05
2.26172e-05
2.23489e-05
2.18955e-05
2.16248e-05
2.15744e-05
2.1637e-05
2.20592e-05
2.25833e-05
2.27049e-05
2.26463e-05
2.23086e-05
2.19577e-05
2.18753e-05
2.19215e-05
2.22862e-05
2.29817e-05
2.33292e-05
2.34264e-05
2.34198e-05
2.33075e-05
2.31644e-05
2.31403e-05
2.31697e-05
2.35155e-05
2.5394e-05
3.11848e-05
3.6118e-05
3.83499e-05
3.87811e-05
3.83857e-05
3.55776e-05
2.60189e-05
1.5957e-05
9.19941e-06
4.99224e-06
2.55777e-06
1.24053e-06
5.7092e-07
2.49954e-07
1.04207e-07
4.14129e-08
1.57036e-08
5.68757e-09
1.96986e-09
6.53524e-10
2.08222e-10
6.40858e-11
1.93624e-11
6.04237e-12
2.25756e-12
1.26057e-12
1.04936e-12
1.03784e-12
1.09345e-12
1.19813e-12
1.28627e-12
1.36481e-12
1.46363e-12
1.54554e-12
1.71416e-12
1.95229e-12
2.50413e-12
3.1141e-12
4.47189e-12
5.75848e-12
8.41638e-12
1.12527e-11
1.56033e-11
2.18187e-11
2.79359e-11
3.90413e-11
4.88844e-11
6.21975e-11
8.02967e-11
9.49616e-11
1.16558e-10
1.70356e-10
2.38491e-10
2.61797e-10
2.37796e-10
1.04211e-10
1.43713e-11
2.0922e-05
2.11933e-05
2.12464e-05
2.13897e-05
2.14157e-05
2.12971e-05
2.11005e-05
2.10832e-05
2.11596e-05
2.1332e-05
2.15011e-05
2.16576e-05
2.1826e-05
2.20883e-05
2.23213e-05
2.24065e-05
2.24016e-05
2.23243e-05
2.20145e-05
2.16006e-05
2.13778e-05
2.13112e-05
2.13171e-05
2.1429e-05
2.20076e-05
2.27943e-05
2.30539e-05
2.3046e-05
2.28316e-05
2.24146e-05
2.22716e-05
2.22904e-05
2.25144e-05
2.2918e-05
2.31329e-05
2.32144e-05
2.32207e-05
2.31739e-05
2.31077e-05
2.31094e-05
2.31715e-05
2.3592e-05
2.55239e-05
3.12946e-05
3.6179e-05
3.83828e-05
3.87943e-05
3.8379e-05
3.54554e-05
2.5683e-05
1.56754e-05
8.99792e-06
4.86356e-06
2.48312e-06
1.2007e-06
5.51105e-07
2.40557e-07
1.00017e-07
3.96631e-08
1.50204e-08
5.43858e-09
1.88541e-09
6.27058e-10
2.00754e-10
6.22992e-11
1.907e-11
6.0545e-12
2.30027e-12
1.30332e-12
1.08817e-12
1.07421e-12
1.12585e-12
1.22118e-12
1.29344e-12
1.35439e-12
1.39817e-12
1.40622e-12
1.41016e-12
1.40566e-12
1.45267e-12
1.57348e-12
1.90375e-12
2.30918e-12
3.1814e-12
4.13925e-12
5.60728e-12
7.90589e-12
1.00083e-11
1.42888e-11
1.81148e-11
2.34003e-11
3.1086e-11
3.75217e-11
4.69205e-11
7.05685e-11
1.03571e-10
1.16055e-10
1.0654e-10
4.77216e-11
6.55391e-12
2.05692e-05
2.12357e-05
2.14201e-05
2.13566e-05
2.12325e-05
2.11437e-05
2.10597e-05
2.10572e-05
2.11531e-05
2.1449e-05
2.16772e-05
2.17611e-05
2.17682e-05
2.17655e-05
2.17911e-05
2.19718e-05
2.2237e-05
2.22878e-05
2.22291e-05
2.19206e-05
2.15723e-05
2.14271e-05
2.14004e-05
2.14291e-05
2.16453e-05
2.23674e-05
2.29014e-05
2.30607e-05
2.30668e-05
2.30343e-05
2.29003e-05
2.26928e-05
2.254e-05
2.23896e-05
2.23138e-05
2.23157e-05
2.23804e-05
2.25716e-05
2.26935e-05
2.2785e-05
2.29675e-05
2.35166e-05
2.56068e-05
3.14858e-05
3.63895e-05
3.86396e-05
3.90646e-05
3.86478e-05
3.57248e-05
2.59076e-05
1.5794e-05
9.05564e-06
4.89017e-06
2.49493e-06
1.2058e-06
5.53269e-07
2.41456e-07
1.00383e-07
3.98094e-08
1.50784e-08
5.46145e-09
1.89442e-09
6.30623e-10
2.0218e-10
6.28829e-11
1.93183e-11
6.19681e-12
2.42639e-12
1.42501e-12
1.21982e-12
1.21451e-12
1.25565e-12
1.36687e-12
1.4276e-12
1.46531e-12
1.48058e-12
1.47447e-12
1.45334e-12
1.40392e-12
1.33775e-12
1.25602e-12
1.27315e-12
1.34615e-12
1.5588e-12
1.86911e-12
2.33998e-12
3.1304e-12
3.84292e-12
5.37431e-12
6.82402e-12
8.86307e-12
1.21049e-11
1.49154e-11
1.90045e-11
2.93358e-11
4.5203e-11
5.17542e-11
4.79887e-11
2.19655e-11
3.00892e-12
2.10519e-05
2.10578e-05
2.10872e-05
2.12766e-05
2.14067e-05
2.15077e-05
2.15651e-05
2.16385e-05
2.17563e-05
2.19145e-05
2.19987e-05
2.19975e-05
2.1932e-05
2.18367e-05
2.17964e-05
2.17417e-05
2.16503e-05
2.15556e-05
2.14537e-05
2.13415e-05
2.12864e-05
2.12914e-05
2.13436e-05
2.13876e-05
2.14504e-05
2.15975e-05
2.20079e-05
2.24815e-05
2.27585e-05
2.28689e-05
2.28858e-05
2.28831e-05
2.28286e-05
2.26189e-05
2.22969e-05
2.20712e-05
2.20089e-05
2.2022e-05
2.20737e-05
2.21917e-05
2.24538e-05
2.31521e-05
2.54817e-05
3.15189e-05
3.63872e-05
3.86802e-05
3.91471e-05
3.87836e-05
3.6096e-05
2.65858e-05
1.62354e-05
9.31467e-06
5.03097e-06
2.56652e-06
1.24016e-06
5.68926e-07
2.48253e-07
1.03201e-07
4.09278e-08
1.55058e-08
5.61917e-09
1.95077e-09
6.50212e-10
2.08868e-10
6.51657e-11
2.01395e-11
6.55597e-12
2.63643e-12
1.60918e-12
1.40151e-12
1.40348e-12
1.53379e-12
1.62682e-12
1.74454e-12
1.80609e-12
1.79732e-12
1.76659e-12
1.70011e-12
1.58232e-12
1.44295e-12
1.29349e-12
1.19683e-12
1.13397e-12
1.13642e-12
1.18533e-12
1.2969e-12
1.51866e-12
1.72667e-12
2.17366e-12
2.68533e-12
3.40864e-12
4.74451e-12
5.9586e-12
7.74029e-12
1.22368e-11
1.98248e-11
2.32148e-11
2.17336e-11
1.01649e-11
1.39098e-12
2.1105e-05
2.16527e-05
2.18384e-05
2.18146e-05
2.15928e-05
2.13932e-05
2.13744e-05
2.14851e-05
2.18302e-05
2.19171e-05
2.18312e-05
2.15649e-05
2.14992e-05
2.15478e-05
2.18001e-05
2.19493e-05
2.1934e-05
2.17905e-05
2.15711e-05
2.14591e-05
2.144e-05
2.14831e-05
2.16134e-05
2.16765e-05
2.16983e-05
2.17364e-05
2.17737e-05
2.18039e-05
2.18635e-05
2.19922e-05
2.23564e-05
2.28435e-05
2.3099e-05
2.31166e-05
2.29929e-05
2.25225e-05
2.20375e-05
2.18233e-05
2.17798e-05
2.17967e-05
2.19293e-05
2.25245e-05
2.48959e-05
3.11012e-05
3.60897e-05
3.84716e-05
3.89851e-05
3.86519e-05
3.60955e-05
2.68749e-05
1.64941e-05
9.50839e-06
5.16044e-06
2.64525e-06
1.28439e-06
5.92081e-07
2.5962e-07
1.08458e-07
4.32265e-08
1.64551e-08
5.99092e-09
2.08946e-09
6.99776e-10
2.25967e-10
7.09506e-11
2.21189e-11
7.2709e-12
2.94213e-12
1.79989e-12
1.59182e-12
1.5972e-12
1.73337e-12
1.99126e-12
2.07332e-12
2.23329e-12
2.28478e-12
2.27973e-12
2.24099e-12
2.12504e-12
1.8834e-12
1.55222e-12
1.3037e-12
1.14783e-12
1.07106e-12
1.01961e-12
1.00082e-12
1.01339e-12
1.00826e-12
1.0596e-12
1.17317e-12
1.38831e-12
1.86218e-12
2.38964e-12
3.16944e-12
5.12033e-12
8.73617e-12
1.0474e-11
9.89782e-12
4.73063e-12
6.47736e-13
2.09107e-05
2.12736e-05
2.13917e-05
2.12706e-05
2.10221e-05
2.09901e-05
2.10831e-05
2.12902e-05
2.13395e-05
2.13205e-05
2.13081e-05
2.13332e-05
2.14542e-05
2.17411e-05
2.19121e-05
2.20427e-05
2.23083e-05
2.25774e-05
2.26941e-05
2.2698e-05
2.26621e-05
2.26263e-05
2.26093e-05
2.25778e-05
2.25008e-05
2.22502e-05
2.19479e-05
2.18059e-05
2.17791e-05
2.18182e-05
2.20837e-05
2.2715e-05
2.30169e-05
2.30396e-05
2.29352e-05
2.24706e-05
2.19222e-05
2.1648e-05
2.15657e-05
2.15697e-05
2.16795e-05
2.22634e-05
2.47013e-05
3.07331e-05
3.53908e-05
3.76927e-05
3.8232e-05
3.79591e-05
3.56538e-05
2.68492e-05
1.65041e-05
9.53323e-06
5.18845e-06
2.66856e-06
1.30064e-06
6.02105e-07
2.65305e-07
1.11402e-07
4.46455e-08
1.70974e-08
6.2647e-09
2.19979e-09
7.42022e-10
2.41459e-10
7.64448e-11
2.40456e-11
7.9712e-12
3.26721e-12
2.0157e-12
1.7856e-12
1.83073e-12
1.98011e-12
2.27557e-12
2.5218e-12
2.63511e-12
2.87267e-12
2.86821e-12
2.84616e-12
2.78285e-12
2.64944e-12
2.33538e-12
1.72191e-12
1.32052e-12
1.11256e-12
1.01448e-12
9.46554e-13
8.85557e-13
7.91319e-13
6.9318e-13
6.21047e-13
6.41214e-13
7.58794e-13
9.69257e-13
1.30554e-12
2.14446e-12
3.86657e-12
4.75308e-12
4.53339e-12
2.21483e-12
3.0404e-13
2.06284e-05
2.08337e-05
2.09553e-05
2.09705e-05
2.0923e-05
2.08853e-05
2.09276e-05
2.11681e-05
2.1352e-05
2.13657e-05
2.13313e-05
2.13022e-05
2.13063e-05
2.13455e-05
2.14182e-05
2.15117e-05
2.17414e-05
2.21123e-05
2.23891e-05
2.25458e-05
2.26089e-05
2.26198e-05
2.26126e-05
2.25781e-05
2.24747e-05
2.22512e-05
2.20789e-05
2.19994e-05
2.19909e-05
2.20334e-05
2.22916e-05
2.26894e-05
2.28224e-05
2.28161e-05
2.27278e-05
2.23666e-05
2.18982e-05
2.16381e-05
2.15538e-05
2.15573e-05
2.16704e-05
2.22788e-05
2.48265e-05
3.08678e-05
3.52476e-05
3.72538e-05
3.7654e-05
3.73189e-05
3.48823e-05
2.61435e-05
1.61732e-05
9.39336e-06
5.1355e-06
2.65118e-06
1.29634e-06
6.01848e-07
2.65906e-07
1.12066e-07
4.50795e-08
1.73352e-08
6.38267e-09
2.25387e-09
7.65179e-10
2.50828e-10
8.00919e-11
2.54382e-11
8.54099e-12
3.54564e-12
2.2421e-12
2.00499e-12
2.03693e-12
2.33323e-12
2.55907e-12
2.97866e-12
3.17212e-12
3.33037e-12
3.66291e-12
3.64051e-12
3.56374e-12
3.36686e-12
3.17024e-12
2.74206e-12
1.87032e-12
1.32987e-12
1.07385e-12
9.58823e-13
8.74531e-13
7.52354e-13
5.97464e-13
4.44008e-13
3.49078e-13
3.5411e-13
4.09388e-13
5.4325e-13
8.97701e-13
1.71328e-12
2.16958e-12
2.08867e-12
1.04362e-12
1.44029e-13
2.0663e-05
2.10633e-05
2.10554e-05
2.0965e-05
2.09504e-05
2.09917e-05
2.12184e-05
2.14571e-05
2.15444e-05
2.15641e-05
2.15556e-05
2.14828e-05
2.13947e-05
2.13904e-05
2.1437e-05
2.15608e-05
2.15785e-05
2.15489e-05
2.15465e-05
2.15995e-05
2.18246e-05
2.203e-05
2.20806e-05
2.20782e-05
2.20883e-05
2.22122e-05
2.25314e-05
2.26325e-05
2.26026e-05
2.2463e-05
2.24269e-05
2.24477e-05
2.24705e-05
2.24695e-05
2.24552e-05
2.23848e-05
2.21337e-05
2.18355e-05
2.17241e-05
2.17236e-05
2.1839e-05
2.2496e-05
2.52854e-05
3.12153e-05
3.53504e-05
3.72328e-05
3.75712e-05
3.7189e-05
3.45578e-05
2.55129e-05
1.5767e-05
9.16575e-06
5.02136e-06
2.60104e-06
1.27731e-06
5.95993e-07
2.64697e-07
1.12066e-07
4.5283e-08
1.74905e-08