/*--------------------------------*- C++ -*----------------------------------*\
| =========                 |                                                 |
| \\      /  F ield         | OpenFOAM: The Open Source CFD Toolbox           |
|  \\    /   O peration     | Version:  4.1                                   |
|   \\  /    A nd           | Web:      www.OpenFOAM.org                      |
|    \\/     M anipulation  |                                                 |
\*---------------------------------------------------------------------------*/
FoamFile
{
    version     2.0;
    format      ascii;
    class       volScalarField;
    location    "0.1";
    object      k_0;
}
// * * * * * * * * * * * * * * * * * * * * * * * * * * * * * * * * * * * * * //

dimensions      [0 2 -2 0 0 0 0];

internalField   nonuniform List<scalar> 
43750
(
8.34619e-05
7.48443e-05
7.56687e-05
8.93467e-05
9.32789e-05
8.78815e-05
8.52797e-05
9.46391e-05
0.000167771
0.000461087
0.000678787
0.000698545
0.000602009
0.000327807
0.00019237
0.000169278
0.000193217
0.000366401
0.000956495
0.00153068
0.00179973
0.00185423
0.00183477
0.00171637
0.00134358
0.000877181
0.000501044
0.000268037
0.000164384
0.000135539
0.0001401
0.000165468
0.000166324
0.000139762
0.000120184
0.000124521
0.000185448
0.00055456
0.00157744
0.00210145
0.0021566
0.00204975
0.00181039
0.00174567
0.00178462
0.00211856
0.00342566
0.00509361
0.00619173
0.00680396
0.00707925
0.00716346
0.00716981
0.0071467
0.00706999
0.00699457
0.00693207
0.00687597
0.00682248
0.00677098
0.00671971
0.00666769
0.00661532
0.00656105
0.00650439
0.00644499
0.00638148
0.00631342
0.0062401
0.00616029
0.00607333
0.00597844
0.00587453
0.00576072
0.00563623
0.00550002
0.00535131
0.00518965
0.00501442
0.00482488
0.00462079
0.00440258
0.00417091
0.00392637
0.00366949
0.00340098
0.00312195
0.00283404
0.00253949
0.00224117
0.00194261
0.00164799
0.00136194
0.00108968
0.000835961
0.00060684
0.000404073
0.000237824
0.000104473
1.33473e-05
2.01695e-05
2.03173e-05
2.03564e-05
2.03077e-05
2.02061e-05
2.0174e-05
2.01758e-05
2.02427e-05
2.07477e-05
2.357e-05
2.80737e-05
2.9022e-05
2.80079e-05
2.4385e-05
2.27081e-05
2.27419e-05
2.44051e-05
3.32235e-05
4.90059e-05
5.56784e-05
5.78189e-05
6.06574e-05
6.22935e-05
6.18078e-05
5.74251e-05
4.58094e-05
3.68689e-05
3.17244e-05
2.91734e-05
2.82574e-05
2.81593e-05
2.83649e-05
2.86524e-05
2.86658e-05
2.87207e-05
2.92022e-05
3.17519e-05
4.22877e-05
7.63789e-05
0.000166135
0.000259333
0.000317543
0.000345287
0.00036424
0.000398096
0.000483556
0.0006735
0.000855488
0.000988703
0.00107239
0.0011201
0.00114652
0.00116075
0.00116748
0.00117432
0.00118457
0.00119874
0.00121557
0.00123411
0.00125425
0.00127551
0.00129807
0.00132152
0.00134651
0.0013717
0.00139842
0.00142519
0.00145244
0.00148004
0.00150661
0.00153389
0.00155807
0.00158332
0.00160353
0.00162372
0.0016385
0.00165012
0.00165648
0.00165511
0.00164953
0.00163708
0.00161466
0.00158325
0.00154188
0.00149028
0.00142807
0.00135477
0.00127028
0.00117517
0.00107038
0.000957264
0.000838235
0.000716011
0.000594794
0.000477968
0.000372096
0.000275166
0.000200447
7.57646e-05
1.12544e-05
2.00644e-05
2.00271e-05
1.98995e-05
1.96282e-05
1.91019e-05
1.7683e-05
1.61231e-05
1.58493e-05
1.59714e-05
1.58143e-05
1.46996e-05
1.40014e-05
1.41005e-05
1.48463e-05
1.59122e-05
1.65703e-05
1.70151e-05
1.72924e-05
1.73654e-05
1.72264e-05
1.62898e-05
1.48332e-05
1.41838e-05
1.40314e-05
1.40267e-05
1.40585e-05
1.41197e-05
1.41988e-05
1.42798e-05
1.43184e-05
1.43111e-05
1.41831e-05
1.35993e-05
1.29853e-05
1.2772e-05
1.27632e-05
1.2868e-05
1.3372e-05
1.52587e-05
1.94282e-05
2.28326e-05
2.59344e-05
3.01506e-05
3.6962e-05
4.82839e-05
6.47082e-05
8.31459e-05
9.91933e-05
0.000110926
0.000118869
0.000124223
0.000127509
0.000129741
0.000131779
0.000134622
0.000138272
0.000142675
0.000147536
0.000152827
0.000158575
0.000164721
0.000171427
0.000178503
0.000186315
0.000194401
0.000203329
0.000212619
0.00022255
0.000233131
0.000244021
0.000255812
0.000267562
0.000280318
0.00029281
0.000306
0.000318984
0.000332021
0.000344653
0.000356982
0.000368198
0.000378498
0.000387741
0.000394387
0.000400452
0.000402891
0.000402478
0.000400467
0.000395727
0.000386555
0.0003736
0.000356767
0.000335229
0.000308432
0.000274481
0.000233945
0.000184719
0.000134559
8.35819e-05
3.14864e-05
4.95349e-06
2.0773e-05
2.12016e-05
2.11995e-05
2.11031e-05
2.10948e-05
2.12153e-05
2.13678e-05
2.14092e-05
2.13987e-05
2.13294e-05
2.12801e-05
2.12822e-05
2.13665e-05
2.1761e-05
2.2154e-05
2.21973e-05
2.20809e-05
2.16469e-05
2.11058e-05
2.07393e-05
2.05276e-05
2.04562e-05
2.04563e-05
2.05091e-05
2.07489e-05
2.15493e-05
2.25807e-05
2.32081e-05
2.33812e-05
2.33203e-05
2.28613e-05
2.18075e-05
2.12423e-05
2.11246e-05
2.11426e-05
2.12114e-05
2.13759e-05
2.16005e-05
2.18016e-05
2.19184e-05
2.20335e-05
2.2373e-05
2.37253e-05
2.86717e-05
3.94771e-05
4.91502e-05
5.58453e-05
5.90574e-05
5.9592e-05
5.81394e-05
5.13303e-05
4.40346e-05
3.98338e-05
3.80742e-05
3.77807e-05
3.78973e-05
3.8401e-05
3.98156e-05
4.18107e-05
4.39025e-05
4.61129e-05
4.85233e-05
5.10525e-05
5.38632e-05
5.67778e-05
6.00111e-05
6.34024e-05
6.7047e-05
7.09679e-05
7.50583e-05
7.94887e-05
8.40483e-05
8.89458e-05
9.39415e-05
9.92106e-05
0.000104534
0.000110028
0.000115424
0.000120867
0.000126078
0.000130874
0.000135495
0.000139102
0.000142257
0.000144679
0.000145108
0.000144765
0.000143593
0.000140847
0.000135874
0.00012944
0.000121303
0.000111774
0.000100115
8.73521e-05
7.08573e-05
5.33119e-05
3.24024e-05
1.26224e-05
1.99308e-06
2.05351e-05
2.08552e-05
2.08784e-05
2.09707e-05
2.14288e-05
2.18194e-05
2.18868e-05
2.18139e-05
2.15231e-05
2.13919e-05
2.14119e-05
2.16216e-05
2.19391e-05
2.20999e-05
2.21711e-05
2.22184e-05
2.23346e-05
2.26279e-05
2.28332e-05
2.28628e-05
2.27385e-05
2.2213e-05
2.18375e-05
2.17844e-05
2.19279e-05
2.27753e-05
2.43808e-05
2.5313e-05
2.55878e-05
2.55105e-05
2.47615e-05
2.31405e-05
2.23433e-05
2.21674e-05
2.21729e-05
2.2177e-05
2.21534e-05
2.20717e-05
2.2037e-05
2.2045e-05
2.21322e-05
2.25795e-05
2.44656e-05
3.06333e-05
3.71809e-05
4.08638e-05
4.21156e-05
4.20496e-05
4.02385e-05
3.24345e-05
2.2118e-05
1.5086e-05
1.0738e-05
8.30149e-06
7.10973e-06
6.68248e-06
6.63566e-06
6.69962e-06
6.95076e-06
7.4565e-06
7.98759e-06
8.56559e-06
9.17643e-06
9.86864e-06
1.06006e-05
1.1428e-05
1.23186e-05
1.3294e-05
1.43705e-05
1.55241e-05
1.67967e-05
1.81568e-05
1.96411e-05
2.12151e-05
2.29183e-05
2.46981e-05
2.66021e-05
2.85527e-05
3.05831e-05
3.26566e-05
3.46629e-05
3.67128e-05
3.85458e-05
4.0246e-05
4.18259e-05
4.28875e-05
4.36939e-05
4.39255e-05
4.37812e-05
4.32089e-05
4.18847e-05
3.98068e-05
3.73371e-05
3.41855e-05
3.08733e-05
2.60981e-05
2.04515e-05
1.28986e-05
5.07354e-06
8.01479e-07
2.0766e-05
2.09418e-05
2.10853e-05
2.11613e-05
2.11892e-05
2.12793e-05
2.14808e-05
2.15737e-05
2.15969e-05
2.16217e-05
2.17015e-05
2.17784e-05
2.17329e-05
2.14516e-05
2.12762e-05
2.1268e-05
2.13832e-05
2.18907e-05
2.23015e-05
2.24374e-05
2.2532e-05
2.2577e-05
2.25478e-05
2.25831e-05
2.29993e-05
2.35823e-05
2.37749e-05
2.37695e-05
2.36007e-05
2.30357e-05
2.24167e-05
2.20805e-05
2.20271e-05
2.21234e-05
2.2534e-05
2.27896e-05
2.28114e-05
2.27695e-05
2.27298e-05
2.2734e-05
2.28096e-05
2.32528e-05
2.52558e-05
3.15983e-05
3.75569e-05
4.04185e-05
4.10484e-05
4.06734e-05
3.7746e-05
2.76179e-05
1.70324e-05
1.00431e-05
5.77204e-06
3.3571e-06
2.09529e-06
1.49522e-06
1.2539e-06
1.19596e-06
1.2016e-06
1.2431e-06
1.35354e-06
1.48807e-06
1.62652e-06
1.78514e-06
1.95562e-06
2.15176e-06
2.36854e-06
2.61022e-06
2.88394e-06
3.18487e-06
3.52342e-06
3.89722e-06
4.31375e-06
4.76903e-06
5.27564e-06
5.82111e-06
6.422e-06
7.06164e-06
7.74547e-06
8.47608e-06
9.21375e-06
9.99418e-06
1.07505e-05
1.1481e-05
1.22053e-05
1.28131e-05
1.3342e-05
1.37008e-05
1.39199e-05
1.39204e-05
1.37957e-05
1.34107e-05
1.27918e-05
1.19921e-05
1.11775e-05
9.89164e-06
8.06898e-06
5.22324e-06
2.06094e-06
3.24648e-07
2.0564e-05
2.09761e-05
2.11627e-05
2.12547e-05
2.12524e-05
2.12276e-05
2.11743e-05
2.1131e-05
2.11133e-05
2.11133e-05
2.11306e-05
2.11943e-05
2.12225e-05
2.12215e-05
2.1221e-05
2.12269e-05
2.12744e-05
2.15266e-05
2.21379e-05
2.24385e-05
2.24458e-05
2.22112e-05
2.18669e-05
2.18068e-05
2.18518e-05
2.19366e-05
2.19207e-05
2.18023e-05
2.16939e-05
2.16865e-05
2.17254e-05
2.18912e-05
2.24835e-05
2.33072e-05
2.37638e-05
2.39839e-05
2.4209e-05
2.4501e-05
2.47442e-05
2.48845e-05
2.50699e-05
2.5598e-05
2.76976e-05
3.39933e-05
3.93424e-05
4.17243e-05
4.21427e-05
4.16425e-05
3.82448e-05
2.72488e-05
1.64396e-05
9.33216e-06
5.01081e-06
2.57559e-06
1.29677e-06
6.70048e-07
3.85291e-07
2.69031e-07
2.32757e-07
2.29741e-07
2.35915e-07
2.5796e-07
2.90316e-07
3.25998e-07
3.64375e-07
4.09077e-07
4.59791e-07
5.17235e-07
5.83983e-07
6.59216e-07
7.45502e-07
8.43668e-07
9.55609e-07
1.08121e-06
1.22495e-06
1.38429e-06
1.56442e-06
1.76307e-06
1.98117e-06
2.2228e-06
2.47632e-06
2.75237e-06
3.03553e-06
3.32005e-06
3.61279e-06
3.88614e-06
4.13952e-06
4.3481e-06
4.51234e-06
4.61045e-06
4.63734e-06
4.60337e-06
4.49461e-06
4.32111e-06
4.14605e-06
3.83637e-06
3.27398e-06
2.15912e-06
8.49105e-07
1.3307e-07
2.11291e-05
2.10595e-05
2.11412e-05
2.16106e-05
2.1948e-05
2.19582e-05
2.17951e-05
2.14463e-05
2.1223e-05
2.11201e-05
2.10944e-05
2.11056e-05
2.12007e-05
2.14086e-05
2.15094e-05
2.15459e-05
2.15969e-05
2.17626e-05
2.22819e-05
2.26477e-05
2.2666e-05
2.24678e-05
2.18638e-05
2.14638e-05
2.1292e-05
2.12327e-05
2.12238e-05
2.1239e-05
2.13519e-05
2.15819e-05
2.18432e-05
2.23973e-05
2.31022e-05
2.36397e-05
2.39195e-05
2.40567e-05
2.42294e-05
2.45153e-05
2.48418e-05
2.5144e-05
2.55664e-05
2.6479e-05
2.92427e-05
3.54956e-05
4.01609e-05
4.22484e-05
4.2578e-05
4.20394e-05
3.85206e-05
2.73194e-05
1.64395e-05
9.28602e-06
4.93026e-06
2.47173e-06
1.17823e-06
5.40779e-07
2.45917e-07
1.18253e-07
6.73957e-08
5.01582e-08
4.7025e-08
4.79449e-08
5.19824e-08
6.02889e-08
6.90137e-08
7.90927e-08
9.07812e-08
1.04192e-07
1.20162e-07
1.38613e-07
1.60159e-07
1.85367e-07
2.14808e-07
2.48625e-07
2.88375e-07
3.33723e-07
3.86197e-07
4.45977e-07
5.13337e-07
5.90361e-07
6.73937e-07
7.67527e-07
8.67546e-07
9.72265e-07
1.08262e-06
1.19323e-06
1.30023e-06
1.39707e-06
1.48209e-06
1.54563e-06
1.58792e-06
1.60449e-06
1.59758e-06
1.58043e-06
1.5578e-06
1.50004e-06
1.34025e-06
9.19679e-07
3.55655e-07
5.52683e-08
2.08394e-05
2.11259e-05
2.12279e-05
2.13118e-05
2.13073e-05
2.12236e-05
2.11883e-05
2.12178e-05
2.12897e-05
2.12958e-05
2.12387e-05
2.11659e-05
2.11533e-05
2.11635e-05
2.12273e-05
2.13378e-05
2.13926e-05
2.14538e-05
2.15964e-05
2.20655e-05
2.30394e-05
2.34364e-05
2.34059e-05
2.30162e-05
2.21097e-05
2.1588e-05
2.14335e-05
2.14501e-05
2.16819e-05
2.23594e-05
2.2771e-05
2.28842e-05
2.28888e-05
2.28387e-05
2.28065e-05
2.28279e-05
2.29748e-05
2.34765e-05
2.3973e-05
2.42939e-05
2.47097e-05
2.56362e-05
2.85176e-05
3.48564e-05
3.94999e-05
4.15847e-05
4.19238e-05
4.1401e-05
3.79556e-05
2.69495e-05
1.62076e-05
9.13058e-06
4.83112e-06
2.41052e-06
1.13795e-06
5.10393e-07
2.19036e-07
9.14858e-08
3.89119e-08
1.87267e-08
1.18442e-08
1.02554e-08
1.03397e-08
1.11715e-08
1.31762e-08
1.55123e-08
1.82121e-08
2.13257e-08
2.51154e-08
2.96061e-08
3.49365e-08
4.13419e-08
4.90086e-08
5.80054e-08
6.8851e-08
8.15858e-08
9.66367e-08
1.14316e-07
1.34739e-07
1.58808e-07
1.85686e-07
2.16707e-07
2.50854e-07
2.88215e-07
3.28233e-07
3.70717e-07
4.1319e-07
4.54091e-07
4.92763e-07
5.24266e-07
5.50523e-07
5.67889e-07
5.74988e-07
5.85573e-07
5.98641e-07
5.92373e-07
5.51276e-07
3.97357e-07
1.51081e-07
2.32425e-08
2.02539e-05
2.06107e-05
2.08139e-05
2.08919e-05
2.09901e-05
2.1253e-05
2.15168e-05
2.15855e-05
2.15431e-05
2.13261e-05
2.11782e-05
2.11517e-05
2.11579e-05
2.11835e-05
2.12505e-05
2.13551e-05
2.13842e-05
2.13447e-05
2.13321e-05
2.14576e-05
2.19611e-05
2.22691e-05
2.22977e-05
2.22145e-05
2.18332e-05
2.14648e-05
2.13698e-05
2.1397e-05
2.16148e-05
2.20424e-05
2.22294e-05
2.22469e-05
2.21546e-05
2.19176e-05
2.18518e-05
2.1895e-05
2.21545e-05
2.24285e-05
2.25366e-05
2.26383e-05
2.28767e-05
2.36405e-05
2.64739e-05
3.33706e-05
3.86104e-05
4.10239e-05
4.14743e-05
4.10043e-05
3.77222e-05
2.69421e-05
1.62029e-05
9.13621e-06
4.83814e-06
2.41489e-06
1.13982e-06
5.10245e-07
2.17139e-07
8.81732e-08
3.44807e-08
1.33973e-08
5.63519e-09
3.04081e-09
2.37912e-09
2.36291e-09
2.53928e-09
3.04373e-09
3.69543e-09
4.42267e-09
5.31937e-09
6.40953e-09
7.72259e-09
9.3419e-09
1.13303e-08
1.37121e-08
1.66526e-08
2.02102e-08
2.44982e-08
2.96894e-08
3.58277e-08
4.32909e-08
5.1826e-08
6.20209e-08
7.34731e-08
8.66132e-08
1.00843e-07
1.1675e-07
1.33098e-07
1.49571e-07
1.66139e-07
1.80232e-07
1.93485e-07
2.03921e-07
2.09819e-07
2.19526e-07
2.34181e-07
2.37801e-07
2.27866e-07
1.72518e-07
6.48559e-08
9.88211e-09
2.07189e-05
2.08772e-05
2.1007e-05
2.1005e-05
2.10297e-05
2.1173e-05
2.15598e-05
2.17636e-05
2.17495e-05
2.1602e-05
2.15249e-05
2.1524e-05
2.15737e-05
2.16386e-05
2.17333e-05
2.20171e-05
2.23784e-05
2.24355e-05
2.2312e-05
2.2099e-05
2.20749e-05
2.21227e-05
2.2251e-05
2.2268e-05
2.21849e-05
2.18022e-05
2.14814e-05
2.14133e-05
2.14194e-05
2.1466e-05
2.16165e-05
2.1742e-05
2.17732e-05
2.17733e-05
2.18258e-05
2.21166e-05
2.24095e-05
2.24508e-05
2.23978e-05
2.23748e-05
2.24552e-05
2.29933e-05
2.54417e-05
3.27232e-05
3.88302e-05
4.15821e-05
4.21152e-05
4.16597e-05
3.83975e-05
2.7523e-05
1.65486e-05
9.33279e-06
4.94407e-06
2.46854e-06
1.16511e-06
5.21121e-07
2.21428e-07
8.96343e-08
3.47449e-08
1.29371e-08
4.70121e-09
1.78436e-09
8.36675e-10
5.87419e-10
5.69664e-10
6.11437e-10
7.45287e-10
9.251e-10
1.13858e-09
1.40325e-09
1.72571e-09
2.13346e-09
2.64778e-09
3.27627e-09
4.06958e-09
5.06035e-09
6.2759e-09
7.79402e-09
9.62623e-09
1.19318e-08
1.46161e-08
1.79529e-08
2.17461e-08
2.63288e-08
3.13259e-08
3.71904e-08
4.33739e-08
4.98217e-08
5.66965e-08
6.26825e-08
6.88061e-08
7.41553e-08
7.7512e-08
8.31258e-08
9.26426e-08
9.71018e-08
9.49212e-08
7.49364e-08
2.82463e-08
4.24346e-09
2.12438e-05
2.15832e-05
2.13929e-05
2.1115e-05
2.11347e-05
2.13534e-05
2.15354e-05
2.1627e-05
2.16917e-05
2.18256e-05
2.21328e-05
2.22098e-05
2.21373e-05
2.19575e-05
2.19346e-05
2.19919e-05
2.20164e-05
2.19565e-05
2.1847e-05
2.18443e-05
2.19745e-05
2.25086e-05
2.28863e-05
2.29202e-05
2.27512e-05
2.21468e-05
2.17056e-05
2.15172e-05
2.14676e-05
2.1467e-05
2.14852e-05
2.15157e-05
2.15393e-05
2.15852e-05
2.17209e-05
2.20455e-05
2.22308e-05
2.22458e-05
2.22266e-05
2.22302e-05
2.23225e-05
2.28514e-05
2.51903e-05
3.26956e-05
3.98691e-05
4.33342e-05
4.41282e-05
4.37602e-05
4.07367e-05
2.98405e-05
1.79586e-05
1.01323e-05
5.37062e-06
2.683e-06
1.26678e-06
5.66524e-07
2.40449e-07
9.70071e-08
3.72196e-08
1.36565e-08
4.84695e-09
1.67601e-09
5.8834e-10
2.45429e-10
1.54467e-10
1.45199e-10
1.56212e-10
1.92255e-10
2.45645e-10
3.10403e-10
3.8944e-10
4.91739e-10
6.2445e-10
7.8993e-10
1.00298e-09
1.27839e-09
1.62144e-09
2.06454e-09
2.6079e-09
3.31933e-09
4.15647e-09
5.2471e-09
6.4913e-09
8.08151e-09
9.82147e-09
1.19618e-08
1.42776e-08
1.67536e-08
1.95541e-08
2.20225e-08
2.472e-08
2.72661e-08
2.89554e-08
3.17531e-08
3.69891e-08
4.01693e-08
3.98678e-08
3.25746e-08
1.2461e-08
1.8396e-09
2.06993e-05
2.09164e-05
2.09904e-05
2.10613e-05
2.1086e-05
2.11045e-05
2.11623e-05
2.1322e-05
2.14423e-05
2.14923e-05
2.15318e-05
2.16176e-05
2.18047e-05
2.19583e-05
2.20208e-05
2.20291e-05
2.2027e-05
2.20047e-05
2.19042e-05
2.1823e-05
2.18247e-05
2.19319e-05
2.23011e-05
2.24797e-05
2.24476e-05
2.21831e-05
2.18529e-05
2.17122e-05
2.1632e-05
2.14837e-05
2.13274e-05
2.12494e-05
2.12312e-05
2.12381e-05
2.1305e-05
2.15216e-05
2.16304e-05
2.16473e-05
2.16792e-05
2.17511e-05
2.19492e-05
2.26364e-05
2.52672e-05
3.31833e-05
4.04663e-05
4.40855e-05
4.49912e-05
4.46964e-05
4.19697e-05
3.14889e-05
1.90912e-05
1.08351e-05
5.77628e-06
2.90185e-06
1.37773e-06
6.19624e-07
2.64485e-07
1.07308e-07
4.14441e-08
1.52456e-08
5.3353e-09
1.79182e-09
5.89239e-10
1.94394e-10
7.42189e-11
4.28197e-11
3.92112e-11
4.22676e-11
5.27686e-11
6.95579e-11
8.8994e-11
1.14536e-10
1.48667e-10
1.92159e-10
2.49083e-10
3.25582e-10
4.21927e-10
5.51244e-10
7.11243e-10
9.30973e-10
1.18982e-09
1.54654e-09
1.95108e-09
2.50132e-09
3.10346e-09
3.87885e-09
4.74164e-09
5.6793e-09
6.80724e-09
7.80724e-09
8.96093e-09
1.01239e-08
1.09274e-08
1.22245e-08
1.48854e-08
1.67941e-08
1.68891e-08
1.41957e-08
5.5438e-09
8.04423e-10
2.03985e-05
2.075e-05
2.12302e-05
2.149e-05
2.15287e-05
2.14565e-05
2.14334e-05
2.14914e-05
2.18948e-05
2.29294e-05
2.32351e-05
2.31308e-05
2.26226e-05
2.22636e-05
2.21674e-05
2.21319e-05
2.21104e-05
2.20609e-05
2.1885e-05
2.16929e-05
2.16331e-05
2.1654e-05
2.1809e-05
2.19369e-05
2.19359e-05
2.18605e-05
2.18474e-05
2.1905e-05
2.19044e-05
2.17822e-05
2.14641e-05
2.12898e-05
2.1257e-05
2.12951e-05
2.15235e-05
2.176e-05
2.17875e-05
2.17255e-05
2.16457e-05
2.16502e-05
2.17663e-05
2.23899e-05
2.50453e-05
3.30719e-05
4.04117e-05
4.40754e-05
4.50123e-05
4.47433e-05
4.21444e-05
3.19418e-05
1.94777e-05
1.1113e-05
5.95618e-06
3.00832e-06
1.43602e-06
6.49397e-07
2.78747e-07
1.13748e-07
4.41883e-08
1.63592e-08
5.77702e-09
1.94826e-09
6.27631e-10
1.97405e-10
6.22109e-11
2.25422e-11
1.25076e-11
1.13523e-11
1.23266e-11
1.57837e-11
2.09066e-11
2.72937e-11
3.59905e-11
4.73773e-11
6.24766e-11
8.373e-11
1.10617e-10
1.48437e-10
1.95138e-10
2.63214e-10
3.42463e-10
4.59421e-10
5.89786e-10
7.79908e-10
9.87315e-10
1.26649e-09
1.58728e-09
1.93842e-09
2.3895e-09
2.79022e-09
3.27394e-09
3.79186e-09
4.16249e-09
4.74611e-09
6.02637e-09
7.07746e-09
7.22607e-09
6.20528e-09
2.48017e-09
3.54535e-10
2.07561e-05
2.14389e-05
2.15219e-05
2.13405e-05
2.10391e-05
2.09356e-05
2.0934e-05
2.09779e-05
2.1168e-05
2.13657e-05
2.1408e-05
2.14231e-05
2.14238e-05
2.14292e-05
2.14848e-05
2.17103e-05
2.1932e-05
2.1985e-05
2.19699e-05
2.1899e-05
2.18746e-05
2.19139e-05
2.20961e-05
2.2173e-05
2.21478e-05
2.21169e-05
2.2177e-05
2.24518e-05
2.25589e-05
2.2513e-05
2.22182e-05
2.1774e-05
2.16326e-05
2.1653e-05
2.18795e-05
2.22457e-05
2.2316e-05
2.22469e-05
2.20161e-05
2.19434e-05
2.20002e-05
2.24774e-05
2.47139e-05
3.21589e-05
3.96164e-05
4.34099e-05
4.44403e-05
4.42167e-05
4.17804e-05
3.19345e-05
1.95188e-05
1.11615e-05
5.99912e-06
3.0401e-06
1.45664e-06
6.61451e-07
2.85248e-07
1.16981e-07
4.56835e-08
1.70077e-08
6.04273e-09
2.05111e-09
6.66027e-10
2.07186e-10
6.29356e-11
1.93557e-11
7.02858e-12
4.03673e-12
3.73996e-12
4.10988e-12
5.29076e-12
6.987e-12
9.22475e-12
1.21576e-11
1.6081e-11
2.19717e-11
2.94017e-11
4.05172e-11
5.39843e-11
7.52069e-11
9.9159e-11
1.37676e-10
1.79256e-10
2.44921e-10
3.16095e-10
4.16016e-10
5.35303e-10
6.65478e-10
8.45025e-10
1.00454e-09
1.20448e-09
1.43141e-09
1.59912e-09
1.85754e-09
2.45291e-09
3.00378e-09
3.11788e-09
2.72411e-09
1.11481e-09
1.57398e-10
2.08796e-05
2.08922e-05
2.10557e-05
2.15149e-05
2.20546e-05
2.21318e-05
2.20541e-05
2.17373e-05
2.13341e-05
2.11796e-05
2.11888e-05
2.13719e-05
2.16082e-05
2.16704e-05
2.17042e-05
2.18001e-05
2.2195e-05
2.2595e-05
2.26542e-05
2.2554e-05
2.2121e-05
2.18146e-05
2.17614e-05
2.17976e-05
2.20235e-05
2.27782e-05
2.34774e-05
2.37403e-05
2.37285e-05
2.34555e-05
2.27839e-05
2.24581e-05
2.23923e-05
2.24043e-05
2.25096e-05
2.25897e-05
2.25786e-05
2.24268e-05
2.21887e-05
2.21415e-05
2.21986e-05
2.26455e-05
2.47281e-05
3.11821e-05
3.74523e-05
4.08467e-05
4.18782e-05
4.17508e-05
3.98048e-05
3.117e-05
1.91695e-05
1.10041e-05
5.93603e-06
3.0182e-06
1.45053e-06
6.60497e-07
2.85547e-07
1.17447e-07
4.60198e-08
1.7199e-08
6.13774e-09
2.09404e-09
6.8405e-10
2.14549e-10
6.48962e-11
1.93866e-11
6.11874e-12
2.50111e-12
1.67942e-12
1.63092e-12
1.79186e-12
2.24575e-12
2.85452e-12
3.6344e-12
4.60725e-12
6.19228e-12
8.1772e-12
1.14552e-11
1.52732e-11
2.19471e-11
2.9063e-11
4.18397e-11
5.49218e-11
7.76132e-11
1.01949e-10
1.37479e-10
1.81904e-10
2.2966e-10
3.00881e-10
3.64119e-10
4.45866e-10
5.44198e-10
6.19153e-10
7.32558e-10
1.00331e-09
1.28299e-09
1.35543e-09
1.20164e-09
5.03341e-10
7.03619e-11
2.09614e-05
2.17615e-05
2.19304e-05
2.19997e-05
2.20173e-05
2.17665e-05
2.1281e-05
2.1079e-05
2.10534e-05
2.10987e-05
2.13472e-05
2.1759e-05
2.19829e-05
2.20329e-05
2.20164e-05
2.20221e-05
2.21863e-05
2.24502e-05
2.24996e-05
2.24199e-05
2.20021e-05
2.15853e-05
2.14666e-05
2.14833e-05
2.16923e-05
2.23673e-05
2.28399e-05
2.29357e-05
2.28727e-05
2.25417e-05
2.22701e-05
2.22378e-05
2.23746e-05
2.29203e-05
2.32676e-05
2.33201e-05
2.32476e-05
2.28464e-05
2.24805e-05
2.24081e-05
2.24517e-05
2.28711e-05
2.49531e-05
3.10972e-05
3.63068e-05
3.88399e-05
3.94458e-05
3.91723e-05
3.68535e-05
2.80912e-05
1.74082e-05
1.01001e-05
5.50713e-06
2.83031e-06
1.37478e-06
6.32458e-07
2.75898e-07
1.14337e-07
4.50905e-08
1.69466e-08
6.07798e-09
2.08312e-09
6.83414e-10
2.15301e-10
6.55462e-11
1.95929e-11
6.06837e-12
2.25989e-12
1.28235e-12
1.09819e-12
1.10916e-12
1.22282e-12
1.41698e-12
1.63915e-12
1.87876e-12
2.29158e-12
2.74324e-12
3.66681e-12
4.68096e-12
6.79154e-12
8.86274e-12
1.31212e-11
1.71677e-11
2.50282e-11
3.33109e-11
4.58312e-11
6.24097e-11
7.96985e-11
1.07854e-10
1.32844e-10
1.65961e-10
2.0824e-10
2.41462e-10
2.90982e-10
4.12248e-10
5.51219e-10
5.93308e-10
5.32736e-10
2.28287e-10
3.16649e-11
2.13319e-05
2.12205e-05
2.12269e-05
2.12249e-05
2.1218e-05
2.11897e-05
2.12063e-05
2.12956e-05
2.13403e-05
2.13837e-05
2.14952e-05
2.18108e-05
2.26025e-05
2.31917e-05
2.33014e-05
2.31909e-05
2.28587e-05
2.27208e-05
2.26158e-05
2.23464e-05
2.18934e-05
2.1624e-05
2.15743e-05
2.16376e-05
2.2062e-05
2.25844e-05
2.27046e-05
2.26453e-05
2.23061e-05
2.19565e-05
2.1875e-05
2.19218e-05
2.22893e-05
2.2984e-05
2.33301e-05
2.34266e-05
2.34197e-05
2.33068e-05
2.31641e-05
2.31402e-05
2.317e-05
2.35187e-05
2.54092e-05
3.12126e-05
3.61335e-05
3.83555e-05
3.87818e-05
3.8382e-05
3.55551e-05
2.59692e-05
1.5922e-05
9.17687e-06
4.97876e-06
2.55027e-06
1.23661e-06
5.68993e-07
2.49058e-07
1.03813e-07
4.12485e-08
1.56384e-08
5.66296e-09
1.96101e-09
6.5049e-10
2.07228e-10
6.37736e-11
1.92682e-11
6.01503e-12
2.24986e-12
1.25845e-12
1.04873e-12
1.03752e-12
1.09341e-12
1.198e-12
1.28604e-12
1.36449e-12
1.46308e-12
1.54479e-12
1.71298e-12
1.95066e-12
2.50145e-12
3.11042e-12
4.46597e-12
5.75044e-12
8.40403e-12
1.12354e-11
1.5579e-11
2.17832e-11
2.78899e-11
3.89765e-11
4.88013e-11
6.20931e-11
8.0161e-11
9.48013e-11
1.1637e-10
1.70099e-10
2.38124e-10
2.61384e-10
2.37409e-10
1.04023e-10
1.43443e-11
2.09104e-05
2.11927e-05
2.12459e-05
2.13902e-05
2.14158e-05
2.1296e-05
2.11e-05
2.10831e-05
2.11604e-05
2.13329e-05
2.15019e-05
2.16583e-05
2.18266e-05
2.20888e-05
2.23212e-05
2.24058e-05
2.24007e-05
2.23228e-05
2.20118e-05
2.15987e-05
2.1377e-05
2.13109e-05
2.13171e-05
2.143e-05
2.20117e-05
2.27965e-05
2.30542e-05
2.30457e-05
2.28296e-05
2.24134e-05
2.22715e-05
2.22907e-05
2.25163e-05
2.29192e-05
2.31334e-05
2.32144e-05
2.32205e-05
2.31734e-05
2.31075e-05
2.31093e-05
2.31721e-05
2.35955e-05
2.55392e-05
3.13222e-05
3.61945e-05
3.83885e-05
3.87952e-05
3.83755e-05
3.54325e-05
2.56339e-05
1.56412e-05
8.97604e-06
4.85055e-06
2.4759e-06
1.19695e-06
5.49264e-07
2.39705e-07
9.96434e-08
3.95075e-08
1.49588e-08
5.41531e-09
1.87703e-09
6.24175e-10
1.99804e-10
6.19989e-11
1.89784e-11
6.02744e-12
2.29259e-12
1.30123e-12
1.08759e-12
1.07395e-12
1.12588e-12
1.22115e-12
1.29333e-12
1.35423e-12
1.39794e-12
1.40594e-12
1.40981e-12
1.40518e-12
1.45196e-12
1.57239e-12
1.90197e-12
2.30667e-12
3.17735e-12
4.13334e-12
5.59888e-12
7.89299e-12
9.99149e-12
1.42643e-11
1.80827e-11
2.33592e-11
3.1031e-11
3.74553e-11
4.68411e-11
7.04573e-11
1.03404e-10
1.15863e-10
1.06358e-10
4.76316e-11
6.54102e-12
2.0571e-05
2.12356e-05
2.14201e-05
2.1356e-05
2.1232e-05
2.11432e-05
2.10594e-05
2.10572e-05
2.1154e-05
2.14504e-05
2.16777e-05
2.17609e-05
2.17679e-05
2.17651e-05
2.17911e-05
2.19728e-05
2.22372e-05
2.22874e-05
2.22282e-05
2.19184e-05
2.15712e-05
2.14267e-05
2.14004e-05
2.14294e-05
2.16471e-05
2.23706e-05
2.29026e-05
2.30608e-05
2.30666e-05
2.30339e-05
2.28993e-05
2.26918e-05
2.25391e-05
2.23886e-05
2.23133e-05
2.23153e-05
2.23805e-05
2.2572e-05
2.26935e-05
2.27853e-05
2.29685e-05
2.35206e-05
2.56229e-05
3.15133e-05
3.64052e-05
3.86456e-05
3.90658e-05
3.86446e-05
3.57024e-05
2.58585e-05
1.57597e-05
9.03371e-06
4.87713e-06
2.4877e-06
1.20204e-06
5.51427e-07
2.40603e-07
1.00009e-07
3.96537e-08
1.50167e-08
5.43815e-09
1.88603e-09
6.27733e-10
2.01226e-10
6.25808e-11
1.92259e-11
6.16957e-12
2.41867e-12
1.42295e-12
1.21933e-12
1.21435e-12
1.25578e-12
1.36708e-12
1.4277e-12
1.46532e-12
1.48049e-12
1.47434e-12
1.45315e-12
1.40361e-12
1.33742e-12
1.25568e-12
1.27262e-12
1.34538e-12
1.55753e-12
1.86713e-12
2.33708e-12
3.12569e-12
3.83673e-12
5.36499e-12
6.81153e-12
8.84686e-12
1.20826e-11
1.48879e-11
1.89709e-11
2.92876e-11
4.51269e-11
5.16643e-11
4.79029e-11
2.19222e-11
3.00274e-12
2.10354e-05
2.10553e-05
2.10868e-05
2.12778e-05
2.14073e-05
2.15079e-05
2.15652e-05
2.16387e-05
2.17569e-05
2.19148e-05
2.19984e-05
2.1997e-05
2.19311e-05
2.18361e-05
2.17959e-05
2.17411e-05
2.16496e-05
2.15548e-05
2.14528e-05
2.13408e-05
2.12861e-05
2.12914e-05
2.13439e-05
2.13878e-05
2.14508e-05
2.15984e-05
2.20098e-05
2.24828e-05
2.2759e-05
2.28689e-05
2.28856e-05
2.28827e-05
2.28278e-05
2.26171e-05
2.22953e-05
2.20703e-05
2.20086e-05
2.20219e-05
2.20738e-05
2.21922e-05
2.24553e-05
2.31568e-05
2.54991e-05
3.15459e-05
3.64028e-05
3.86862e-05
3.91482e-05
3.87805e-05
3.60749e-05
2.65365e-05
1.62003e-05
9.29224e-06
5.01764e-06
2.55913e-06
1.23633e-06
5.67047e-07
2.47384e-07
1.0282e-07
4.0769e-08
1.54429e-08
5.59539e-09
1.9422e-09
6.47255e-10
2.07891e-10
6.48555e-11
2.00444e-11
6.52783e-12
2.62837e-12
1.60699e-12
1.40092e-12
1.40322e-12
1.53408e-12
1.62699e-12
1.74473e-12
1.8063e-12
1.79751e-12
1.76678e-12
1.70024e-12
1.58232e-12
1.44279e-12
1.29327e-12
1.1966e-12
1.13372e-12
1.13598e-12
1.18469e-12
1.29591e-12
1.51694e-12
1.72434e-12
2.17005e-12
2.68044e-12
3.40224e-12
4.73539e-12
5.94711e-12
7.72598e-12
1.22159e-11
1.979e-11
2.31727e-11
2.1693e-11
1.0144e-11
1.38801e-12
2.11083e-05
2.16542e-05
2.18387e-05
2.18142e-05
2.15913e-05
2.13925e-05
2.13741e-05
2.14858e-05
2.1831e-05
2.19167e-05
2.18298e-05
2.15636e-05
2.14989e-05
2.15481e-05
2.18011e-05
2.19492e-05
2.19335e-05
2.17891e-05
2.15701e-05
2.14587e-05
2.144e-05
2.14836e-05
2.16141e-05
2.16769e-05
2.16987e-05
2.17366e-05
2.17738e-05
2.18039e-05
2.18636e-05
2.19928e-05
2.23583e-05
2.28449e-05
2.30993e-05
2.31163e-05
2.29916e-05
2.25197e-05
2.20358e-05
2.18226e-05
2.17795e-05
2.17967e-05
2.19302e-05
2.25289e-05
2.4914e-05
3.11287e-05
3.61053e-05
3.84775e-05
3.89859e-05
3.86488e-05
3.60752e-05
2.68256e-05
1.64584e-05
9.4854e-06
5.14671e-06
2.63761e-06
1.2804e-06
5.9012e-07
2.58709e-07
1.08057e-07
4.30587e-08
1.63884e-08
5.96563e-09
2.08031e-09
6.96611e-10
2.24918e-10
7.06158e-11
2.20157e-11
7.23989e-12
2.93314e-12
1.79741e-12
1.59111e-12
1.59686e-12
1.73371e-12
1.99145e-12
2.07347e-12
2.23344e-12
2.28497e-12
2.27992e-12
2.24121e-12
2.1253e-12
1.88367e-12
1.55224e-12
1.30358e-12
1.14766e-12
1.07088e-12
1.01938e-12
1.00046e-12
1.01277e-12
1.0073e-12
1.0582e-12
1.17122e-12
1.38573e-12
1.85844e-12
2.38485e-12
3.16335e-12
5.11122e-12
8.72018e-12
1.04542e-11
9.87854e-12
4.72054e-12
6.46297e-13
2.09153e-05
2.12747e-05
2.13919e-05
2.1269e-05
2.10211e-05
2.09899e-05
2.10839e-05
2.12905e-05
2.13392e-05
2.13201e-05
2.13079e-05
2.13333e-05
2.14551e-05
2.17423e-05
2.19127e-05
2.20435e-05
2.23094e-05
2.25781e-05
2.26942e-05
2.26979e-05
2.26618e-05
2.26262e-05
2.26092e-05
2.25776e-05
2.25002e-05
2.22486e-05
2.19469e-05
2.18054e-05
2.1779e-05
2.18185e-05
2.20859e-05
2.27172e-05
2.30173e-05
2.30393e-05
2.2934e-05
2.24676e-05
2.19202e-05
2.16471e-05
2.15655e-05
2.15697e-05
2.16804e-05
2.22681e-05
2.47205e-05
3.07591e-05
3.54057e-05
3.76982e-05
3.82323e-05
3.79558e-05
3.56343e-05
2.68002e-05
1.64682e-05
9.51008e-06
5.17459e-06
2.66082e-06
1.29658e-06
6.001e-07
2.64368e-07
1.10988e-07
4.44712e-08
1.70276e-08
6.23808e-09
2.1901e-09
7.38644e-10
2.40331e-10
7.6082e-11
2.39327e-11
7.93705e-12
3.25721e-12
2.01289e-12
1.78474e-12
1.83046e-12
1.98038e-12
2.27577e-12
2.52198e-12
2.63527e-12
2.87278e-12
2.86836e-12
2.84635e-12
2.78306e-12
2.64966e-12
2.33563e-12
1.72201e-12
1.32049e-12
1.11245e-12
1.01433e-12
9.46392e-13
8.85292e-13
7.90907e-13
6.92564e-13
6.202e-13
6.40103e-13
7.57306e-13
9.67258e-13
1.30292e-12
2.14048e-12
3.85922e-12
4.74369e-12
4.52419e-12
2.20992e-12
3.0334e-13
2.06129e-05
2.08341e-05
2.09552e-05
2.097e-05
2.09225e-05
2.08851e-05
2.09279e-05
2.11693e-05
2.13523e-05
2.13656e-05
2.1331e-05
2.13021e-05
2.13064e-05
2.13457e-05
2.14185e-05
2.15121e-05
2.17427e-05
2.21135e-05
2.23897e-05
2.2546e-05
2.26087e-05
2.26195e-05
2.26122e-05
2.25776e-05
2.24737e-05
2.22501e-05
2.20783e-05
2.19993e-05
2.1991e-05
2.20339e-05
2.22936e-05
2.26905e-05
2.28223e-05
2.28158e-05
2.27268e-05
2.23642e-05
2.18965e-05
2.16374e-05
2.15537e-05
2.15574e-05
2.16714e-05
2.22838e-05
2.48468e-05
3.08931e-05
3.52616e-05
3.72588e-05
3.76546e-05
3.73155e-05
3.48623e-05
2.60947e-05
1.61376e-05
9.37033e-06
5.12166e-06
2.64344e-06
1.29227e-06
5.99835e-07
2.64964e-07
1.11647e-07
4.49026e-08
1.72641e-08
6.35542e-09
2.24389e-09
7.61681e-10
2.49651e-10
7.97105e-11
2.53184e-11
8.50438e-12
3.53481e-12
2.23901e-12
2.00399e-12
2.03643e-12
2.33365e-12
2.55941e-12
2.97882e-12
3.17227e-12
3.33056e-12
3.66308e-12
3.64065e-12
3.56387e-12
3.36702e-12
3.17045e-12
2.74235e-12
1.87051e-12
1.32988e-12
1.07378e-12
9.58711e-13
8.74358e-13
7.52109e-13
5.97137e-13
4.43605e-13
3.48577e-13
3.53451e-13
4.08563e-13
5.42131e-13
8.95948e-13
1.7099e-12
2.16512e-12
2.08427e-12
1.04122e-12
1.43687e-13
2.06672e-05
2.10643e-05
2.10553e-05
2.09645e-05
2.09504e-05
2.09921e-05
2.12198e-05
2.14579e-05
2.15447e-05
2.15642e-05
2.15556e-05
2.14823e-05
2.13945e-05
2.13904e-05
2.14373e-05
2.15609e-05
2.15782e-05
2.15485e-05
2.15463e-05
2.15997e-05
2.18256e-05
2.20302e-05
2.20803e-05
2.20778e-05
2.20881e-05
2.22133e-05
2.25325e-05
2.26327e-05
2.26023e-05
2.24625e-05
2.24268e-05
2.24477e-05
2.24704e-05
2.24693e-05
2.24549e-05
2.23843e-05
2.21324e-05
2.18349e-05
2.17241e-05
2.17239e-05
2.18403e-05
2.25017e-05
2.53078e-05
3.12385e-05
3.53638e-05
3.72376e-05
3.75719e-05
3.71856e-05
3.45366e-05
2.54647e-05
1.57326e-05
9.14339e-06
5.00788e-06
2.59345e-06
1.2733e-06
5.93997e-07
2.63758e-07
1.11647e-07