/*--------------------------------*- C++ -*----------------------------------*\
| =========                 |                                                 |
| \\      /  F ield         | OpenFOAM: The Open Source CFD Toolbox           |
|  \\    /   O peration     | Version:  4.1                                   |
|   \\  /    A nd           | Web:      www.OpenFOAM.org                      |
|    \\/     M anipulation  |                                                 |
\*---------------------------------------------------------------------------*/
FoamFile
{
    version     2.0;
    format      ascii;
    class       volScalarField;
    location    "0.1";
    object      p;
}
// * * * * * * * * * * * * * * * * * * * * * * * * * * * * * * * * * * * * * //

dimensions      [0 2 -2 0 0 0 0];

internalField   nonuniform List<scalar> 
43750
(
1698.88
1711.41
1708.06
1700.54
1691.69
1682.34
1672.41
1661.85
1650.77
1639.2
1627.19
1614.82
1602.16
1589.26
1576.19
1562.98
1549.67
1536.28
1522.87
1509.46
1496.09
1482.77
1469.52
1456.35
1443.3
1430.37
1417.58
1404.93
1392.44
1380.11
1367.96
1355.99
1344.22
1332.64
1321.26
1310.07
1299.1
1288.34
1277.81
1267.49
1257.39
1247.49
1237.79
1228.31
1219.04
1209.99
1201.16
1192.55
1184.15
1175.97
1167.99
1160.21
1152.64
1145.26
1138.08
1131.1
1124.31
1117.71
1111.31
1105.09
1099.06
1093.22
1087.56
1082.08
1076.78
1071.65
1066.7
1061.92
1057.31
1052.88
1048.6
1044.49
1040.55
1036.76
1033.14
1029.67
1026.36
1023.2
1020.19
1017.33
1014.62
1012.05
1009.63
1007.36
1005.23
1003.24
1001.39
999.675
998.101
996.664
995.363
994.196
993.162
992.261
991.491
990.851
990.34
989.958
989.703
989.576
1774.94
1727.95
1710.26
1700.43
1691.73
1682.55
1672.76
1662.31
1651.21
1639.58
1627.53
1615.11
1602.41
1589.46
1576.33
1563.05
1549.69
1536.29
1522.86
1509.43
1496.03
1482.69
1469.42
1456.24
1443.17
1430.23
1417.42
1404.76
1392.25
1379.92
1367.76
1355.79
1344
1332.42
1321.03
1309.85
1298.88
1288.11
1277.56
1267.23
1257.11
1247.2
1237.52
1228.04
1218.78
1209.74
1200.92
1192.31
1183.92
1175.74
1167.76
1159.98
1152.4
1145.03
1137.85
1130.87
1124.08
1117.49
1111.08
1104.87
1098.84
1093
1087.34
1081.86
1076.56
1071.43
1066.48
1061.71
1057.1
1052.66
1048.39
1044.28
1040.34
1036.56
1032.93
1029.47
1026.16
1023
1019.99
1017.13
1014.43
1011.87
1009.45
1007.18
1005.05
1003.06
1001.22
999.509
997.939
996.506
995.208
994.044
993.014
992.116
991.348
990.71
990.201
989.82
989.567
989.44
1756.89
1728.71
1712.96
1702.5
1693.48
1684.17
1674.16
1663.5
1652.23
1640.46
1628.26
1615.71
1602.88
1589.82
1576.6
1563.25
1549.82
1536.34
1522.85
1509.36
1495.92
1482.54
1469.23
1456.02
1442.92
1429.95
1417.12
1404.44
1391.92
1379.56
1367.39
1355.4
1343.61
1332.01
1320.61
1309.42
1298.44
1287.67
1277.12
1266.78
1256.66
1246.75
1237.05
1227.58
1218.32
1209.28
1200.46
1191.86
1183.46
1175.28
1167.3
1159.52
1151.95
1144.57
1137.39
1130.41
1123.63
1117.03
1110.63
1104.42
1098.39
1092.55
1086.89
1081.41
1076.11
1070.99
1066.04
1061.26
1056.66
1052.22
1047.95
1043.85
1039.9
1036.12
1032.5
1029.03
1025.72
1022.57
1019.56
1016.71
1014
1011.44
1009.03
1006.76
1004.63
1002.65
1000.8
999.1
997.533
996.102
994.807
993.646
992.618
991.721
990.955
990.319
989.811
989.431
989.178
989.051
1633.18
1683.69
1698.6
1699.18
1693.71
1685.56
1675.9
1665.18
1653.73
1641.73
1629.31
1616.57
1603.56
1590.35
1576.99
1563.52
1549.98
1536.41
1522.83
1509.27
1495.75
1482.3
1468.94
1455.68
1442.54
1429.53
1416.66
1403.95
1391.4
1379.02
1366.82
1354.81
1343
1331.38
1319.97
1308.77
1297.78
1287
1276.44
1266.09
1255.96
1246.05
1236.35
1226.88
1217.63
1208.59
1199.77
1191.17
1182.77
1174.59
1166.61
1158.84
1151.27
1143.89
1136.72
1129.74
1122.96
1116.37
1109.97
1103.76
1097.73
1091.89
1086.24
1080.76
1075.46
1070.34
1065.4
1060.62
1056.02
1051.59
1047.32
1043.22
1039.28
1035.5
1031.87
1028.41
1025.1
1021.95
1018.94
1016.09
1013.38
1010.83
1008.42
1006.15
1004.02
1002.04
1000.2
998.495
996.929
995.499
994.205
993.045
992.018
991.122
990.357
989.721
989.214
988.834
988.581
988.455
1683.49
1698.61
1706.39
1704.78
1698.4
1689.43
1678.97
1667.68
1655.8
1643.45
1630.72
1617.7
1604.46
1591.04
1577.49
1563.86
1550.18
1536.48
1522.78
1509.12
1495.51
1481.98
1468.55
1455.22
1442.02
1428.96
1416.04
1403.29
1390.7
1378.29
1366.06
1354.03
1342.19
1330.56
1319.13
1307.91
1296.91
1286.12
1275.54
1265.19
1255.05
1245.14
1235.44
1225.97
1216.71
1207.68
1198.86
1190.26
1181.86
1173.68
1165.7
1157.93
1150.36
1142.99
1135.82
1128.84
1122.07
1115.48
1109.08
1102.88
1096.86
1091.02
1085.37
1079.9
1074.6
1069.49
1064.54
1059.77
1055.17
1050.74
1046.48
1042.38
1038.44
1034.66
1031.04
1027.58
1024.27
1021.12
1018.12
1015.27
1012.56
1010.01
1007.59
1005.33
1003.2
1001.22
999.378
997.675
996.108
994.678
993.383
992.222
991.193
990.296
989.529
988.892
988.384
988.003
987.75
987.623
1731.29
1728.91
1722.17
1714.15
1704.63
1694
1682.69
1670.75
1658.31
1645.5
1632.39
1619.05
1605.52
1591.84
1578.08
1564.25
1550.39
1536.53
1522.7
1508.92
1495.2
1481.57
1468.05
1454.64
1441.37
1428.24
1415.26
1402.45
1389.82
1377.37
1365.11
1353.04
1341.18
1329.52
1318.07
1306.83
1295.81
1285
1274.42
1264.05
1253.91
1243.98
1234.29
1224.81
1215.56
1206.53
1197.71
1189.11
1180.72
1172.54
1164.56
1156.79
1149.23
1141.86
1134.7
1127.73
1120.95
1114.37
1107.98
1101.78
1095.76
1089.93
1084.28
1078.82
1073.53
1068.42
1063.48
1058.71
1054.12
1049.69
1045.43
1041.33
1037.4
1033.62
1030
1026.54
1023.24
1020.09
1017.09
1014.24
1011.54
1008.98
1006.57
1004.3
1002.18
1000.2
998.356
996.651
995.084
993.653
992.357
991.194
990.164
989.265
988.497
987.858
987.348
986.967
986.712
986.585
1757.89
1755.62
1740.62
1726.11
1712.7
1699.88
1687.17
1674.32
1661.24
1647.9
1634.34
1620.6
1606.73
1592.76
1578.73
1564.67
1550.6
1536.56
1522.57
1508.64
1494.79
1481.05
1467.42
1453.92
1440.56
1427.36
1414.32
1401.45
1388.76
1376.26
1363.95
1351.85
1339.95
1328.26
1316.78
1305.52
1294.48
1283.66
1273.06
1262.68
1252.53
1242.61
1232.91
1223.43
1214.18
1205.15
1196.33
1187.73
1179.34
1171.17
1163.2
1155.43
1147.87
1140.51
1133.35
1126.38
1119.61
1113.04
1106.65
1100.46
1094.45
1088.63
1082.98
1077.52
1072.24
1067.13
1062.2
1057.44
1052.85
1048.43
1044.17
1040.07
1036.14
1032.37
1028.76
1025.3
1022
1018.85
1015.85
1013
1010.3
1007.75
1005.34
1003.08
1000.95
998.97
997.127
995.422
993.854
992.422
991.124
989.96
988.928
988.027
987.257
986.617
986.106
985.723
985.468
985.34
1870.62
1786.24
1753.34
1734.07
1719.08
1705.31
1691.75
1678.13
1664.37
1650.47
1636.42
1622.26
1608.02
1593.72
1579.4
1565.09
1550.8
1536.55
1522.38
1508.28
1494.29
1480.41
1466.67
1453.06
1439.6
1426.31
1413.19
1400.25
1387.5
1374.95
1362.6
1350.45
1338.51
1326.79
1315.28
1304
1292.93
1282.09
1271.47
1261.09
1250.93
1240.99
1231.29
1221.82
1212.56
1203.53
1194.72
1186.12
1177.74
1169.56
1161.6
1153.84
1146.28
1138.93
1131.77
1124.82
1118.05
1111.49
1105.11
1098.92
1092.92
1087.1
1081.47
1076.01
1070.74
1065.64
1060.71
1055.95
1051.37
1046.95
1042.7
1038.61
1034.68
1030.91
1027.3
1023.85
1020.55
1017.41
1014.41
1011.56
1008.86
1006.31
1003.9
1001.64
999.516
997.534
995.691
993.985
992.417
990.983
989.684
988.518
987.485
986.583
985.811
985.169
984.656
984.272
984.016
983.888
1741.95
1774.56
1757.86
1740.45
1724.97
1710.53
1696.34
1682.09
1667.73
1653.25
1638.67
1624.03
1609.38
1594.72
1580.08
1565.48
1550.93
1536.46
1522.09
1507.81
1493.66
1479.64
1465.76
1452.04
1438.48
1425.09
1411.89
1398.87
1386.05
1373.43
1361.02
1348.83
1336.85
1325.09
1313.55
1302.23
1291.15
1280.29
1269.65
1259.25
1249.08
1239.15
1229.44
1219.96
1210.71
1201.68
1192.87
1184.27
1175.89
1167.73
1159.77
1152.01
1144.47
1137.12
1129.97
1123.02
1116.27
1109.71
1103.34
1097.16
1091.17
1085.36
1079.74
1074.29
1069.02
1063.93
1059.01
1054.26
1049.68
1045.27
1041.02
1036.94
1033.01
1029.25
1025.64
1022.19
1018.9
1015.75
1012.76
1009.91
1007.22
1004.67
1002.26
999.995
997.872
995.89
994.046
992.34
990.771
989.336
988.036
986.869
985.834
984.93
984.157
983.513
982.999
982.614
982.358
982.23
1775.82
1752.94
1750.8
1742.42
1729.87
1715.73
1701.05
1686.14
1671.11
1656.03
1640.92
1625.81
1610.73
1595.69
1580.71
1565.81
1551
1536.3
1521.71
1507.24
1492.91
1478.73
1464.71
1450.86
1437.18
1423.68
1410.38
1397.28
1384.39
1371.7
1359.23
1346.99
1334.96
1323.16
1311.58
1300.24
1289.13
1278.25
1267.6
1257.19
1247.01
1237.06
1227.35
1217.87
1208.61
1199.59
1190.78
1182.19
1173.82
1165.66
1157.71
1149.96
1142.42
1135.08
1127.95
1121.01
1114.26
1107.72
1101.36
1095.19
1089.2
1083.41
1077.79
1072.35
1067.09
1062
1057.09
1052.35
1047.78
1043.37
1039.13
1035.05
1031.13
1027.38
1023.77
1020.33
1017.03
1013.89
1010.9
1008.06
1005.36
1002.81
1000.41
998.143
996.02
994.037
992.193
990.487
988.916
987.481
986.179
985.01
983.974
983.069
982.294
981.65
981.135
980.749
980.492
980.363
1862.51
1790.65
1767.4
1750.37
1735.78
1721.16
1705.95
1690.4
1674.69
1658.93
1643.22
1627.58
1612.04
1596.6
1581.26
1566.05
1550.96
1536
1521.18
1506.51
1492
1477.65
1463.48
1449.49
1435.69
1422.09
1408.69
1395.49
1382.52
1369.76
1357.22
1344.92
1332.84
1321
1309.39
1298.01
1286.87
1275.97
1265.3
1254.87
1244.68
1234.73
1225.01
1215.53
1206.28
1197.26
1188.46
1179.87
1171.51
1163.36
1155.41
1147.68
1140.15
1132.82
1125.69
1118.77
1112.04
1105.5
1099.15
1092.99
1087.02
1081.23
1075.62
1070.2
1064.95
1059.87
1054.97
1050.23
1045.67
1041.27
1037.03
1032.96
1029.05
1025.29
1021.7
1018.25
1014.96
1011.82
1008.84
1005.99
1003.3
1000.75
998.345
996.082
993.959
991.976
990.132
988.424
986.852
985.415
984.113
982.943
981.905
980.998
980.222
979.577
979.061
978.674
978.417
978.288
1723.55
1758.17
1760.72
1755.89
1743.21
1727.57
1711.23
1694.68
1678.15
1661.71
1645.41
1629.25
1613.24
1597.4
1581.7
1566.17
1550.79
1535.57
1520.52
1505.64
1490.93
1476.41
1462.08
1447.94
1434
1420.28
1406.77
1393.48
1380.42
1367.58
1354.98
1342.61
1330.48
1318.59
1306.94
1295.54
1284.37
1273.45
1262.77
1252.32
1242.12
1232.16
1222.44
1212.95
1203.7
1194.68
1185.89
1177.32
1168.96
1160.82
1152.88
1145.16
1137.64
1130.33
1123.22
1116.3
1109.58
1103.06
1096.72
1090.58
1084.62
1078.84
1073.25
1067.83
1062.59
1057.52
1052.63
1047.9
1043.35
1038.96
1034.73
1030.66
1026.75
1023
1019.41
1015.97
1012.69
1009.55
1006.56
1003.72
1001.03
998.482
996.076
993.813
991.69
989.706
987.86
986.151
984.578
983.14
981.836
980.664
979.625
978.717
977.94
977.293
976.776
976.389
976.13
976.001
1696.9
1788.58
1785.58
1769.05
1751.69
1734.4
1716.75
1699.12
1681.67
1664.44
1647.48
1630.77
1614.3
1598.04
1581.98
1566.12
1550.45
1534.97
1519.67
1504.57
1489.67
1474.96
1460.47
1446.18
1432.11
1418.26
1404.64
1391.24
1378.09
1365.17
1352.5
1340.07
1327.88
1315.94
1304.25
1292.81
1281.62
1270.68
1259.98
1249.52
1239.31
1229.34
1219.62
1210.13
1200.88
1191.87
1183.08
1174.52
1166.17
1158.04
1150.12
1142.41
1134.91
1127.61
1120.51
1113.61
1106.91
1100.4
1094.08
1087.95
1082
1076.24
1070.65
1065.25
1060.02
1054.96
1050.08
1045.37
1040.82
1036.43
1032.21
1028.15
1024.25
1020.51
1016.92
1013.48
1010.2
1007.07
1004.08
1001.24
998.552
996.004
993.599
991.335
989.211
987.226
985.379
983.669
982.094
980.654
979.347
978.174
977.133
976.223
975.445
974.797
974.279
973.89
973.632
973.502
1948.16
1844.58
1809.73
1784.86
1762.86
1741.89
1722.18
1703.21
1684.8
1666.85
1649.28
1632.05
1615.13
1598.47
1582.07
1565.89
1549.93
1534.19
1518.65
1503.33
1488.22
1473.32
1458.65
1444.2
1429.98
1416
1402.26
1388.76
1375.51
1362.51
1349.77
1337.27
1325.03
1313.04
1301.31
1289.84
1278.62
1267.65
1256.93
1246.47
1236.25
1226.28
1216.56
1207.07
1197.83
1188.82
1180.04
1171.48
1163.15
1155.03
1147.13
1139.43
1131.95
1124.66
1117.58
1110.7
1104.01
1097.52
1091.21
1085.1
1079.16
1073.42
1067.85
1062.46
1057.24
1052.2
1047.32
1042.62
1038.08
1033.7
1029.49
1025.44
1021.54
1017.81
1014.22
1010.79
1007.51
1004.38
1001.4
998.558
995.867
993.318
990.912
988.648
986.522
984.536
982.687
980.974
979.397
977.955
976.647
975.471
974.428
973.516
972.736
972.086
971.567
971.178
970.918
970.788
1956.53
1869.13
1824
1793.54
1769.29
1747.67
1726.9
1706.91
1687.61
1668.93
1650.76
1633.04
1615.69
1598.66
1581.91
1565.43
1549.19
1533.18
1517.4
1501.85
1486.53
1471.45
1456.6
1441.99
1427.62
1413.51
1399.65
1386.04
1372.69
1359.6
1346.78
1334.22
1321.92
1309.88
1298.11
1286.6
1275.36
1264.37
1253.63
1243.16
1232.94
1222.96
1213.24
1203.76
1194.53
1185.52
1176.75
1168.21
1159.89
1151.79
1143.9
1136.22
1128.75
1121.49
1114.42
1107.56
1100.89
1094.41
1088.13
1082.03
1076.11
1070.38
1064.83
1059.45
1054.25
1049.22
1044.36
1039.66
1035.13
1030.77
1026.56
1022.52
1018.63
1014.9
1011.32
1007.89
1004.61
1001.48
998.5
995.664
992.973
990.424
988.017
985.75
983.623
981.635
979.783
978.068
976.488
975.043
973.732
972.553
971.507
970.593
969.811
969.159
968.639
968.248
967.988
967.858
1893.47
1848.97
1824.86
1801.21
1776.88
1753.07
1730.81
1709.76
1689.7
1670.43
1651.78
1633.64
1615.93
1598.56
1581.51
1564.74
1548.22
1531.96
1515.94
1500.16
1484.62
1469.34
1454.3
1439.53
1425.01
1410.75
1396.77
1383.05
1369.6
1356.43
1343.52
1330.89
1318.54
1306.45
1294.64
1283.1
1271.82
1260.82
1250.07
1239.58
1229.36
1219.39
1209.67
1200.2
1190.98
1181.99
1173.23
1164.7
1156.4
1148.31
1140.44
1132.78
1125.33
1118.08
1111.04
1104.2
1097.55
1091.09
1084.82
1078.74
1072.85
1067.13
1061.59
1056.23
1051.05
1046.03
1041.18
1036.5
1031.98
1027.62
1023.43
1019.39
1015.51
1011.78
1008.21
1004.78
1001.51
998.379
995.399
992.563
989.87
987.321
984.912
982.643
980.513
978.522
976.667
974.948
973.365
971.916
970.601
969.419
968.37
967.453
966.668
966.014
965.492
965.1
964.839
964.708
1724.75
1823.81
1824.62
1804.6
1780.42
1756.54
1733.52
1711.75
1691.1
1671.35
1652.31
1633.84
1615.81
1598.15
1580.82
1563.77
1546.99
1530.47
1514.21
1498.21
1482.46
1466.97
1451.75
1436.81
1422.13
1407.73
1393.62
1379.78
1366.23
1352.97
1339.99
1327.29
1314.87
1302.74
1290.89
1279.32
1268.02
1257
1246.24
1235.74
1225.51
1215.55
1205.84
1196.38
1187.17
1178.2
1169.46
1160.95
1152.66
1144.59
1136.74
1129.11
1121.68
1114.45
1107.43
1100.61
1093.98
1087.55
1081.3
1075.24
1069.37
1063.67
1058.15
1052.81
1047.64
1042.63
1037.8
1033.13
1028.62
1024.28
1020.09
1016.06
1012.18
1008.46
1004.89
1001.47
998.196
995.07
992.09
989.253
986.56
984.008
981.597
979.325
977.191
975.196
973.337
971.613
970.026
968.572
967.253
966.067
965.014
964.093
963.305
962.648
962.123
961.73
961.467
961.336
1871.39
1866.06
1845.68
1816.3
1786.7
1759.46
1734.97
1712.51
1691.5
1671.51
1652.27
1633.58
1615.32
1597.43
1579.84
1562.54
1545.51
1528.74
1512.24
1496
1480.03
1464.34
1448.93
1433.81
1418.97
1404.43
1390.18
1376.23
1362.58
1349.22
1336.16
1323.4
1310.93
1298.75
1286.86
1275.26
1263.94
1252.9
1242.13
1231.63
1221.4
1211.44
1201.74
1192.3
1183.1
1174.15
1165.43
1156.94
1148.68
1140.64
1132.81
1125.2
1117.79
1110.6
1103.6
1096.8
1090.2
1083.79
1077.57
1071.53
1065.67
1060
1054.5
1049.17
1044.02
1039.03
1034.21
1029.55
1025.06
1020.72
1016.54
1012.52
1008.65
1004.94
1001.37
997.951
994.68
991.555
988.574
985.736
983.041
980.486
978.071
975.795
973.657
971.656
969.791
968.063
966.469
965.01
963.685
962.494
961.436
960.511
959.719
959.059
958.531
958.135
957.871
957.739
2074.91
1954.13
1875.86
1824.79
1788.23
1759.29
1734.39
1711.91
1690.94
1670.97
1651.68
1632.89
1614.47
1596.38
1578.57
1561.03
1543.75
1526.73
1509.99
1493.51
1477.33
1461.43
1445.82
1430.52
1415.52
1400.83
1386.45
1372.39
1358.63
1345.18
1332.04
1319.21
1306.69
1294.46
1282.54
1270.91
1259.57
1248.52
1237.74
1227.25
1217.02
1207.07
1197.39
1187.96
1178.79
1169.86
1161.16
1152.7
1144.46
1136.44
1128.64
1121.06
1113.68
1106.51
1099.54
1092.77
1086.19
1079.81
1073.61
1067.6
1061.77
1056.11
1050.63
1045.33
1040.19
1035.22
1030.42
1025.77
1021.29
1016.97
1012.8
1008.78
1004.92
1001.21
997.645
994.229
990.959
987.834
984.852
982.012
979.313
976.754
974.334
972.052
969.908
967.901
966.03
964.294
962.693
961.228
959.896
958.698
957.634
956.704
955.906
955.242
954.711
954.313
954.047
953.914
2175.13
1973.79
1874.98
1820.54
1783.82
1755.45
1731.42
1709.72
1689.32
1669.71
1650.59
1631.81
1613.32
1595.07
1577.05
1559.27
1541.74
1524.47
1507.47
1490.75
1474.33
1458.21
1442.41
1426.92
1411.75
1396.92
1382.4
1368.22
1354.36
1340.82
1327.61
1314.72
1302.14
1289.87
1277.92
1266.27
1254.91
1243.85
1233.07
1222.58
1212.37
1202.43
1192.76
1183.36
1174.2
1165.3
1156.63
1148.2
1139.99
1132
1124.24
1116.68
1109.34
1102.2
1095.26
1088.52
1081.97
1075.61
1069.44
1063.46
1057.65
1052.02
1046.56
1041.28
1036.16
1031.21
1026.42
1021.79
1017.32
1013.01
1008.85
1004.84
1000.99
997.278
993.718
990.304
987.034
983.907
980.923
978.079
975.376
972.811
970.385
968.097
965.945
963.929
962.05
960.306
958.697
957.222
955.882
954.677
953.605
952.668
951.865
951.195
950.66
950.258
949.991
949.857
2050.88
1903.65
1838.28
1798.39
1770.14
1746.96
1726.09
1706.27
1686.98
1667.98
1649.15
1630.45
1611.9
1593.49
1575.27
1557.25
1539.45
1521.92
1504.66
1487.69
1471.03
1454.69
1438.68
1423
1407.67
1392.67
1378.03
1363.72
1349.76
1336.14
1322.85
1309.9
1297.27
1284.97
1272.99
1261.32
1249.95
1238.89
1228.11
1217.63
1207.43
1197.51
1187.86
1178.48
1169.36
1160.48
1151.85
1143.45
1135.27
1127.32
1119.59
1112.07
1104.76
1097.65
1090.75
1084.04
1077.53
1071.2
1065.06
1059.1
1053.32
1047.72
1042.28
1037.02
1031.92
1026.99
1022.22
1017.61
1013.15
1008.85
1004.7
1000.7
996.849
993.146
989.588
986.175
982.905
979.776
976.788
973.94
971.23
968.659
966.224
963.927
961.766
959.74
957.85
956.096
954.476
952.991
951.641
950.426
949.346
948.401
947.59
946.914
946.374
945.968
945.698
945.563
1659.47
1750.75
1768.29
1764.01
1751.72
1736.39
1719.69
1702.24
1684.31
1666.05
1647.56
1628.97
1610.34
1591.76
1573.3
1555
1536.93
1519.1
1501.56
1484.32
1467.41
1450.83
1434.61
1418.74
1403.23
1388.08
1373.3
1358.88
1344.82
1331.11
1317.76
1304.75
1292.08
1279.74
1267.74
1256.06
1244.69
1233.62
1222.86
1212.39
1202.21
1192.31
1182.7
1173.35
1164.25
1155.41
1146.81
1138.45
1130.31
1122.4
1114.71
1107.23
1099.95
1092.89
1086.02
1079.35
1072.87
1066.58
1060.47
1054.54
1048.79
1043.21
1037.8
1032.56
1027.49
1022.57
1017.82
1013.22
1008.78
1004.49
1000.35
996.357
992.513
988.813
985.258
981.844
978.572
975.44
972.447
969.592
966.875
964.295
961.85
959.542
957.369
955.331
953.429
951.662
950.029
948.532
947.17
945.944
944.852
943.897
943.078
942.395
941.848
941.438
941.164
941.027
1508.17
1670.83
1724.16
1737.99
1736.1
1726.98
1714.01
1698.74
1682.01
1664.35
1646.1
1627.5
1608.72
1589.9
1571.14
1552.54
1534.14
1515.99
1498.15
1480.62
1463.45
1446.63
1430.19
1414.12
1398.43
1383.13
1368.22
1353.68
1339.52
1325.73
1312.31
1299.25
1286.54
1274.18
1262.16
1250.47
1239.11
1228.05
1217.3
1206.85
1196.7
1186.83
1177.25
1167.93
1158.88
1150.08
1141.53
1133.2
1125.11
1117.24
1109.59
1102.15
1094.92
1087.89
1081.07
1074.43
1067.99
1061.74
1055.66
1049.77
1044.05
1038.5
1033.12
1027.9
1022.85
1017.96
1013.22
1008.64
1004.21
999.933
995.803
991.818
987.979
984.282
980.727
977.313
974.038
970.901
967.901
965.038
962.311
959.719
957.263
954.941
952.754
950.702
948.784
947.001
945.354
943.841
942.465
941.224
940.12
939.153
938.323
937.631
937.077
936.661
936.383
936.244
1733.12
1707.72
1719.31
1727.81
1728.02
1721.65
1710.67
1696.66
1680.63
1663.24
1644.99
1626.21
1607.15
1587.98
1568.85
1549.87
1531.09
1512.59
1494.41
1476.58
1459.12
1442.04
1425.37
1409.11
1393.25
1377.79
1362.75
1348.1
1333.85
1319.99
1306.51
1293.4
1280.66
1268.28
1256.25
1244.56
1233.2
1222.17
1211.44
1201.02
1190.9
1181.07
1171.52
1162.24
1153.24
1144.48
1135.98
1127.7
1119.66
1111.84
1104.23
1096.84
1089.66
1082.68
1075.89
1069.3
1062.9
1056.68
1050.65
1044.79
1039.1
1033.58
1028.23
1023.04
1018.02
1013.15
1008.43
1003.86
999.449
995.182
991.061
987.084
983.249
979.554
975.999
972.582
969.302
966.158
963.15
960.276
957.537
954.932
952.46
950.123
947.919
945.849
943.913
942.112
940.446
938.916
937.522
936.264
935.145
934.163
933.321
932.617
932.054
931.631
931.349
931.208
1678.35
1703.2
1717.79
1725.62
1726.22
1720.61
1710.31
1696.62
1680.59
1663
1644.4
1625.19
1605.66
1586.01
1566.41
1546.97
1527.77
1508.87
1490.32
1472.16
1454.4
1437.06
1420.16
1403.69
1387.65
1372.05
1356.87
1342.12
1327.79
1313.86
1300.33
1287.18
1274.42
1262.02
1249.99
1238.31
1226.97
1215.95
1205.26
1194.88
1184.79
1175.01
1165.51
1156.29
1147.34
1138.63
1130.18
1121.96
1113.96
1106.2
1098.64
1091.3
1084.17
1077.24
1070.5
1063.96
1057.6
1051.42
1045.43
1039.61
1033.96
1028.47
1023.15
1017.99
1012.99
1008.14
1003.44
998.894
994.494
990.239
986.126
982.155
978.324
974.63
971.074
967.653
964.366
961.214
958.195
955.308
952.554
949.933
947.443
945.086
942.862
940.771
938.814
936.991
935.303
933.751
932.336
931.059
929.92
928.922
928.064
927.348
926.774
926.342
926.055
925.911
1685.44
1700.04
1721.1
1730.63
1730.91
1724.56
1713.41
1698.91
1682.12
1663.77
1644.43
1624.52
1604.31
1584.02
1563.83
1543.84
1524.15
1504.8
1485.85
1467.33
1449.26
1431.65
1414.5
1397.82
1381.61
1365.86
1350.56
1335.71
1321.3
1307.32
1293.74
1280.57
1267.8
1255.4
1243.38
1231.72
1220.4
1209.42
1198.77
1188.43
1178.39
1168.66
1159.22
1150.06
1141.16
1132.52
1124.12
1115.96
1108.02
1100.31
1092.82
1085.53
1078.46
1071.58
1064.89
1058.4
1052.09
1045.96
1040
1034.22
1028.61
1023.16
1017.87
1012.74
1007.76
1002.94
998.263
993.734
989.348
985.105
981.001
977.036
973.207
969.513
965.954
962.527
959.232
956.069
953.036
950.134
947.363
944.721
942.21
939.83
937.582
935.466
933.483
931.634
929.92
928.343
926.903
925.602
924.441
923.422
922.546
921.814
921.227
920.786
920.491
920.344
1679.08
1724.91
1741.59
1745.49
1742.15
1733.04
1719.77
1703.51
1685.19
1665.52
1645.04
1624.11
1603
1581.93
1561.03
1540.41
1520.16
1500.33
1480.95
1462.06
1443.66
1425.77
1408.38
1391.5
1375.12
1359.22
1343.81
1328.87
1314.39
1300.36
1286.75
1273.57
1260.79
1248.41
1236.41
1224.77
1213.49
1202.55
1191.95
1181.66
1171.69
1162.02
1152.64
1143.54
1134.71
1126.13
1117.8
1109.71
1101.84
1094.19
1086.76
1079.54
1072.52
1065.7
1059.07
1052.63
1046.37
1040.29
1034.38
1028.64
1023.07
1017.66
1012.4
1007.3
1002.35
997.552
992.898
988.386
984.015
979.783
975.688
971.728
967.9
964.205
960.641
957.207
953.901
950.725
947.676
944.755
941.962
939.297
936.761
934.354
932.077
929.932
927.918
926.038
924.294
922.686
921.217
919.887
918.7
917.657
916.759
916.008
915.406
914.953
914.65
914.498
1654.24
1740.67
1763.95
1766.7
1759.31
1746.09
1729.26
1710.17
1689.61
1668.11
1646.1
1623.89
1601.69
1579.67
1557.95
1536.63
1515.77
1495.41
1475.57
1456.28
1437.55
1419.37
1401.75
1384.67
1368.12
1352.1
1336.59
1321.57
1307.04
1292.97
1279.34
1266.16
1253.39
1241.03
1229.06
1217.47
1206.23
1195.35
1184.8
1174.58
1164.67
1155.07
1145.77
1136.74
1127.98
1119.48
1111.23
1103.21
1095.41
1087.83
1080.47
1073.31
1066.36
1059.6
1053.03
1046.65
1040.44
1034.41
1028.56
1022.86
1017.33
1011.96
1006.74
1001.67
996.755
991.98
987.348
982.854
978.499
974.278
970.19
966.234
962.407
958.709
955.138
951.694
948.375
945.182
942.114
939.171
936.353
933.661
931.095
928.656
926.346
924.166
922.117
920.201
918.42
916.776
915.271
913.909
912.69
911.618
910.694
909.92
909.299
908.832
908.519
908.363
1873.77
1830.36
1816.11
1800.46
1782.3
1762.36
1740.92
1718.3
1694.95
1671.21
1647.37
1623.64
1600.17
1577.08
1554.47
1532.38
1510.87
1489.95
1469.64
1449.96
1430.89
1412.43
1394.57
1377.3
1360.61
1344.47
1328.87
1313.79
1299.21
1285.12
1271.5
1258.32
1245.58
1233.26
1221.33
1209.79
1198.62
1187.81
1177.33
1167.18
1157.35
1147.83
1138.61
1129.66
1120.99
1112.57
1104.4
1096.45
1088.74
1081.24
1073.95
1066.87
1059.98
1053.29
1046.79
1040.46
1034.32
1028.34
1022.54
1016.89
1011.41
1006.08
1000.9
995.864
990.975
986.226
981.616
977.142
972.801
968.591
964.51
960.557
956.73
953.027
949.448
945.991
942.657
939.444
936.353
933.384
930.537
927.812
925.212
922.736
920.387
918.166
916.075
914.116
912.292
910.606
909.06
907.658
906.402
905.295
904.339
903.539
902.895
902.411
902.087
901.924
1950.94
1899.78
1862.12
1833.47
1807.12
1780.57
1753.84
1727.18
1700.67
1674.41
1648.54
1623.14
1598.29
1574.05
1550.47
1527.57
1505.37
1483.88
1463.1
1443.01
1423.62
1404.89
1386.81
1369.37
1352.54
1336.3
1320.62
1305.5
1290.9
1276.81
1263.2
1250.05
1237.35
1225.08
1213.21
1201.74
1190.65
1179.91
1169.52
1159.46
1149.72
1140.29
1131.16
1122.31
1113.73
1105.4
1097.32
1089.46
1081.83
1074.41
1067.2
1060.2
1053.39
1046.77
1040.33
1034.08
1028
1022.08
1016.33
1010.74
1005.3
1000.01
994.871
989.873
985.016
980.295
975.708
971.253
966.927
962.728
958.653
954.702
950.872
947.163
943.573
940.101
936.748
933.512
930.394
927.395
924.513
921.752
919.111
916.592
914.197
911.929
909.789
907.781
905.907
904.171
902.576
901.126
899.825
898.677
897.685
896.852
896.181
895.676
895.338
895.168
1983.94
1945.51
1907.34
1868.43
1832.06
1798.52
1766.64
1735.9
1706.13
1677.25
1649.23
1622.07
1595.78
1570.35
1545.77
1522.05
1499.17
1477.11
1455.86
1435.39
1415.67
1396.69
1378.42
1360.82
1343.88
1327.56
1311.83
1296.68
1282.08
1268
1254.43
1241.33
1228.69
1216.48
1204.7
1193.31
1182.31
1171.67
1161.37
1151.41
1141.77
1132.45
1123.42
1114.67
1106.2
1097.97
1089.99
1082.23
1074.69
1067.36
1060.24
1053.31
1046.58
1040.04
1033.68
1027.49
1021.48
1015.63
1009.93
1004.4
999.008
993.766
988.667
983.707
978.883
974.191
969.628
965.192
960.88
956.691
952.622
948.671
944.838
941.12
937.517
934.027
930.652
927.389
924.24
921.205
918.285
915.48
912.793
910.224
907.777
905.453
903.256
901.19
899.257
897.462
895.81
894.304
892.95
891.752
890.715
889.844
889.141
888.611
888.256
888.077
2005.87
1985.32
1940.2
1895.6
1854.15
1815.04
1778.33
1743.66
1710.69
1679.21
1649.06
1620.16
1592.42
1565.79
1540.23
1515.69
1492.14
1469.53
1447.82
1426.99
1406.99
1387.78
1369.33
1351.61
1334.58
1318.21
1302.46
1287.31
1272.73
1258.7
1245.17
1232.14
1219.58
1207.47
1195.78
1184.5
1173.6
1163.07
1152.88
1143.03
1133.51
1124.3
1115.39
1106.76
1098.4
1090.28
1082.4
1074.75
1067.31
1060.08
1053.05
1046.21
1039.57
1033.11
1026.83
1020.72
1014.77
1008.99
1003.35
997.874
992.54
987.347
982.292
977.371
972.58
967.918
963.379
958.963
954.666
950.486
946.422
942.47
938.631
934.902
931.283
927.773
924.372
921.078
917.894
914.818
911.853
908.998
906.257
903.631
901.123
898.736
896.473
894.338
892.337
890.473
888.753
887.181
885.764
884.507
883.416
882.498
881.756
881.195
880.82
880.631
2163.41
2055.45
1982.73
1924.48
1873.97
1829.09
1787.97
1749.71
1713.78
1679.84
1647.66
1617.07
1587.93
1560.16
1533.65
1508.34
1484.15
1461.03
1438.92
1417.77
1397.51
1378.12
1359.53
1341.71
1324.63
1308.23
1292.49
1277.37
1262.84
1248.87
1235.43
1222.49
1210.03
1198.02
1186.45
1175.28
1164.51
1154.1
1144.05
1134.33
1124.93
1115.85
1107.07
1098.57
1090.33
1082.34
1074.57
1067.03
1059.7
1052.57
1045.64
1038.9
1032.35
1025.98
1019.78
1013.75
1007.88
1002.16
996.598
991.178
985.9
980.758
975.749
970.868
966.114
961.481
956.968
952.571
948.289
944.118
940.057
936.104
932.257
928.515
924.877
921.343
917.912
914.583
911.358
908.236
905.219
902.308
899.506
896.814
894.236
891.775
889.436
887.222
885.14
883.195
881.395
879.744
878.252
876.924
875.77
874.794
874.005
873.408
873.007
872.805
2214.17
2087.04
2004.98
1942.08
1887.99
1839.34
1794.74
1753.42
1714.86
1678.7
1644.66
1612.52
1582.1
1553.27
1525.89
1499.87
1475.11
1451.53
1429.06
1407.63
1387.17
1367.63
1348.95
1331.08
1313.98
1297.6
1281.9
1266.84
1252.39
1238.51
1225.18
1212.36
1200.02
1188.14
1176.7
1165.68
1155.05
1144.78
1134.87
1125.3
1116.04
1107.1
1098.46
1090.09
1081.98
1074.12
1066.49
1059.07
1051.85
1044.84
1038.02
1031.39
1024.93
1018.66
1012.55
1006.6
1000.81
995.165
989.669
984.313
979.093
974.005
969.043
964.206
959.488
954.887
950.399
946.023
941.754
937.592
933.533
929.576
925.72
921.963
918.303
914.741
911.276
907.907
904.636
901.461
898.386
895.411
892.539
889.772
887.114
884.569
882.141
879.836
877.66
875.62
873.724
871.981
870.399
868.987
867.754
866.71
865.864
865.221
864.79
864.572
2144.58
2075.23
2011.87
1952.54
1897.05
1845.65
1798.24
1754.36
1713.55
1675.45
1639.76
1606.24
1574.68
1544.91
1516.77
1490.13
1464.89
1440.93
1418.17
1396.53
1375.92
1356.29
1337.56
1319.69
1302.61
1286.29
1270.66
1255.7
1241.36
1227.61
1214.41
1201.73
1189.55
1177.82
1166.54
1155.68
1145.21
1135.1
1125.35
1115.94
1106.84
1098.05
1089.56
1081.34
1073.38
1065.65
1058.16
1050.87
1043.79
1036.89
1030.19
1023.67
1017.32
1011.14
1005.13
999.267
993.559
987.996
982.573
977.284
972.126
967.093
962.182
957.388
952.709
948.14
943.679
939.323
935.068
930.914
926.856
922.895
919.027
915.251
911.567
907.973
904.47
901.056
897.732
894.499
891.358
888.311
885.36
882.507
879.758
877.115
874.585
872.174
869.889
867.738
865.731
863.877
862.187
860.673
859.347
858.219
857.302
856.604
856.134
855.898
2049.21
2059.54
2013.94
1956.81
1900.67
1847.68
1798.2
1752.23
1709.53
1669.79
1632.7
1598.01
1565.48
1534.91
1506.14
1479
1453.37
1429.13
1406.16
1384.38
1363.69
1344.03
1325.32
1307.49
1290.49
1274.27
1258.76
1243.93
1229.74
1216.15
1203.12
1190.61
1178.6
1167.06
1155.96
1145.28
1134.99
1125.06
1115.49
1106.25
1097.33
1088.71
1080.38
1072.33
1064.52
1056.95
1049.6
1042.45
1035.5
1028.74
1022.16
1015.75
1009.51
1003.44
997.527
991.763
986.143
980.663
975.316
970.098
965.004
960.03
955.171
950.423
945.783
941.248
936.814
932.478
928.237
924.09
920.033
916.064
912.183
908.387
904.674
901.045
897.499
894.034
890.653
887.354
884.139
881.01
877.97
875.021
872.167
869.414
866.767
864.233
861.821
859.54
857.401
855.415
853.597
851.96
850.52
849.29
848.286
847.519
847.002
846.739
2179.97
2097.03
2028.01
1963.59
1902.82
1846.52
1794.68
1746.83
1702.55
1661.46
1623.24
1587.6
1554.31
1523.13
1493.87
1466.37
1440.47
1416.04
1392.96
1371.13
1350.44
1330.82
1312.19
1294.46
1277.59
1261.52
1246.18
1231.53
1217.53
1204.13
1191.29
1178.99
1167.19
1155.85
1144.96
1134.48
1124.4
1114.67
1105.29
1096.25
1087.51
1079.08
1070.93
1063.05
1055.42
1048.01
1040.81
1033.81
1027
1020.38
1013.92
1007.64
1001.53
995.566
989.756
984.091
978.564
973.17
967.904
962.76
957.734
952.82
948.016
943.316
938.718
934.217
929.81
925.495
921.268
917.127
913.069
909.093
905.195
901.376
897.632
893.964
890.37
886.849
883.403
880.031
876.734
873.514
870.374
867.316
864.345
861.466
858.684
856.009
853.45
851.016
848.721
846.58
844.607
842.822
841.241
839.885
838.772
837.92
837.341