/*--------------------------------*- C++ -*----------------------------------*\
| =========                 |                                                 |
| \\      /  F ield         | OpenFOAM: The Open Source CFD Toolbox           |
|  \\    /   O peration     | Version:  4.1                                   |
|   \\  /    A nd           | Web:      www.OpenFOAM.org                      |
|    \\/     M anipulation  |                                                 |
\*---------------------------------------------------------------------------*/
FoamFile
{
    version     2.0;
    format      ascii;
    class       surfaceScalarField;
    location    "0.1";
    object      phi;
}
// * * * * * * * * * * * * * * * * * * * * * * * * * * * * * * * * * * * * * //

dimensions      [0 3 -1 0 0 0 0];

internalField   nonuniform List<scalar> 
87025
(
0.0203503
8.16668e-05
0.0201603
0.000189993
0.0200144
0.000145947
0.0199408
7.35841e-05
0.0199256
1.51357e-05
0.0199345
-8.86946e-06
0.0199423
-7.80033e-06
0.0199403
2.04422e-06
0.0199222
1.80993e-05
0.0198812
4.09321e-05
0.0198177
6.35005e-05
0.0197461
7.16855e-05
0.0196866
5.94794e-05
0.019649
3.75246e-05
0.0196226
2.64394e-05
0.0195837
3.8958e-05
0.0195157
6.79064e-05
0.0194243
9.14866e-05
0.0193303
9.39705e-05
0.0192493
8.09561e-05
0.0191789
7.0472e-05
0.0191053
7.35657e-05
0.0190206
8.47287e-05
0.0189303
9.02159e-05
0.0188453
8.50884e-05
0.0187676
7.76943e-05
0.0186879
7.96316e-05
0.018595
9.29357e-05
0.0184875
0.00010751
0.018375
0.000112487
0.0182668
0.000108156
0.0181614
0.000105493
0.0180466
0.000114761
0.0179117
0.000134868
0.0177581
0.000153655
0.0175991
0.000158942
0.0174492
0.000149886
0.0173115
0.00013778
0.0171737
0.000137712
0.0170156
0.000158186
0.0168199
0.000195689
0.0165826
0.000237279
0.0163139
0.000268655
0.016032
0.000281958
0.0157536
0.000278342
0.0154887
0.000264911
0.0152391
0.000249643
0.0150012
0.000237867
0.0147698
0.000231443
0.01454
0.000229785
0.0143087
0.000231336
0.014074
0.000234627
0.0138353
0.000238682
0.0135923
0.000243004
0.0133449
0.000247401
0.0130931
0.000251825
0.0128368
0.000256279
0.0125761
0.00026077
0.0123108
0.000265302
0.0120409
0.000269873
0.0117664
0.000274476
0.0114873
0.000279096
0.0112036
0.000283712
0.0109153
0.000288321
0.0106224
0.000292914
0.0103249
0.000297471
0.0100229
0.000301964
0.00971657
0.000306367
0.00940592
0.00031065
0.00909114
0.000314781
0.00877242
0.000318723
0.00844998
0.000322435
0.00812411
0.000325874
0.00779512
0.000328989
0.00746339
0.00033173
0.00712935
0.00033404
0.00679349
0.000335861
0.00645636
0.000337133
0.00611856
0.000337795
0.00578077
0.000337792
0.0054437
0.000337069
0.00510812
0.000335579
0.00477484
0.000333285
0.00444467
0.000330163
0.00411847
0.000326205
0.00379704
0.000321425
0.00348118
0.000315862
0.0031716
0.000309583
0.00286892
0.000302684
0.00257362
0.000295292
0.00228606
0.000287564
0.00200638
0.000279683
0.00173452
0.000271857
0.00147021
0.000264306
0.00121295
0.000257265
0.000961994
0.000250954
0.000716393
0.000245602
0.000475046
0.000241347
0.000236676
0.000238371
0.000236676
0.0200465
0.000117726
0.0200924
0.000144058
0.0201466
9.17787e-05
0.0201584
6.17121e-05
0.0201127
6.08766e-05
0.0200563
4.74966e-05
0.0200303
1.81992e-05
0.0200286
3.76198e-06
0.0200214
2.53204e-05
0.0199917
7.06053e-05
0.0199438
0.000111442
0.0198881
0.000127357
0.0198333
0.000114283
0.0197896
8.12864e-05
0.0197694
4.65412e-05
0.0197785
2.99048e-05
0.0198032
4.3188e-05
0.0198121
8.26553e-05
0.0197764
0.000129646
0.0196956
0.000161743
0.019596
0.000170091
0.0195062
0.000163353
0.0194337
0.00015723
0.019364
0.000159865
0.0192828
0.000166298
0.0191934
0.000167075
0.0191134
0.000159701
0.0190545
0.0001518
0.0190082
0.000153804
0.0189518
0.000168928
0.0188697
0.000190225
0.0187683
0.000206923
0.0186696
0.000213391
0.0185914
0.00021316
0.0185297
0.000215347
0.0184618
0.000226767
0.0183652
0.000246491
0.0182355
0.000267508
0.0180904
0.000282772
0.0179575
0.000291135
0.0178556
0.00029758
0.0177849
0.000308026
0.0177289
0.000324645
0.0176652
0.00034558
0.017576
0.000367538
0.017453
0.000387999
0.0172968
0.000405772
0.0171141
0.000420606
0.0169127
0.00043287
0.0166992
0.000443205
0.0164783
0.000452264
0.0162524
0.000460593
0.0160225
0.000468577
0.015789
0.000476452
0.0155521
0.00048435
0.0153115
0.00049234
0.0150674
0.000500454
0.0148194
0.00050871
0.0145676
0.000517114
0.0143118
0.000525668
0.0140519
0.000534368
0.0137878
0.000543208
0.0135194
0.000552179
0.0132464
0.000561273
0.0129688
0.000570474
0.0126865
0.000579763
0.0123994
0.000589115
0.0121073
0.000598504
0.01181
0.000607898
0.0115075
0.000617261
0.0111997
0.000626552
0.0108864
0.000635726
0.0105676
0.00064473
0.010243
0.000653507
0.00991277
0.000661993
0.00957669
0.00067012
0.00923474
0.000677814
0.00888687
0.000684998
0.00853308
0.000691592
0.00817335
0.000697515
0.00780773
0.000702689
0.00743627
0.00070704
0.00705906
0.000710501
0.00667621
0.000713016
0.00628787
0.000714544
0.00589422
0.000715066
0.0054955
0.000714586
0.00509195
0.000713137
0.00468385
0.000710782
0.00427153
0.000707617
0.00385532
0.000703771
0.0034356
0.000699404
0.00301275
0.000694701
0.00258719
0.00068987
0.00215933
0.00068513
0.00172958
0.000680704
0.00129835
0.000676824
0.000866059
0.000673642
0.000432765
0.000671665
0.00066944
0.0205967
0.000564448
0.0203878
0.000352943
0.0203064
0.000173135
0.0202311
0.000137008
0.0201425
0.000149518
0.0200654
0.000124632
0.0200084
7.51295e-05
0.0199575
5.47186e-05
0.0199095
7.32843e-05
0.0198781
0.000101979
0.0198684
0.000121192
0.0198587
0.000137101
0.0198183
0.000154643
0.0197398
0.000159744
0.019649
0.00013736
0.0195812
9.76784e-05
0.0195515
7.29154e-05
0.0195474
8.67846e-05
0.019544
0.000133018
0.0195236
0.000182178
0.0194845
0.00020921
0.0194352
0.000212602
0.0193821
0.000210375
0.0193216
0.000220326
0.0192434
0.00024449
0.0191397
0.000270803
0.0190127
0.000286671
0.0188749
0.000289567
0.0187429
0.000285835
0.0186295
0.000282366
0.0185388
0.000280895
0.018466
0.000279688
0.0183996
0.00027983
0.0183251
0.000287707
0.0182303
0.000310075
0.0181107
0.000346425
0.0179711
0.000386023
0.0178251
0.000413551
0.017688
0.000419867
0.0175703
0.000408825
0.0174736
0.000394327
0.0173906
0.000390981
0.0173089
0.0004064
0.0172149
0.000439546
0.0170988
0.000483665
0.0169563
0.000530426
0.016789
0.000573097
0.0166016
0.000608042
0.0163997
0.000634706
0.0161884
0.000654536
0.015971
0.000669706
0.0157493
0.000682224
0.0155244
0.000693516
0.0152964
0.00070441
0.0150655
0.000715307
0.0148315
0.000726366
0.0145943
0.000737639
0.0143538
0.000749137
0.0141101
0.000760858
0.013863
0.000772802
0.0136124
0.000784962
0.0133582
0.000797335
0.0131005
0.000809913
0.0128391
0.000822684
0.0125739
0.000835637
0.0123049
0.000848753
0.012032
0.000862014
0.0117552
0.000875397
0.0114742
0.000888874
0.011189
0.000902415
0.0108996
0.000915985
0.0106058
0.000929546
0.0103074
0.000943054
0.0100045
0.000956462
0.00969677
0.000969717
0.00938412
0.000982764
0.00906639
0.000995544
0.0087434
0.00100799
0.00841494
0.00102005
0.00808081
0.00103165
0.00774078
0.00104272
0.00739461
0.0010532
0.00704207
0.00106304
0.0066829
0.00107219
0.00631686
0.00108059
0.00594372
0.00108821
0.00556327
0.00109503
0.00517535
0.00110105
0.00477985
0.00110628
0.00437673
0.00111074
0.00396603
0.00111447
0.00354792
0.00111752
0.00312266
0.00111995
0.00269069
0.00112185
0.00225255
0.00112327
0.00180895
0.0011243
0.00136077
0.00112501
0.000909012
0.0011254
0.000454651
0.00112603
0.00112409
0.0199009
0.000291643
0.0200617
0.00019218
0.0200765
0.000158352
0.0200551
0.000158424
0.0200527
0.000151898
0.0200633
0.000113983
0.0200656
7.29174e-05
0.0200506
6.96536e-05
0.0200237
0.0001002
0.0199966
0.000129114
0.0199759
0.000141881
0.0199591
0.00015387
0.0199365
0.000177215
0.0198964
0.000199868
0.0198315
0.000202261
0.0197446
0.000184589
0.0196485
0.000169043
0.0195587
0.000176578
0.0194842
0.000207458
0.0194229
0.000243506
0.0193658
0.00026633
0.019306
0.000272425
0.0192425
0.000273823
0.0191762
0.000286663
0.0191031
0.000317618
0.0190157
0.00035812
0.0189118
0.000390635
0.0187991
0.00040228
0.0186907
0.000394185
0.0185945
0.000378581
0.0185077
0.000367676
0.0184215
0.000365907
0.0183295
0.000371874
0.0182322
0.000384995
0.0181344
0.000407821
0.0180394
0.000441491
0.0179451
0.000480319
0.0178458
0.000512814
0.0177364
0.000529294
0.0176158
0.000529401
0.017487
0.000523075
0.0173534
0.000524607
0.0172152
0.000544635
0.0170694
0.000585333
0.0169123
0.000640805
0.0167415
0.000701194
0.0165572
0.000757416
0.0163611
0.000804112
0.0161557
0.000840087
0.0159432
0.000867018
0.0157253
0.000887686
0.0155028
0.000904697
0.0152764
0.000919915
0.0150464
0.000934443
0.0148128
0.000948838
0.0145758
0.000963346
0.0143354
0.000978062
0.0140915
0.000993024
0.0138441
0.00100825
0.0135932
0.00102373
0.0133387
0.00103948
0.0130805
0.00105549
0.0128187
0.00107174
0.0125532
0.00108824
0.0122838
0.00110495
0.0120107
0.00112187
0.0117338
0.00113897
0.0114529
0.00115623
0.0111682
0.00117361
0.0108795
0.00119108
0.0105869
0.00120862
0.0102903
0.00122618
0.00998961
0.00124372
0.00968488
0.0012612
0.00937602
0.00127857
0.00906299
0.0012958
0.00874571
0.00131282
0.0084241
0.0013296
0.00809807
0.00134608
0.0077675
0.00136222
0.00743224
0.00137798
0.00709214
0.00139331
0.00674701
0.00140817
0.00639665
0.00142254
0.00604084
0.00143639
0.00567936
0.00144969
0.00531197
0.00146242
0.00493846
0.00147457
0.00455864
0.0014861
0.00417237
0.00149701
0.00377957
0.00150727
0.00338027
0.00151682
0.00297459
0.00152563
0.00256283
0.00153361
0.00214539
0.00154071
0.00172286
0.00154682
0.001296
0.00155187
0.000865723
0.00155567
0.000433009
0.00155874
0.0015571
0.0199906
1.58806e-05
0.0200706
0.000112194
0.0200705
0.000158503
0.0201037
0.000125208
0.0201331
0.000122444
0.0201061
0.000141054
0.0200382
0.00014081
0.0199735
0.000134356
0.0199302
0.000143484
0.0198993
0.000159982
0.0198688
0.000172379
0.0198381
0.000184581
0.019809
0.000206318
0.0197759
0.000232992
0.0197292
0.000248978
0.0196654
0.000248296
0.0195904
0.000244048
0.019513
0.000254024
0.01944
0.000280481
0.0193759
0.00030757
0.0193239
0.000318367
0.019284
0.00031228
0.0192517
0.000306125
0.0192186
0.000319752
0.0191765
0.000359762
0.0191201
0.000414464
0.0190477
0.000463098
0.018959
0.000490966
0.0188555
0.000497674
0.0187411
0.000492946
0.0186226
0.00048619
0.0185077
0.000480839
0.0184018
0.000477754
0.0183054
0.000481384
0.0182133
0.000499935
0.0181166
0.000538244
0.0180064
0.000590435
0.0178789
0.000640384
0.0177368
0.000671372
0.0175884
0.00067779
0.017442
0.000669461
0.0173012
0.000665398
0.0171635
0.000682361
0.0170224
0.000726456
0.0168711
0.000792108
0.0167053
0.000867014
0.0165239
0.000938754
0.0163287
0.00099933
0.0161225
0.0010463
0.0159081
0.00108135
0.0156879
0.00110793
0.0154631
0.00112948
0.0152345
0.00114853
0.0150023
0.0011666
0.0147667
0.00118446
0.0145276
0.00120246
0.014285
0.00122072
0.0140387
0.0012393
0.0137887
0.00125819
0.013535
0.00127742
0.0132776
0.00129697
0.0130162
0.00131684
0.0127509
0.00133701
0.0124817
0.00135748
0.0122084
0.00137821
0.0119311
0.00139919
0.0116497
0.00142039
0.0113641
0.00144178
0.0110744
0.00146332
0.0107805
0.00148497
0.0104825
0.0015067
0.0101802
0.00152846
0.00987369
0.00155021
0.00956299
0.0015719
0.00924809
0.00159347
0.008929
0.0016149
0.00860571
0.00163611
0.00827823
0.00165708
0.00794656
0.00167775
0.00761071
0.00169808
0.00727065
0.00171803
0.00692637
0.00173759
0.00657784
0.00175671
0.00622501
0.00177537
0.00586784
0.00179356
0.00550627
0.00181126
0.00514022
0.00182846
0.00476965
0.00184514
0.00439448
0.00186127
0.00401469
0.0018768
0.00363028
0.00189168
0.00324129
0.00190581
0.00284785
0.00191907
0.00245015
0.00193131
0.0020485
0.00194236
0.00164332
0.00195201
0.00123511
0.00196008
0.00082455
0.00196624
0.000412263
0.00197103
0.00196936
0.0199812
-2.75713e-05
0.0200143
7.90313e-05
0.0200351
0.000137703
0.0200437
0.000116664
0.0200483
0.000117882
0.020048
0.000141318
0.0200332
0.000155596
0.0200122
0.000155335
0.0199866
0.000169083
0.0199425
0.000204108
0.0198723
0.000242553
0.019791
0.00026586
0.019728
0.000269414
0.0197
0.000260961
0.0196962
0.000252714
0.0196885
0.000256087
0.0196563
0.000276156
0.0196036
0.000306759
0.0195496
0.000334492
0.0195068
0.00035034
0.0194673
0.000357857
0.0194104
0.000369184
0.0193231
0.000393445
0.0192131
0.000429742
0.019103
0.000469926
0.0190117
0.000505759
0.018941
0.000533737
0.0188772
0.000554754
0.0188045
0.000570428
0.0187177
0.000579767
0.018624
0.000579852
0.0185338
0.000571019
0.0184496
0.000561932
0.018363
0.000568073
0.0182607
0.000602177
0.0181356
0.000663405
0.0179913
0.000734689
0.0178402
0.000791514
0.0176949
0.000816597
0.0175621
0.000810642
0.0174396
0.000791965
0.0173194
0.000785561
0.0171923
0.000809482
0.0170515
0.000867237
0.0168944
0.000949234
0.0167215
0.00103993
0.016535
0.00112527
0.0163374
0.00119691
0.016131
0.00125271
0.0159175
0.0012948
0.0156984
0.0013271
0.0154744
0.00135345
0.0152462
0.0013767
0.0150142
0.00139862
0.0147785
0.00142017
0.0145391
0.00144181
0.0142961
0.00146372
0.0140494
0.00148599
0.013799
0.00150865
0.0135447
0.0015317
0.0132865
0.00155516
0.0130243
0.00157901
0.0127581
0.00160324
0.0124878
0.00162783
0.0122132
0.00165275
0.0119344
0.00167797
0.0116514
0.00170347
0.011364
0.0017292
0.0110722
0.00175512
0.0107759
0.00178119
0.0104753
0.00180737
0.0101701
0.00183359
0.00986052
0.00185982
0.00954642
0.00188599
0.00922786
0.00191204
0.00890483
0.00193792
0.00857737
0.00196358
0.00824549
0.00198895
0.00790925
0.00201399
0.00756869
0.00203864
0.00722386
0.00206286
0.00687482
0.00208662
0.00652165
0.00210987
0.00616442
0.0021326
0.00580321
0.00215477
0.00543811
0.00217637
0.00506921
0.00219737
0.00469661
0.00221774
0.00432042
0.00223746
0.00394076
0.00225646
0.00355778
0.00227467
0.00317162
0.00229197
0.00278248
0.00230821
0.00239058
0.00232321
0.00199619
0.00233675
0.00159961
0.00234858
0.00120121
0.00235848
0.000801401
0.00236604
0.000400537
0.00237189
0.0023699
0.0203302
0.000138214
0.020204
0.000205228
0.0201427
0.00019904
0.020085
0.000174376
0.020038
0.000164843
0.0200131
0.000166279
0.0200038
0.000164883
0.0199901
0.000169014
0.0199684
0.000190737
0.0199387
0.000233843
0.0198992
0.000282073
0.0198507
0.000314308
0.0198006
0.00031951
0.0197588
0.000302838
0.0197271
0.000284378
0.0196962
0.000287032
0.0196532
0.000319071
0.0195936
0.000366383
0.019524
0.000404129
0.0194558
0.000418494
0.019396
0.000417697
0.0193419
0.000423236
0.019284
0.000451405
0.0192123
0.000501383
0.0191246
0.000557664
0.0190285
0.000601835
0.0189375
0.000624737
0.0188605
0.000631739
0.0187939
0.000637044
0.0187233
0.000650432
0.0186346
0.000668497
0.0185254
0.000680239
0.0184049
0.000682417
0.0182847
0.000688293
0.0181684
0.000718505
0.0180505
0.000781277
0.0179242
0.00086093
0.0177894
0.000926354
0.0176533
0.0009527
0.0175251
0.000938869
0.0174087
0.000908328
0.0173
0.000894254
0.0171888
0.000920675
0.0170642
0.00099184
0.0169192
0.00109421
0.0167525
0.00120664
0.016567
0.00131075
0.0163675
0.00139646
0.0161583
0.00146196
0.0159424
0.00151068
0.0157216
0.00154783
0.0154969
0.00157817
0.0152686
0.00160506
0.0150366
0.00163052
0.0148012
0.00165561
0.0145622
0.00168082
0.0143196
0.00170636
0.0140732
0.00173233
0.0138231
0.00175877
0.0135691
0.00178569
0.0133112
0.0018131
0.0130492
0.00184098
0.0127831
0.00186931
0.0125129
0.00189808
0.0122384
0.00192726
0.0119595
0.00195681
0.0116763
0.0019867
0.0113886
0.00201688
0.0110964
0.00204731
0.0107997
0.00207794
0.0104983
0.00210871
0.0101924
0.00213957
0.00988174
0.00217045
0.00956644
0.00220128
0.00924646
0.00223202
0.00892181
0.00226257
0.0085925
0.00229289
0.00825856
0.00232289
0.00792003
0.00235252
0.00757696
0.00238171
0.00722943
0.00241039
0.00687753
0.00243852
0.00652135
0.00246605
0.00616104
0.00249291
0.00579672
0.00251909
0.00542857
0.00254452
0.00505676
0.00256917
0.0046815
0.002593
0.004303
0.00261596
0.0039215
0.00263796
0.00353725
0.00265892
0.0031505
0.00267872
0.00276151
0.00269719
0.00237057
0.00271416
0.00197794
0.00272938
0.00158391
0.00274261
0.00118874
0.00275365
0.000792761
0.00276202
0.000396124
0.00276853
0.00276602
0.0199701
0.000380219
0.0199786
0.00019678
0.0200622
0.00011543
0.0201041
0.000132508
0.0200861
0.00018283
0.0200455
0.000206907
0.0200015
0.000208879
0.0199534
0.000217116
0.0199041
0.000239957
0.0198753
0.000262667
0.0198771
0.000280254
0.019891
0.000300436
0.0198836
0.000326937
0.0198359
0.000350539
0.019758
0.000362303
0.0196749
0.000370137
0.0196025
0.000391431
0.0195386
0.000430266
0.0194736
0.000469168
0.0194053
0.000486751
0.019342
0.000480987
0.0192923
0.000472955
0.0192551
0.000488592
0.0192196
0.000536875
0.0191744
0.000602932
0.0191157
0.000660503
0.0190483
0.00069213
0.0189787
0.000701338
0.0189084
0.000707348
0.0188319
0.000726924
0.0187406
0.000759749
0.0186296
0.000791251
0.018502
0.000810101
0.0183679
0.000822383
0.0182391
0.000847221
0.0181229
0.000897544
0.0180188
0.000965047
0.0179209
0.00102423
0.0178216
0.00105197
0.0177148
0.00104566
0.0175972
0.00102593
0.0174678
0.00102365
0.0173263
0.00106221
0.0171717
0.00114648
0.0170026
0.00126328
0.0168187
0.00139056
0.0166212
0.0015082
0.016413
0.00160465
0.0161973
0.00167771
0.0159765
0.00173142
0.0157523
0.00177201
0.0155254
0.00180512
0.0152958
0.00183469
0.0150633
0.001863
0.0148277
0.00189116
0.0145889
0.00191966
0.0143466
0.00194867
0.0141007
0.00197825
0.013851
0.00200842
0.0135975
0.00203919
0.0133401
0.00207053
0.0130786
0.00210245
0.012813
0.00213492
0.0125432
0.0021679
0.0122691
0.00220137
0.0119906
0.0022353
0.0117076
0.00226963
0.0114202
0.00230432
0.0111282
0.00233933
0.0108315
0.00237459
0.0105302
0.00241004
0.0102242
0.00244562
0.00991335
0.00248126
0.00959775
0.00251688
0.00927736
0.00255241
0.00895216
0.00258777
0.00862216
0.00262289
0.00828737
0.00265768
0.00794784
0.00269205
0.00760362
0.00272593
0.00725476
0.00275925
0.00690138
0.00279191
0.00654356
0.00282386
0.00618146
0.00285502
0.00581523
0.00288531
0.00544506
0.00291469
0.00507117
0.00294306
0.0046938
0.00297038
0.0043132
0.00299655
0.00392968
0.00302148
0.00354353
0.00304508
0.00315506
0.00306719
0.00276459
0.00308767
0.00237242
0.00310632
0.00197887
0.00312294
0.00158421
0.00313728
0.00118869
0.00314916
0.000792592
0.00315813
0.000396002
0.00316512
0.00316203
0.0198726
0.000110635
0.0200226
4.68218e-05
0.0200536
8.44471e-05
0.0200323
0.000153808
0.0200023
0.000212847
0.0199781
0.000231094
0.0199656
0.000221311
0.0199479
0.000234874
0.0199115
0.000276369
0.0198669
0.000307263
0.0198352
0.00031195
0.0198182
0.000317383
0.0197968
0.000348338
0.019754
0.000393384
0.0196938
0.000422514
0.019638
0.000425896
0.0196058
0.000423613
0.0195975
0.000438592
0.0195957
0.000470954
0.0195793
0.00050313
0.0195362
0.00052414
0.0194667
0.00054241
0.0193806
0.000574695
0.0192914
0.000626146
0.0192113
0.000682999
0.0191474
0.000724418
0.019097
0.00074252
0.0190473
0.000750976
0.0189816
0.000773051
0.018889
0.000819552
0.0187709
0.00087783
0.0186391
0.00092313
0.0185071
0.000942104
0.0183834
0.00094604
0.0182697
0.000960928
0.0181636
0.00100367
0.0180619
0.00106672
0.0179617
0.00112441
0.0178595
0.00115413
0.017751
0.00115424
0.0176313
0.00114557
0.0174971
0.00115783
0.0173473
0.0012121
0.0171827
0.00131102
0.0170057
0.00144029
0.0168184
0.00157791
0.0166223
0.00170426
0.0164187
0.00180821
0.0162088
0.0018877
0.0159933
0.00194685
0.0157733
0.00199204
0.0155493
0.00202915
0.0153216
0.00206236
0.0150905
0.00209413
0.0148559
0.00212573
0.0146179
0.00215769
0.0143763
0.00219026
0.014131
0.0022235
0.013882
0.00225743
0.0136292
0.00229206
0.0133723
0.00232737
0.0131114
0.00236335
0.0128464
0.00239997
0.0125771
0.0024372
0.0123035
0.002475
0.0120254
0.00251333
0.0117429
0.00255216
0.0114558
0.00259141
0.0111641
0.00263105
0.0108677
0.002671
0.0105665
0.00271119
0.0102606
0.00275157
0.00994981
0.00279204
0.00963416
0.00283253
0.00931362
0.00287295
0.00898818
0.00291321
0.00865784
0.00295323
0.00832262
0.0029929
0.00798253
0.00303213
0.00763764
0.00307083
0.007288
0.00310889
0.00693369
0.00314622
0.00657484
0.00318272
0.00621156
0.00321829
0.00584403
0.00325285
0.00547242
0.00328629
0.00509697
0.00331852
0.00471792
0.00334943
0.00433554
0.00337893
0.00395013
0.00340689
0.00356202
0.00343319
0.00317152
0.00345768
0.00277899
0.0034802
0.00238474
0.00350057
0.00198909
0.00351858
0.00159235
0.00353402
0.00119478
0.00354673
0.000796636
0.00355627
0.000398023
0.00356373
0.00356005
0.0196758
-0.000171081
0.0198482
-0.000125642
0.0199188
1.39153e-05
0.0199628
0.00010976
0.0199955
0.000180219
0.0200117
0.000214876
0.0199958
0.000237227
0.019961
0.000269598
0.0199343
0.000303107
0.019921
0.000320538
0.0199067
0.000326301
0.0198797
0.00034432
0.0198424
0.000385685
0.0198036
0.000432176
0.0197666
0.000459508
0.0197266
0.000465905
0.0196799
0.00047034
0.0196296
0.000488892
0.0195803
0.000520203
0.0195307
0.000552771
0.0194745
0.000580321
0.019409
0.000607925
0.0193382
0.000645465
0.019268
0.000696332
0.0191996
0.000751379
0.019129
0.000795015
0.0190519
0.000819656
0.0189671
0.000835731
0.0188753
0.00086487
0.0187759
0.000918981
0.0186685
0.000985219
0.0185567
0.0010349
0.0184484
0.00105048
0.0183501
0.00104429
0.0182616
0.00104942
0.0181746
0.00109073
0.0180784
0.00116285
0.017968
0.00123482
0.0178462
0.00127593
0.0177202
0.00128027
0.0175947
0.00127101
0.0174685
0.00128406
0.0173353
0.00134528
0.0171888
0.0014576
0.0170255
0.00160355
0.0168461
0.00175731
0.0166534
0.00189702
0.0164505
0.00201105
0.0162403
0.00209794
0.0160245
0.00216265
0.0158042
0.00221226
0.0155803
0.00225314
0.0153528
0.00228978
0.0151221
0.00232487
0.014888
0.00235978
0.0146506
0.00239514
0.0144096
0.00243121
0.0141651
0.00246808
0.0139167
0.00250576
0.0136645
0.00254425
0.0134084
0.00258354
0.0131481
0.0026236
0.0128837
0.0026644
0.012615
0.0027059
0.0123419
0.00274808
0.0120644
0.00279087
0.0117823
0.00283423
0.0114956
0.0028781
0.0112042
0.00292242
0.0109081
0.00296713
0.0106072
0.00301214
0.0103014
0.00305738
0.00999063
0.00310276
0.00967496
0.0031482
0.00935431
0.0031936
0.00902867
0.00323885
0.00869804
0.00328386
0.00836242
0.00332852
0.00802185
0.00337271
0.00767636
0.00341632
0.00732601
0.00345923
0.00697089
0.00350134
0.00661111
0.0035425
0.00624678
0.00358262
0.00587808
0.00362155
0.00550517
0.00365919
0.00512829
0.0036954
0.00474765
0.00373006
0.00436355
0.00376303
0.00397627
0.00379417
0.00358612
0.00382334
0.00319345
0.00385036
0.00279857
0.00387507
0.00240184
0.0038973
0.00200358
0.00391684
0.0016041
0.0039335
0.00120369
0.00394715
0.000802626
0.00395733
0.000401034
0.00396533
0.00396108
0.0200878
-0.000121581
0.0199968
-3.46718e-05
0.0199418
6.89302e-05
0.0199479
0.000103698
0.0199955
0.000132627
0.0200216
0.000188703
0.0199975
0.000261367
0.0199523
0.000314802
0.0199213
0.00033408
0.0199091
0.000332781
0.0198952
0.000340145
0.0198691
0.000370494
0.0198435
0.000411205
0.0198329
0.000442868
0.0198299
0.000462425
0.0198126
0.000483236
0.0197668
0.000516124
0.0196988
0.000556909
0.0196253
0.000593755
0.0195567
0.000621362
0.019492
0.000644982
0.0194258
0.000674125
0.0193556
0.000715691
0.0192813
0.000770631
0.0192009
0.000831788
0.0191113
0.000884624
0.019014
0.00091691
0.0189177
0.000932059
0.018832
0.000950532
0.0187587
0.000992258
0.0186884
0.00105559
0.0186066
0.00111666
0.0185046
0.00115253
0.018384
0.00116483
0.0182544
0.00117901
0.0181257
0.00121945
0.0180034
0.00128517
0.0178888
0.00134939
0.0177816
0.00138311
0.0176807
0.00138117
0.0175828
0.00136891
0.0174814
0.00138547
0.017368
0.00145869
0.0172352
0.00159038
0.0170796
0.00175916
0.0169022
0.00193473
0.0167072
0.00209205
0.0164997
0.00221848
0.0162844
0.00231324
0.0160644
0.0023827
0.0158413
0.00243539
0.0156157
0.00247872
0.0153877
0.00251778
0.015157
0.00255552
0.0149235
0.00259335
0.0146867
0.00263191
0.0144465
0.00267139
0.0142027
0.00271185
0.0139552
0.00275327
0.0137038
0.00279564
0.0134484
0.00283893
0.0131889
0.0028831
0.0129252
0.00292812
0.0126572
0.00297395
0.0123847
0.00302053
0.0121077
0.00306783
0.0118262
0.00311579
0.01154
0.00316434
0.011249
0.00321341
0.0109532
0.00326294
0.0106524
0.00331284
0.0103468
0.00336303
0.0100361
0.00341342
0.00972044
0.00346389
0.00939968
0.00351436
0.00907382
0.00356471
0.00874286
0.00361482
0.00840682
0.00366456
0.0080657
0.00371382
0.00771956
0.00376246
0.00736844
0.00381035
0.00701243
0.00385734
0.00665163
0.0039033
0.00628617
0.00394808
0.00591619
0.00399153
0.00554188
0.0040335
0.00516345
0.00407384
0.00478111
0.0041124
0.00439515
0.004149
0.00400584
0.00418349
0.00361348
0.00421569
0.00321841
0.00424543
0.00282096
0.00427252
0.00242147
0.00429679
0.00202027
0.00431804
0.00161768
0.00433608
0.00121401
0.00435082
0.000809577
0.00436176
0.000404532
0.00437037
0.00436561
0.0201096
-0.00017371
0.0201299
-5.5041e-05
0.0201349
6.40145e-05
0.0201102
0.0001284
0.0200732
0.000169587
0.0200375
0.000224346
0.02002
0.000278888
0.0200235
0.000311323
0.0200349
0.000322715
0.0200325
0.000335178
0.0200067
0.00036594
0.0199625
0.000414664
0.0199074
0.000466341
0.019845
0.000505277
0.019778
0.00052936
0.0197119
0.000549326
0.0196527
0.000575336
0.0196013
0.000608285
0.0195511
0.000644034
0.0194917
0.000680753
0.0194175
0.00071917
0.0193324
0.000759262
0.0192473
0.000800749
0.0191734
0.000844478
0.0191151
0.000890096
0.0190672
0.000932591
0.019018
0.000966065
0.0189565
0.000993625
0.0188775
0.00102944
0.0187846
0.00108524
0.0186859
0.00115422
0.0185896
0.00121299
0.0184982
0.0012439
0.0184076
0.00125546
0.0183093
0.00127728
0.0181965
0.00133233
0.0180684
0.00141319
0.0179321
0.00148572
0.0177982
0.00151698
0.0176758
0.00150357
0.0175674
0.00147739
0.0174669
0.00148591
0.0173628
0.00156279
0.0172429
0.00171035
0.0170992
0.00190281
0.0169305
0.00210342
0.0167405
0.00228203
0.0165353
0.00242372
0.0163206
0.00252796
0.0161005
0.00260277
0.0158774
0.00265853
0.015652
0.00270404
0.0154246
0.00274524
0.0151947
0.0027854
0.014962
0.00282604
0.0147262
0.00286772
0.014487
0.0029106
0.0142442
0.00295466
0.0139976
0.00299985
0.0137471
0.00304612
0.0134926
0.00309344
0.0132339
0.00314176
0.012971
0.00319104
0.0127037
0.00324123
0.012432
0.00329228
0.0121557
0.00334414
0.0118747
0.00339675
0.011589
0.00345004
0.0112985
0.00350395
0.011003
0.00355838
0.0107026
0.00361326
0.0103972
0.00366849
0.0100866
0.00372397
0.0097709
0.0037796
0.00945002
0.00383524
0.00912393
0.0038908
0.00879263
0.00394612
0.00845611
0.00400109
0.00811439
0.00405554
0.00776751
0.00410934
0.00741552
0.00416234
0.0070585
0.00421436
0.00669656
0.00426525
0.0063298
0.00431484
0.00595837
0.00436295
0.00558246
0.00440941
0.00520227
0.00445404
0.00481801
0.00449665
0.00442994
0.00453706
0.00403835
0.00457508
0.00364353
0.00461051
0.0032458
0.00464316
0.00284549
0.00467283
0.00244295
0.00469933
0.00203851
0.00472249
0.00163251
0.00474208
0.00122528
0.00475805
0.000817162
0.00476988
0.000408349
0.00477918
0.00477396
0.0201156
-0.000157423
0.0200092
5.13472e-05
0.0199508
0.000122368
0.019959
0.000120264
0.0199863
0.000142216
0.0199896
0.000221099
0.0199563
0.000312165
0.01991
0.000357646
0.0198769
0.000355802
0.0198681
0.000344014
0.019873
0.00036104
0.0198717
0.000415936
0.0198495
0.000488518
0.0198036
0.000551136
0.0197435
0.000589517
0.0196836
0.000609222
0.0196326
0.000626323
0.0195879
0.000653016
0.0195413
0.000690589
0.0194894
0.000732694
0.0194353
0.000773287
0.0193823
0.000812257
0.019328
0.00085501
0.0192663
0.000906161
0.0191947
0.000961694
0.0191177
0.0010096
0.019042
0.00104178
0.018969
0.00106663
0.0188927
0.00110576
0.0188051
0.0011728
0.0187044
0.00125495
0.0185974
0.00131997
0.0184952
0.00134616
0.0184041
0.00134653
0.0183203
0.00136104
0.0182311
0.00142156
0.0181229
0.00152138
0.0179907
0.00161789
0.0178414
0.0016663
0.0176895
0.00165553
0.0175484
0.00161843
0.0174236
0.00161072
0.0173097
0.00167666
0.0171945
0.00182563
0.0170651
0.00203216
0.0169141
0.00225442
0.0167406
0.00245557
0.0165484
0.00261594
0.016343
0.00273335
0.0161292
0.00281649
0.0159104
0.00287737
0.0156881
0.00292638
0.0154628
0.00297048
0.0152347
0.00301352
0.0150035
0.00305723
0.014769
0.00310222
0.014531
0.00314859
0.0142893
0.00319632
0.0140439
0.00324533
0.0137944
0.00329556
0.0135409
0.00334696
0.0132832
0.00339947
0.0130212
0.00345305
0.0127548
0.00350765
0.0124838
0.00356322
0.0122083
0.0036197
0.011928
0.00367703
0.0116429
0.00373514
0.0113529
0.00379395
0.0110579
0.00385338
0.0107578
0.00391333
0.0104526
0.0039737
0.0101422
0.00403439
0.00982652
0.00409527
0.00950554
0.00415622
0.00917922
0.00421711
0.00884755
0.00427779
0.00851053
0.00433811
0.00816816
0.00439791
0.00782048
0.00445703
0.00746753
0.00451528
0.00710939
0.0045725
0.00674615
0.00462849
0.00637793
0.00468306
0.00600488
0.00473601
0.00562715
0.00478714
0.00524496
0.00483624
0.00485852
0.0048831
0.00446808
0.0049275
0.00407391
0.00496924
0.00367632
0.0050081
0.00327562
0.00504386
0.00287215
0.00507631
0.00246624
0.00510524
0.00205825
0.00513048
0.00164853
0.0051518
0.00123744
0.00516914
0.000825339
0.00518198
0.00041246
0.00519206
0.00518642
0.0202261
0.000125743
0.0202079
6.9586e-05
0.0201817
0.000148542
0.020111
0.000190957
0.020037
0.000216258
0.0200092
0.00024888
0.0200327
0.000288633
0.0200689
0.000321485
0.0200785
0.000346134
0.020046
0.000376546
0.0199882
0.000418802
0.019933
0.000471164
0.0198893
0.000532217
0.019842
0.000598485
0.0197728
0.000658723
0.0196836
0.000698393
0.019596
0.000713891
0.0195295
0.000719509
0.0194843
0.000735786
0.0194464
0.000770666
0.0194043
0.000815331
0.0193574
0.00085917
0.0193082
0.000904208
0.0192534
0.000960994
0.0191842
0.00103082
0.0190967
0.00109718
0.0189978
0.00114058
0.0189023
0.00116214
0.0188206
0.00118748
0.0187511
0.00124234
0.0186818
0.00132421
0.0186001
0.00140175
0.0185011
0.00144508
0.0183908
0.00145684
0.0182797
0.0014722
0.0181746
0.00152662
0.0180743
0.0016217
0.0179711
0.00172108
0.0178574
0.00177996
0.0177309
0.00178206
0.0175955
0.00175385
0.0174582
0.00174798
0.0173239
0.00181097
0.0171914
0.00195811
0.0170545
0.0021691
0.0169057
0.00240319
0.0167406
0.00262067
0.0165589
0.00279769
0.0163632
0.00292906
0.0161572
0.0030225
0.015944
0.00309054
0.0157257
0.00314464
0.0155034
0.00319276
0.0152776
0.00323939
0.0150482
0.0032866
0.0148153
0.00333514
0.0145787
0.00338518
0.0143383