/*--------------------------------*- C++ -*----------------------------------*\
| =========                 |                                                 |
| \\      /  F ield         | OpenFOAM: The Open Source CFD Toolbox           |
|  \\    /   O peration     | Version:  4.1                                   |
|   \\  /    A nd           | Web:      www.OpenFOAM.org                      |
|    \\/     M anipulation  |                                                 |
\*---------------------------------------------------------------------------*/
FoamFile
{
    version     2.0;
    format      ascii;
    class       surfaceScalarField;
    location    "0.1";
    object      phi_0;
}
// * * * * * * * * * * * * * * * * * * * * * * * * * * * * * * * * * * * * * //

dimensions      [0 3 -1 0 0 0 0];

internalField   nonuniform List<scalar> 
87025
(
0.0203697
0.000135348
0.0201594
0.000210378
0.020007
0.00015237
0.0199312
7.57911e-05
0.019915
1.61817e-05
0.0199228
-7.81605e-06
0.0199298
-6.95159e-06
0.0199271
2.63995e-06
0.0199085
1.85915e-05
0.0198672
4.13136e-05
0.0198035
6.37433e-05
0.0197317
7.17558e-05
0.0196723
5.94073e-05
0.0196349
3.73959e-05
0.0196086
2.63475e-05
0.0195697
3.89294e-05
0.0195018
6.7879e-05
0.0194104
9.13739e-05
0.0193167
9.37506e-05
0.019236
8.06909e-05
0.0191657
7.02367e-05
0.0190923
7.33769e-05
0.0190078
8.45412e-05
0.0189178
8.99845e-05
0.018833
8.48208e-05
0.0187556
7.74397e-05
0.0186761
7.94245e-05
0.0185834
9.27587e-05
0.0184761
0.000107314
0.0183638
0.000112246
0.0182559
0.000107897
0.0181507
0.000105264
0.0180361
0.000114585
0.0179014
0.000134716
0.0177479
0.000153472
0.0175892
0.000158698
0.0174396
0.000149607
0.0173021
0.000137521
0.0171645
0.000137524
0.0170065
0.000158076
0.0168108
0.000195621
0.0165736
0.000237197
0.0163051
0.000268514
0.0160234
0.000281751
0.0157453
0.000278088
0.0154806
0.000264641
0.0152313
0.000249385
0.0149936
0.000237633
0.0147624
0.000231233
0.0145328
0.000229593
0.0143016
0.000231155
0.0140672
0.000234452
0.0138287
0.000238511
0.0135859
0.000242835
0.0133386
0.000247234
0.013087
0.000251659
0.0128308
0.000256114
0.0125702
0.000260607
0.0123051
0.000265141
0.0120354
0.000269713
0.0117611
0.000274317
0.0114821
0.000278938
0.0111986
0.000283556
0.0109104
0.000288165
0.0106176
0.00029276
0.0103203
0.000297317
0.0100185
0.000301812
0.0097123
0.000306215
0.0094018
0.000310499
0.00908717
0.000314631
0.0087686
0.000318573
0.00844631
0.000322286
0.00812059
0.000325725
0.00779174
0.000328842
0.00746016
0.000331583
0.00712627
0.000333893
0.00679055
0.000335715
0.00645357
0.000336987
0.00611592
0.000337651
0.00577827
0.000337648
0.00544134
0.000336926
0.0051059
0.000335437
0.00477276
0.000333145
0.00444274
0.000330024
0.00411667
0.000326068
0.00379538
0.000321289
0.00347965
0.000315728
0.0031702
0.000309451
0.00286764
0.000302555
0.00257248
0.000295166
0.00228504
0.00028744
0.00200548
0.000279562
0.00173374
0.000271738
0.00146955
0.00026419
0.0012124
0.00025715
0.000961558
0.000250841
0.000716067
0.000245491
0.00047483
0.000241237
0.000236568
0.000238262
0.000236568
0.0200094
0.000127521
0.020078
0.000141758
0.0201374
9.29461e-05
0.0201488
6.44481e-05
0.0201016
6.33428e-05
0.0200443
4.94565e-05
0.0200177
1.96964e-05
0.0200154
4.94376e-06
0.0200077
2.63126e-05
0.0199776
7.1365e-05
0.0199295
0.000111904
0.0198737
0.000127508
0.0198189
0.000114171
0.0197753
8.10112e-05
0.0197555
4.62213e-05
0.0197647
2.96382e-05
0.0197896
4.30083e-05
0.0197985
8.25192e-05
0.0197628
0.000129458
0.019682
0.000161432
0.0195826
0.00016966
0.0194931
0.000162869
0.0194209
0.000156759
0.0193515
0.00015942
0.0192704
0.000165844
0.0191813
0.000166583
0.0191015
0.000159184
0.019043
0.000151304
0.0189969
0.000153364
0.0189406
0.000168536
0.0188587
0.00018984
0.0187575
0.000206503
0.0186591
0.000212929
0.0185811
0.000212689
0.0185197
0.000214907
0.018452
0.000226375
0.0183555
0.000246129
0.0182259
0.000267141
0.018081
0.000282375
0.0179484
0.000290716
0.0178469
0.000297164
0.0177764
0.000307634
0.0177206
0.000324281
0.0176572
0.000345235
0.0175681
0.000367202
0.017445
0.000387666
0.017289
0.000405436
0.0171063
0.000420266
0.016905
0.000432527
0.0166918
0.000442859
0.016471
0.000451918
0.0162452
0.000460249
0.0160155
0.000468235
0.0157822
0.000476113
0.0155454
0.000484015
0.0153051
0.000492007
0.0150611
0.000500125
0.0148133
0.000508384
0.0145617
0.000516791
0.014306
0.000525348
0.0140463
0.000534052
0.0137823
0.000542894
0.013514
0.000551868
0.0132412
0.000560964
0.0129638
0.000570167
0.0126817
0.000579458
0.0123947
0.000588812
0.0121027
0.000598203
0.0118056
0.000607598
0.0115032
0.000616963
0.0111956
0.000626256
0.0108824
0.00063543
0.0105637
0.000644436
0.0102393
0.000653214
0.00990922
0.000661701
0.00957328
0.000669829
0.00923148
0.000677524
0.00888375
0.000684708
0.0085301
0.000691303
0.00817052
0.000697227
0.00780505
0.000702402
0.00743373
0.000706754
0.00705666
0.000710217
0.00667395
0.000712733
0.00628575
0.000714264
0.00589225
0.000714787
0.00549367
0.000714309
0.00509026
0.000712862
0.00468231
0.00071051
0.00427013
0.000707348
0.00385406
0.000703505
0.00343448
0.000699141
0.00301178
0.000694441
0.00258636
0.000689612
0.00215863
0.000684876
0.00172902
0.000680451
0.00129794
0.000676574
0.000865781
0.000673393
0.000432626
0.000671417
0.000669194
0.0205614
0.000487496
0.0203706
0.000332559
0.0202941
0.000169404
0.0202198
0.000138819
0.0201304
0.000152679
0.0200525
0.000127345
0.0199951
7.71833e-05
0.0199437
5.6354e-05
0.0198954
7.45446e-05
0.0198639
0.000102844
0.0198541
0.0001217
0.0198443
0.000137352
0.0198038
0.000154675
0.0197253
0.000159522
0.0196346
0.000136899
0.0195671
9.71107e-05
0.0195377
7.24064e-05
0.0195339
8.63959e-05
0.0195306
0.000132673
0.0195103
0.000181745
0.0194714
0.000208629
0.0194223
0.000211922
0.0193694
0.000209695
0.0193091
0.000219703
0.019231
0.000243902
0.0191274
0.000270189
0.0190006
0.000285997
0.0188631
0.000288844
0.0187313
0.000285097
0.0186182
0.000281637
0.0185279
0.000280173
0.0184554
0.000278972
0.0183892
0.000279138
0.0183148
0.000287071
0.0182202
0.000309512
0.0181007
0.00034591
0.0179613
0.000385495
0.0178155
0.000412952
0.0176787
0.000419184
0.0175613
0.000408098
0.0174649
0.000393623
0.0173822
0.00039035
0.0173006
0.000405859
0.0172067
0.000439079
0.0170907
0.000483238
0.0169484
0.000530006
0.0167811
0.000572662
0.0165938
0.000607581
0.0163921
0.00063422
0.016181
0.000654034
0.0159637
0.000669194
0.0157422
0.00068171
0.0155174
0.000693004
0.0152897
0.000703902
0.0150589
0.000714804
0.014825
0.000725869
0.014588
0.000737147
0.0143477
0.00074865
0.0141041
0.000760377
0.0138572
0.000772325
0.0136067
0.00078449
0.0133527
0.000796868
0.0130952
0.000809449
0.0128339
0.000822225
0.0125689
0.00083518
0.0123
0.0008483
0.0120273
0.000861564
0.0117505
0.00087495
0.0114697
0.00088843
0.0111847
0.000901973
0.0108954
0.000915546
0.0106017
0.000929109
0.0103036
0.000942619
0.0100007
0.000956028
0.00969316
0.000969285
0.00938065
0.000982333
0.00906306
0.000995114
0.0087402
0.00100757
0.00841189
0.00101962
0.00807789
0.00103122
0.007738
0.00104229
0.00739198
0.00105278
0.00703957
0.00106262
0.00668054
0.00107176
0.00631464
0.00108016
0.00594164
0.00108779
0.00556133
0.00109461
0.00517356
0.00110064
0.0047782
0.00110587
0.00437522
0.00111033
0.00396467
0.00111406
0.00354671
0.00111711
0.0031216
0.00111955
0.00268977
0.00112144
0.00225178
0.00112287
0.00180834
0.00112389
0.00136031
0.00112461
0.000908705
0.001125
0.000454497
0.00112563
0.00112369
0.0199538
0.000354663
0.0200747
0.000211628
0.0200739
0.000170279
0.0200461
0.00016658
0.0200412
0.000157566
0.0200506
0.000117975
0.0200519
7.58366e-05
0.0200365
7.18176e-05
0.0200093
0.000101749
0.019982
0.000130085
0.0199613
0.000142397
0.0199446
0.000154101
0.019922
0.000177233
0.0198819
0.000199643
0.019817
0.000201777
0.0197302
0.000183934
0.0196343
0.000168355
0.0195447
0.000175934
0.0194706
0.000206829
0.0194095
0.000242809
0.0193526
0.000265518
0.019293
0.000271528
0.0192298
0.000272921
0.0191637
0.000285819
0.0190907
0.000316836
0.0190036
0.000357337
0.0188998
0.000389778
0.0187873
0.000401323
0.0186793
0.000393163
0.0185833
0.000377556
0.0184968
0.000366691
0.0184108
0.000364968
0.018319
0.000370975
0.0182219
0.000384139
0.0181244
0.00040702
0.0180296
0.000440736
0.0179355
0.000479571
0.0178364
0.000512025
0.0177272
0.000528439
0.0176068
0.000528502
0.0174782
0.000522187
0.0173448
0.000523787
0.0172067
0.000543912
0.0170611
0.0005847
0.0169041
0.000640229
0.0167335
0.000700631
0.0165493
0.000756836
0.0163534
0.000803499
0.0161482
0.000839442
0.0159358
0.000866351
0.015718
0.000887007
0.0154957
0.000904015
0.0152695
0.000919235
0.0150396
0.000933769
0.0148063
0.000948171
0.0145695
0.000962685
0.0143292
0.000977409
0.0140855
0.000992378
0.0138382
0.00100761
0.0135875
0.0010231
0.0133331
0.00103885
0.0130751
0.00105487
0.0128134
0.00107113
0.012548
0.00108763
0.0122788
0.00110435
0.0120059
0.00112127
0.0117291
0.00113838
0.0114484
0.00115563
0.0111638
0.00117302
0.0108753
0.0011905
0.0105828
0.00120804
0.0102863
0.0012256
0.00998577
0.00124314
0.00968117
0.00126062
0.00937245
0.001278
0.00905956
0.00129523
0.00874242
0.00131225
0.00842095
0.00132903
0.00809505
0.00134552
0.00776462
0.00136166
0.00742949
0.00137741
0.00708953
0.00139275
0.00674454
0.00140761
0.00639432
0.00142199
0.00603865
0.00143583
0.0056773
0.00144913
0.00531005
0.00146186
0.00493668
0.00147401
0.004557
0.00148555
0.00417087
0.00149646
0.00377821
0.00150671
0.00337906
0.00151627
0.00297353
0.00152507
0.00256191
0.00153306
0.00214462
0.00154016
0.00172225
0.00154627
0.00129554
0.00155132
0.000865414
0.00155512
0.000432854
0.00155819
0.00155654
0.0200146
3.80462e-05
0.0200745
0.000151741
0.0200635
0.000181192
0.0200924
0.000137714
0.0201197
0.000130243
0.0200915
0.0001462
0.0200232
0.000144148
0.0199584
0.000136582
0.0199152
0.000145004
0.0198843
0.000160927
0.0198539
0.000172853
0.0198233
0.00018472
0.0197943
0.000206216
0.0197613
0.000232657
0.0197146
0.000248397
0.0196511
0.00024752
0.0195762
0.000243188
0.019499
0.000253156
0.0194262
0.000279592
0.0193625
0.000306588
0.0193107
0.000317258
0.0192712
0.000311093
0.0192391
0.000304962
0.0192062
0.000318689
0.0191643
0.000358792
0.0191081
0.000413508
0.0190358
0.000462072
0.0189473
0.000489836
0.018844
0.000496467
0.0187298
0.000491714
0.0186116
0.000484966
0.0184969
0.000479631
0.0183913
0.000476572
0.0182952
0.00048026
0.0182033
0.000498901
0.0181067
0.000537302
0.0179968
0.000589534
0.0178694
0.000639448
0.0177275
0.000670346
0.0175793
0.000676682
0.0174331
0.000668337
0.0172926
0.000664341
0.0171551
0.000681425
0.0170141
0.000725643
0.016863
0.000791378
0.0166973
0.000866312
0.0165161
0.000938035
0.016321
0.000998572
0.0161149
0.00104551
0.0159008
0.00108052
0.0156807
0.00110708
0.0154561
0.00112863
0.0152276
0.00114768
0.0149957
0.00116575
0.0147602
0.00118363
0.0145213
0.00120163
0.0142788
0.00121991
0.0140326
0.00123849
0.0137829
0.00125739
0.0135293
0.00127663
0.013272
0.00129619
0.0130108
0.00131606
0.0127457
0.00133625
0.0124766
0.00135672
0.0122035
0.00137746
0.0119263
0.00139845
0.011645
0.00141965
0.0113596
0.00144104
0.0110701
0.00146258
0.0107763
0.00148424
0.0104784
0.00150597
0.0101762
0.00152774
0.00986988
0.00154949
0.00955932
0.00157118
0.00924456
0.00159276
0.00892561
0.00161419
0.00860245
0.00163541
0.00827511
0.00165637
0.00794359
0.00167704
0.00760787
0.00169738
0.00726795
0.00171734
0.0069238
0.00173689
0.00657541
0.00175601
0.00622272
0.00177467
0.00586569
0.00179287
0.00550425
0.00181057
0.00513835
0.00182777
0.00476791
0.00184445
0.00439288
0.00186057
0.00401323
0.00187611
0.00362896
0.00189098
0.00324011
0.00190511
0.00284681
0.00191837
0.00244926
0.00193061
0.00204776
0.00194166
0.00164272
0.0019513
0.00123466
0.00195938
0.00082425
0.00196553
0.000412113
0.00197032
0.00196866
0.019956
3.02028e-05
0.0199944
0.000113345
0.0200178
0.000157786
0.0200272
0.000128317
0.0200322
0.000125301
0.0200322
0.000146163
0.0200175
0.000158861
0.0199966
0.000157487
0.0199711
0.000170535
0.019927
0.000205025
0.0198568
0.000242974
0.0197757
0.000265821
0.0197129
0.000268997
0.0196853
0.000260276
0.0196819
0.000251868
0.0196742
0.000255163
0.0196422
0.000275183
0.0195897
0.000305714
0.0195359
0.000333336
0.0194934
0.000349073
0.0194542
0.000356531
0.0193974
0.000367867
0.0193102
0.000392168
0.0192004
0.00042849
0.0190905
0.000468663
0.0189996
0.000504457
0.0189292
0.000532394
0.0188657
0.00055338
0.0187931
0.00056903
0.0187065
0.000578341
0.0186131
0.000578392
0.0185232
0.000569547
0.0184392
0.000560504
0.0183527
0.000566756
0.0182506
0.000601002
0.0181256
0.000662333
0.0179815
0.000733623
0.0178306
0.000790356
0.0176856
0.000815306
0.0175531
0.00080926
0.0174308
0.000790592
0.0173109
0.000784297
0.0171839
0.000808377
0.0170433
0.000866279
0.0168863
0.000948367
0.0167135
0.00103909
0.0165271
0.0011244
0.0163297
0.001196
0.0161235
0.00125175
0.0159102
0.00129381
0.0156912
0.00132609
0.0154674
0.00135243
0.0152394
0.00137568
0.0150075
0.00139761
0.014772
0.00141917
0.0145328
0.00144082
0.01429
0.00146274
0.0140434
0.00148502
0.0137931
0.00150769
0.013539
0.00153076
0.013281
0.00155423
0.0130189
0.00157809
0.0127529
0.00160232
0.0124827
0.00162692
0.0122083
0.00165184
0.0119296
0.00167707
0.0116467
0.00170258
0.0113594
0.00172831
0.0110678
0.00175424
0.0107717
0.00178032
0.0104712
0.0018065
0.0101662
0.00183273
0.00985672
0.00185896
0.00954277
0.00188513
0.00922435
0.00191119
0.00890146
0.00193707
0.00857414
0.00196273
0.0082424
0.00198811
0.0079063
0.00201315
0.00756587
0.0020378
0.00722118
0.00206203
0.00687228
0.00208578
0.00651925
0.00210904
0.00616216
0.00213176
0.00580109
0.00215394
0.00543613
0.00217553
0.00506737
0.00219653
0.0046949
0.00221691
0.00431885
0.00223663
0.00393933
0.00225563
0.00355649
0.00227383
0.00317047
0.00229113
0.00278147
0.00230737
0.00238972
0.00232237
0.00199547
0.00233591
0.00159903
0.00234774
0.00120077
0.00235764
0.000801111
0.00236519
0.000400392
0.00237104
0.00236905
0.0202887
0.000225748
0.0201697
0.000232355
0.0201164
0.000211103
0.0200633
0.000181333
0.020019
0.000169654
0.0199955
0.000169699
0.019987
0.000167358
0.0199737
0.000170748
0.0199523
0.00019192
0.0199228
0.000234549
0.0198835
0.000282297
0.0198352
0.000314052
0.0197854
0.000318832
0.0197438
0.000301861
0.0197124
0.000283257
0.0196817
0.000285886
0.019639
0.00031792
0.0195795
0.000365153
0.0195101
0.00040274
0.0194423
0.000416945
0.0193827
0.000416077
0.0193289
0.000421654
0.0192712
0.000449911
0.0191997
0.000499944
0.0191122
0.000556203
0.0190164
0.000600288
0.0189257
0.000623096
0.018849
0.000630055
0.0187826
0.00063538
0.0187122
0.00064881
0.0186237
0.000666887
0.0185146
0.000678604
0.0183943
0.000680779
0.0182744
0.000686732
0.0181583
0.000717091
0.0180406
0.000779994
0.0179146
0.000859671
0.0177799
0.000924988
0.0176441
0.000951167
0.0175161
0.00093722
0.0174
0.000906692
0.0172915
0.000892763
0.0171805
0.000919394
0.0170561
0.000990748
0.0169112
0.00109323
0.0167446
0.00120568
0.0165592
0.00130976
0.0163598
0.0013954
0.0161507
0.00146084
0.015935
0.00150952
0.0157145
0.00154665
0.0154899
0.00157698
0.0152617
0.00160388
0.01503
0.00162935
0.0147947
0.00165445
0.0145559
0.00167967
0.0143134
0.00170522
0.0140672
0.00173121
0.0138172
0.00175766
0.0135634
0.00178459
0.0133056
0.00181201
0.0130438
0.00183989
0.0127779
0.00186824
0.0125078
0.00189702
0.0122334
0.0019262
0.0119547
0.00195576
0.0116717
0.00198566
0.0113841
0.00201585
0.0110921
0.00204629
0.0107955
0.00207692
0.0104943
0.0021077
0.0101884
0.00213856
0.00987795
0.00216945
0.0095628
0.00220029
0.00924296
0.00223102
0.00891845
0.00226159
0.00858928
0.0022919
0.00825548
0.00232191
0.00791708
0.00235154
0.00757416
0.00238073
0.00722677
0.00240942
0.006875
0.00243755
0.00651897
0.00246507
0.00615879
0.00249194
0.00579461
0.00251811
0.0054266
0.00254355
0.00505493
0.0025682
0.00467981
0.00259203
0.00430145
0.00261498
0.00392009
0.00263699
0.00353598
0.00265795
0.00314937
0.00267774
0.00276052
0.00269621
0.00236972
0.00271317
0.00197723
0.0027284
0.00158334
0.00274163
0.00118832
0.00275266
0.000792477
0.00276103
0.000395982
0.00276754
0.00276503
0.0198741
0.000270886
0.0199335
0.000172947
0.0200338
0.000110849
0.0200818
0.000133287
0.0200663
0.000185185
0.0200269
0.000209083
0.0199837
0.000210566
0.0199361
0.00021831
0.0198874
0.000240655
0.0198591
0.000262868
0.0198613
0.000280033
0.0198755
0.000299891
0.0198682
0.00032612
0.0198206
0.000349454
0.0197429
0.000360989
0.0196601
0.000368693
0.019588
0.000389948
0.0195245
0.000428737
0.0194597
0.000467514
0.0193917
0.000484927
0.0193287
0.000479052
0.0192793
0.000471041
0.0192425
0.000486797
0.0192072
0.000535194
0.0191621
0.000601268
0.0191037
0.00065875
0.0190365
0.000690256
0.0189672
0.000699403
0.0188971
0.000705448
0.0188208
0.000725105
0.0187297
0.000757979
0.0186189
0.000789464
0.0184914
0.00080828
0.0183575
0.000820588
0.0182291
0.00084553
0.0181131
0.00089597
0.0180092
0.000963514
0.0179116
0.00102262
0.0178125
0.00105023
0.0177059
0.00104383
0.0175885
0.00102413
0.0174593
0.001022
0.0173179
0.00106078
0.0171634
0.00114525
0.0169945
0.00126216
0.0168107
0.00138947
0.0166134
0.00150706
0.0164053
0.00160343
0.0161897
0.00167643
0.0159692
0.00173009
0.0157452
0.00177065
0.0155184
0.00180376
0.0152889
0.00183334
0.0150566
0.00186166
0.0148212
0.00188983
0.0145826
0.00191834
0.0143404
0.00194737
0.0140947
0.00197696
0.0138452
0.00200715
0.0135918
0.00203793
0.0133345
0.00206929
0.0130732
0.00210122
0.0128078
0.00213369
0.0125381
0.00216669
0.0122641
0.00220017
0.0119858
0.0022341
0.011703
0.00226845
0.0114157
0.00230315
0.0111238
0.00233816
0.0108273
0.00237343
0.0105261
0.00240889
0.0102202
0.00244447
0.00990957
0.00248011
0.00959411
0.00251574
0.00927386
0.00255128
0.0089488
0.00258665
0.00861894
0.00262176
0.0082843
0.00265655
0.0079449
0.00269093
0.00760082
0.00272482
0.00725211
0.00275813
0.00689886
0.0027908
0.00654118
0.00282275
0.00617922
0.0028539
0.00581313
0.0028842
0.0054431
0.00291357
0.00506935
0.00294195
0.00469211
0.00296927
0.00431166
0.00299544
0.00392828
0.00302037
0.00354226
0.00304396
0.00315393
0.00306607
0.0027636
0.00308654
0.00237158
0.00310519
0.00197817
0.00312181
0.00158365
0.00313615
0.00118827
0.00314803
0.000792312
0.003157
0.000395861
0.00316399
0.00316089
0.0198673
0.000144246
0.0199951
4.51422e-05
0.020029
7.70058e-05
0.0200104
0.000151864
0.0199823
0.000213321
0.0199592
0.000232126
0.0199475
0.000222266
0.0199303
0.000235574
0.0198942
0.000276675
0.0198501
0.000307034
0.0198188
0.000311258
0.0198023
0.000316434
0.0197812
0.000347234
0.0197386
0.000392065
0.0196786
0.000420912
0.0196233
0.000424067
0.0195915
0.000421701
0.0195836
0.000436684
0.0195821
0.000469027
0.0195659
0.000501122
0.0195229
0.000522057
0.0194536
0.000540328
0.0193677
0.000572679
0.0192787
0.000624184
0.019199
0.00068101
0.0191354
0.000722331
0.0190853
0.000740351
0.0190359
0.000748822
0.0189703
0.000771003
0.0188778
0.000817613
0.0187599
0.000875909
0.0186282
0.000921132
0.0184965
0.000940019
0.0183731
0.000943958
0.0182597
0.000958956
0.0181538
0.00100184
0.0180524
0.00106495
0.0179524
0.00112258
0.0178504
0.00115219
0.017742
0.00115223
0.0176226
0.00114361
0.0174885
0.00115603
0.0173388
0.00121052
0.0171744
0.00130963
0.0169976
0.00143902
0.0168104
0.00157665
0.0166145
0.00170296
0.0164111
0.00180682
0.0162013
0.00188624
0.015986
0.00194534
0.0157662
0.00199051
0.0155423
0.00202762
0.0153148
0.00206083
0.0150838
0.00209262
0.0148494
0.00212423
0.0146116
0.00215621
0.0143701
0.0021888
0.0141251
0.00222205
0.0138762
0.002256
0.0136235
0.00229064
0.0133668
0.00232597
0.0131061
0.00236196
0.0128412
0.00239859
0.012572
0.00243583
0.0122985
0.00247365
0.0120207
0.002512
0.0117383
0.00255083
0.0114513
0.00259009
0.0111598
0.00262974
0.0108635
0.00266969
0.0105625
0.0027099
0.0102567
0.00275028
0.00994603
0.00279075
0.00963052
0.00283125
0.00931013
0.00287168
0.00898483
0.00291194
0.00865463
0.00295196
0.00831954
0.00299164
0.0079796
0.00303087
0.00763484
0.00306957
0.00728534
0.00310763
0.00693117
0.00314496
0.00657246
0.00318147
0.00620932
0.00321704
0.00584193
0.0032516
0.00547046
0.00328504
0.00509515
0.00331726
0.00471624
0.00334818
0.004334
0.00337768
0.00394873
0.00340564
0.00356075
0.00343193
0.0031704
0.00345642
0.00277801
0.00347894
0.0023839
0.0034993
0.00198839
0.00351731
0.00159179
0.00353275
0.00119436
0.00354546
0.000796357
0.003555
0.000397883
0.00356246
0.00355878
0.019681
-0.000133799
0.0198456
-0.00011947
0.0199069
1.57102e-05
0.0199454
0.000113317
0.0199766
0.000182154
0.0199927
0.00021599
0.0199771
0.000237867
0.0199429
0.000269809
0.0199167
0.000302831
0.019904
0.00031978
0.0198901
0.000325192
0.0198635
0.00034301
0.0198265
0.000384213
0.0197881
0.000430474
0.0197515
0.000457545
0.0197118
0.000463757
0.0196653
0.000468128
0.0196153
0.000486679
0.0195664
0.000517971
0.019517
0.000550485
0.0194611
0.000577989
0.0193958
0.000605595
0.0193253
0.000643181
0.0192554
0.000694087
0.0191873
0.000749118
0.019117
0.000792685
0.0190401
0.000817265
0.0189555
0.000833359
0.0188639
0.000862604
0.0187647
0.000916824
0.0186575
0.000983074
0.018546
0.00103265
0.0184379
0.00104812
0.01834
0.00104192
0.0182517
0.00104719
0.0181649
0.00108869
0.0180689
0.00116091
0.0179587
0.00123283
0.0178371
0.00127381
0.0177112
0.00127804
0.017586
0.00126883
0.01746
0.00128206
0.017327
0.00134352
0.0171806
0.00145607
0.0170174
0.00160213
0.0168382
0.00175591
0.0166456
0.00189556
0.0164429
0.00200951
0.0162328
0.00209632
0.0160172
0.00216098
0.0157971
0.00221056
0.0155733
0.00225143
0.0153461
0.00228809
0.0151155
0.00232319
0.0148816
0.00235812
0.0146443
0.0023935
0.0144035
0.00242959
0.0141591
0.00246647
0.0139109
0.00250417
0.0136589
0.00254268
0.0134029
0.00258198
0.0131428
0.00262206
0.0128785
0.00266287
0.0126099
0.00270439
0.012337
0.00274658
0.0120596
0.00278938
0.0117777
0.00283276
0.0114911
0.00287664
0.0111999
0.00292097
0.0109039
0.00296568
0.0106031
0.0030107
0.0102974
0.00305595
0.00998686
0.00310134
0.00967133
0.00314678
0.00935082
0.00319218
0.00902532
0.00323744
0.00869483
0.00328246
0.00835935
0.00332712
0.00801891
0.00337131
0.00767356
0.00341492
0.00732335
0.00345784
0.00696837
0.00349994
0.00660873
0.00354111
0.00624454
0.00358123
0.00587598
0.00362016
0.00550321
0.0036578
0.00512646
0.00369401
0.00474597
0.00372867
0.00436201
0.00376164
0.00397487
0.00379278
0.00358486
0.00382194
0.00319233
0.00384896
0.00279759
0.00387367
0.002401
0.00389589
0.00200288
0.00391543
0.00160354
0.00393209
0.00120327
0.00394574
0.000802346
0.00395592
0.000400894
0.00396391
0.00395967
0.02006
-0.000172211
0.0199764
-3.58286e-05
0.01992
7.20741e-05
0.0199283
0.000105043
0.0199764
0.000134064
0.0200024
0.000189925
0.0199784
0.000261872
0.0199337
0.00031455
0.0199033
0.000333179
0.0198917
0.000331435
0.0198783
0.000338555
0.0198526
0.000368737
0.0198276
0.000409247
0.0198173
0.000440688
0.0198148
0.000460083
0.0197977
0.000480828
0.0197522
0.000513694
0.0196844
0.000554433
0.0196112
0.0005912
0.0195429
0.00061874
0.0194786
0.000642342
0.0194127
0.000671518
0.0193427
0.000713142
0.0192686
0.000768131
0.0191885
0.000829289
0.0190991
0.000882063
0.0190021
0.000914268
0.0189061
0.000929395
0.0188207
0.000947949
0.0187477
0.000989807
0.0186776
0.00105321
0.018596
0.00111424
0.0184941
0.00115001
0.0183737
0.00116229
0.0182444
0.00117656
0.0181159
0.00121716
0.0179938
0.00128297
0.0178795
0.00134715
0.0177726
0.00138073
0.0176719
0.00137871
0.0175742
0.00136651
0.017473
0.00138328
0.0173598
0.00145679
0.0172271
0.00158872
0.0170716
0.00175764
0.0168943
0.00193321
0.0166994
0.00209046
0.0164921
0.00221679
0.016277
0.00231146
0.0160571
0.00238085
0.0158341
0.00243352
0.0156087
0.00247684
0.0153809
0.00251592
0.0151504
0.00255367
0.014917
0.00259153
0.0146804
0.0026301
0.0144404
0.00266961
0.0141968
0.00271008
0.0139494
0.00275153
0.0136982
0.00279392
0.0134429
0.00283722
0.0131836
0.00288141
0.01292
0.00292645
0.0126521
0.00297229
0.0123798
0.00301889
0.012103
0.0030662
0.0118216
0.00311417
0.0115355
0.00316273
0.0112446
0.00321181
0.010949
0.00326135
0.0106484
0.00331126
0.0103429
0.00336146
0.0100324
0.00341185
0.00971682
0.00346234
0.00939619
0.00351281
0.00907047
0.00356316
0.00873966
0.00361328
0.00840375
0.00366303
0.00806277
0.00371229
0.00771676
0.00376093
0.00736578
0.00380882
0.00700991
0.00385581
0.00664925
0.00390177
0.00628393
0.00394655
0.00591409
0.00399
0.00553992
0.00403197
0.00516162
0.00407231
0.00477943
0.00411086
0.00439361
0.00414746
0.00400443
0.00418195
0.00361222
0.00421415
0.00321729
0.00424389
0.00281998
0.00427098
0.00242063
0.00429525
0.00201957
0.0043165
0.00161712
0.00433454
0.00121359
0.00434927
0.000809296
0.00436021
0.000404392
0.00436882
0.00436406
0.0201111
-0.000171351
0.0201236
-4.83062e-05
0.0201218
7.38818e-05
0.0200912
0.000135578
0.0200526
0.000172687
0.0200173
0.000225269
0.0200004
0.000278727
0.0200046
0.000310331
0.0200166
0.000321164
0.0200148
0.000333309
0.0199894
0.000363887
0.0199457
0.000412451
0.019891
0.000463938
0.019829
0.000502676
0.0197625
0.000526614
0.0196968
0.000546512
0.019638
0.000572501
0.019587
0.000605433
0.0195371
0.000641162
0.0194779
0.00067787
0.019404
0.000716287
0.0193191
0.000756383
0.0192344
0.00079788
0.0191609
0.000841625
0.0191029
0.000887252
0.0190552
0.000929731
0.0190063
0.000963183
0.018945
0.000990766
0.0188662
0.00102667
0.0187735
0.00108258
0.0186751
0.00115161
0.018579
0.00121031
0.0184879
0.00124113
0.0183975
0.00125268
0.0182994
0.00127464
0.0181867
0.00132986
0.0180589
0.00141081
0.0179227
0.00148326
0.0177891
0.00151436
0.017667
0.00150084
0.0175588
0.00147473
0.0174586
0.0014835
0.0173546
0.00156072
0.0172348
0.00170857
0.0170912
0.00190118
0.0169226
0.0021018
0.0167328
0.00228032
0.0165277
0.00242188
0.0163131
0.00252602
0.0160932
0.00260076
0.0158703
0.00265648
0.0156451
0.00270199
0.0154178
0.0027432
0.0151881
0.00278338
0.0149556
0.00282405
0.0147199
0.00286576
0.0144809
0.00290866
0.0142382
0.00295274
0.0139918
0.00299795
0.0137415
0.00304425
0.0134871
0.00309159
0.0132286
0.00313992
0.0129658
0.00318922
0.0126987
0.00323942
0.0124271
0.00329049
0.0121509
0.00334237
0.0118701
0.00339499
0.0115846
0.00344829
0.0112942
0.00350221
0.0109989
0.00355665
0.0106986
0.00361154
0.0103933
0.00366678
0.0100828
0.00372227
0.00976729
0.0037779
0.00944654
0.00383356
0.00912059
0.00388911
0.00878942
0.00394444
0.00845304
0.00399941
0.00811146
0.00405387
0.00776472
0.00410767
0.00741287
0.00416067
0.00705599
0.00421269
0.00669418
0.00426358
0.00632756
0.00431317
0.00595627
0.00436128
0.0055805
0.00440774
0.00520044
0.00445237
0.00481632
0.00449498
0.0044284
0.00453539
0.00403694
0.0045734
0.00364226
0.00460883
0.00324467
0.00464148
0.00284451
0.00467115
0.0024421
0.00469765
0.0020378
0.0047208
0.00163195
0.00474039
0.00122486
0.00475636
0.000816881
0.00476819
0.000408208
0.00477749
0.00477227
0.0201358
2.12181e-05
0.0199814
0.000106135
0.019924
0.000131266
0.0199355
0.000124075
0.0199647
0.000143496
0.0199685
0.000221506
0.0199359
0.000311328
0.0198903
0.000355855
0.0198581
0.000353389
0.0198501
0.000341329
0.0198557
0.000358314
0.0198549
0.000413204
0.0198332
0.000485697
0.0197877
0.000548148
0.0197279
0.000586363
0.0196685
0.000605974
0.0196179
0.000623065
0.0195735
0.000649791
0.0195273
0.000687393
0.0194757
0.000729501
0.0194219
0.000770086
0.0193692
0.000809066
0.0193152
0.00085186
0.0192538
0.00090306
0.0191824
0.000958608
0.0191057
0.00100648
0.0190302
0.00103862
0.0189575
0.00106351
0.0188814
0.00110276
0.018794
0.00116994
0.0186935
0.00125213
0.0185868
0.00131704
0.0184848
0.00134311
0.018394
0.00134347
0.0183105
0.00135816
0.0182215
0.00141892
0.0181134
0.00151886
0.0179814
0.0016153
0.0178322
0.00166349
0.0176805
0.00165256
0.0175397
0.00161549
0.0174152
0.00160804
0.0173015
0.00167437
0.0171864
0.00182368
0.0170572
0.00203041
0.0169063
0.00225269
0.0167329
0.00245375
0.0165408
0.00261398
0.0163356
0.00273126
0.016122
0.00281432
0.0159033
0.00287516
0.0156812
0.00292415
0.0154561
0.00296827
0.0152281
0.00301134
0.0149971
0.00305508
0.0147628
0.00310009
0.0145249
0.00314649
0.0142834
0.00319424
0.0140381
0.00324328
0.0137888
0.00329353
0.0135355
0.00334495
0.0132779
0.00339748
0.013016
0.00345108
0.0127498
0.0035057
0.012479
0.00356129
0.0122035
0.00361779
0.0119234
0.00367513
0.0116384
0.00373325
0.0113486
0.00379207
0.0110537
0.00385151
0.0107538
0.00391147
0.0104487
0.00397185
0.0101384
0.00403255
0.0098229
0.00409344
0.00950206
0.0041544
0.00917588
0.00421529
0.00884435
0.00427597
0.00850747
0.0043363
0.00816523
0.0043961
0.00781769
0.00445522
0.00746488
0.00451348
0.00710687
0.00457069
0.00674377
0.00462668
0.00637569
0.00468125
0.00600277
0.0047342
0.00562519
0.00478533
0.00524313
0.00483443
0.00485683
0.00488128
0.00446653
0.00492569
0.00407251
0.00496743
0.00367506
0.00500628
0.0032745
0.00504204
0.00287116
0.00507448
0.00246539
0.00510342
0.00205754
0.00512865
0.00164797
0.00514997
0.00123701
0.00516731
0.000825057
0.00518015
0.000412319
0.00519023
0.00518459
0.020139
0.00013135
0.0201714
7.37445e-05
0.020152
0.000150717
0.0200842
0.000191801
0.0200121
0.000215598
0.0199867
0.000246949
0.0200118
0.000286195
0.0200491
0.000318593
0.0200595
0.000342956
0.0200276
0.000373239
0.0199705
0.000415435
0.0199159
0.000467769
0.0198728
0.00052881
0.0198259
0.000595054
0.0197571
0.000655217
0.0196683
0.000694772
0.0195811
0.000710183
0.0195151
0.000715806
0.0194704
0.000732166
0.0194327
0.000767133
0.019391
0.000811836
0.0193444
0.000855692
0.0192954
0.00090078
0.0192408
0.000957649
0.0191719
0.00102753
0.0190845
0.00109385
0.018986
0.00113717
0.0188908
0.00115871
0.0188094
0.00118416
0.0187402
0.00123919
0.0186711
0.00132115
0.0185895
0.00139864
0.0184908
0.00144185
0.0183807
0.00145358
0.0182698
0.00146907
0.018165
0.00152372
0.0180649
0.00161895
0.0179619
0.00171828
0.0178484
0.00177698
0.0177221
0.00177892
0.0175868
0.00175073
0.0174498
0.00174509
0.0173157
0.00180847
0.0171834
0.00195596
0.0170466
0.00216718
0.016898
0.00240133
0.016733
0.00261872
0.0165514
0.00279559
0.0163558
0.00292682
0.01615
0.00302017
0.015937
0.00308816
0.0157189
0.00314225
0.0154968
0.00319039
0.0152711
0.00323705
0.0150418
0.00328428
0.0148091