/*--------------------------------*- C++ -*----------------------------------*\
| =========                 |                                                 |
| \\      /  F ield         | OpenFOAM: The Open Source CFD Toolbox           |
|  \\    /   O peration     | Version:  4.1                                   |
|   \\  /    A nd           | Web:      www.OpenFOAM.org                      |
|    \\/     M anipulation  |                                                 |
\*---------------------------------------------------------------------------*/
FoamFile
{
    version     2.0;
    format      ascii;
    class       volScalarField;
    location    "0.1";
    object      pMean;
}
// * * * * * * * * * * * * * * * * * * * * * * * * * * * * * * * * * * * * * //

dimensions      [0 2 -2 0 0 0 0];

internalField   nonuniform List<scalar> 
43750
(
344.013
341.468
341.168
340.025
339.052
338.145
337.25
336.363
335.494
334.644
333.815
333.006
332.216
331.444
330.69
329.954
329.236
328.536
327.855
327.192
326.546
325.919
325.309
324.717
324.143
323.586
323.048
322.526
322.022
321.536
321.068
320.616
320.183
319.766
319.367
318.985
318.62
318.273
317.942
317.628
317.331
317.05
316.786
316.539
316.309
316.097
315.901
315.722
315.559
315.413
315.283
315.17
315.073
314.992
314.927
314.879
314.846
314.829
314.828
314.842
314.871
314.916
314.974
315.047
315.133
315.232
315.343
315.467
315.602
315.747
315.903
316.067
316.24
316.42
316.606
316.799
316.995
317.195
317.398
317.602
317.806
318.01
318.212
318.41
318.604
318.793
318.976
319.151
319.317
319.474
319.62
319.755
319.877
319.986
320.081
320.162
320.226
320.276
320.309
320.325
343.862
341.407
341.135
339.993
339.017
338.111
337.219
336.334
335.465
334.615
333.787
332.978
332.187
331.415
330.66
329.924
329.207
328.508
327.826
327.162
326.517
325.889
325.279
324.686
324.112
323.555
323.015
322.494
321.99
321.503
321.034
320.582
320.148
319.731
319.332
318.949
318.584
318.236
317.905
317.591
317.294
317.014
316.75
316.504
316.274
316.061
315.865
315.685
315.522
315.375
315.245
315.13
315.032
314.951
314.885
314.836
314.803
314.786
314.784
314.797
314.826
314.87
314.927
315
315.085
315.184
315.295
315.419
315.553
315.699
315.854
316.019
316.192
316.372
316.559
316.752
316.949
317.15
317.353
317.558
317.764
317.968
318.171
318.371
318.567
318.757
318.941
319.117
319.285
319.444
319.591
319.727
319.851
319.961
320.057
320.138
320.204
320.253
320.287
320.304
343.988
341.43
341.116
339.966
338.99
338.083
337.187
336.3
335.43
334.58
333.751
332.942
332.151
331.378
330.624
329.887
329.169
328.469
327.787
327.123
326.476
325.848
325.237
324.644
324.069
323.511
322.971
322.448
321.943
321.455
320.985
320.533
320.097
319.679
319.279
318.895
318.529
318.179
317.847
317.532
317.233
316.952
316.687
316.439
316.209
315.994
315.797
315.616
315.451
315.303
315.171
315.055
314.956
314.873
314.806
314.755
314.72
314.701
314.698
314.71
314.737
314.779
314.836
314.906
314.991
315.088
315.198
315.32
315.453
315.597
315.751
315.914
316.086
316.265
316.451
316.643
316.839
317.039
317.242
317.446
317.651
317.855
318.057
318.257
318.452
318.642
318.826
319.003
319.171
319.329
319.477
319.613
319.737
319.847
319.944
320.025
320.091
320.141
320.174
320.191
343.639
341.241
340.995
339.871
338.905
338.005
337.115
336.232
335.365
334.516
333.688
332.878
332.087
331.314
330.559
329.822
329.103
328.403
327.72
327.055
326.408
325.779
325.167
324.573
323.997
323.438
322.897
322.373
321.867
321.378
320.907
320.453
320.016
319.597
319.195
318.81
318.443
318.092
317.758
317.442
317.142
316.859
316.593
316.344
316.111
315.896
315.696
315.513
315.347
315.196
315.062
314.945
314.843
314.758
314.69
314.637
314.6
314.579
314.574
314.584
314.609
314.649
314.704
314.772
314.855
314.95
315.058
315.178
315.31
315.452
315.605
315.766
315.937
316.114
316.299
316.489
316.685
316.884
317.085
317.289
317.493
317.697
317.898
318.097
318.292
318.482
318.666
318.842
319.01
319.169
319.316
319.453
319.576
319.687
319.783
319.864
319.93
319.98
320.013
320.03
343.747
341.234
340.945
339.811
338.842
337.937
337.043
336.156
335.287
334.438
333.609
332.799
332.008
331.234
330.479
329.741
329.021
328.32
327.636
326.971
326.323
325.692
325.08
324.484
323.907
323.347
322.804
322.279
321.771
321.281
320.808
320.352
319.914
319.493
319.089
318.702
318.332
317.98
317.644
317.325
317.023
316.738
316.47
316.218
315.983
315.765
315.563
315.377
315.208
315.055
314.918
314.798
314.694
314.606
314.535
314.479
314.44
314.416
314.408
314.416
314.438
314.476
314.528
314.594
314.673
314.766
314.872
314.99
315.119
315.259
315.409
315.569
315.737
315.913
316.096
316.284
316.478
316.675
316.876
317.078
317.28
317.482
317.683
317.881
318.075
318.264
318.446
318.622
318.789
318.946
319.093
319.229
319.352
319.461
319.557
319.637
319.703
319.752
319.786
319.802
343.566
341.075
340.803
339.681
338.723
337.826
336.936
336.053
335.185
334.337
333.508
332.698
331.906
331.132
330.375
329.637
328.917
328.214
327.529
326.862
326.212
325.581
324.966
324.37
323.791
323.229
322.685
322.158
321.648
321.156
320.681
320.223
319.783
319.359
318.953
318.564
318.192
317.837
317.498
317.177
316.873
316.585
316.314
316.06
315.822
315.601
315.395
315.207
315.034
314.878
314.738
314.615
314.507
314.416
314.341
314.283
314.24
314.213
314.202
314.206
314.225
314.259
314.308
314.371
314.447
314.537
314.64
314.754
314.881
315.018
315.165
315.322
315.488
315.661
315.842
316.028
316.219
316.415
316.613
316.813
317.014
317.215
317.414
317.61
317.803
317.99
318.172
318.346
318.512
318.668
318.814
318.949
319.071
319.18
319.275
319.355
319.42
319.469
319.502
319.518
343.403
340.967
340.705
339.571
338.605
337.707
336.818
335.934
335.065
334.216
333.388
332.577
331.785
331.01
330.253
329.513
328.792
328.088
327.402
326.733
326.082
325.449
324.833
324.235
323.654
323.09
322.544
322.015
321.503
321.008
320.531
320.071
319.627
319.201
318.792
318.4
318.025
317.667
317.326
317.001
316.694
316.403
316.129
315.871
315.629
315.404
315.195
315.003
314.826
314.666
314.522
314.395
314.283
314.188
314.11
314.047
314
313.969
313.954
313.954
313.969
313.999
314.044
314.103
314.175
314.261
314.36
314.471
314.594
314.728
314.872
315.025
315.188
315.358
315.536
315.719
315.908
316.101
316.297
316.494
316.693
316.892
317.089
317.284
317.475
317.661
317.841
318.014
318.179
318.334
318.479
318.612
318.733
318.842
318.936
319.015
319.08
319.128
319.161
319.177
343.28
340.811
340.55
339.427
338.465
337.567
336.679
335.797
334.929
334.079
333.249
332.437
331.644
330.868
330.11
329.369
328.646
327.941
327.253
326.583
325.93
325.295
324.677
324.076
323.493
322.927
322.378
321.847
321.332
320.835
320.355
319.892
319.445
319.016
318.604
318.208
317.83
317.468
317.124
316.796
316.484
316.19
315.912
315.65
315.404
315.175
314.961
314.764
314.584
314.419
314.271
314.138
314.022
313.923
313.839
313.772
313.72
313.684
313.664
313.659
313.67
313.696
313.736
313.79
313.858
313.94
314.034
314.141
314.259
314.389
314.529
314.678
314.837
315.004
315.178
315.358
315.543
315.733
315.926
316.121
316.318
316.514
316.709
316.901
317.09
317.275
317.453
317.624
317.788
317.942
318.085
318.218
318.338
318.445
318.538
318.617
318.681
318.729
318.762
318.778
343.13
340.651
340.389
339.267
338.308
337.41
336.52
335.636
334.767
333.918
333.088
332.277
331.483
330.706
329.946
329.204
328.479
327.772
327.083
326.411
325.756
325.119
324.499
323.896
323.31
322.741
322.19
321.655
321.138
320.637
320.154
319.687
319.238
318.805
318.389
317.99
317.607
317.242
316.893
316.561
316.245
315.946
315.663
315.397
315.147
314.912
314.694
314.492
314.306
314.137
313.983
313.846
313.724
313.619
313.53
313.457
313.4
313.359
313.333
313.323
313.328
313.349
313.383
313.432
313.495
313.571
313.661
313.762
313.876
314.001
314.136
314.281
314.435
314.598
314.767
314.944
315.125
315.311
315.501
315.693
315.886
316.079
316.272
316.462
316.649
316.831
317.007
317.177
317.338
317.491
317.633
317.764
317.883
317.989
318.082
318.16
318.223
318.271
318.303
318.319
342.92
340.474
340.217
339.094
338.133
337.236
336.346
335.463
334.594
333.743
332.912
332.098
331.303
330.524
329.763
329.019
328.293
327.584
326.893
326.218
325.561
324.921
324.298
323.693
323.104
322.532
321.978
321.44
320.919
320.415
319.928
319.458
319.005
318.568
318.148
317.744
317.358
316.988
316.634
316.297
315.977
315.673
315.385
315.113
314.858
314.618
314.394
314.187
313.995
313.819
313.66
313.517
313.389
313.278
313.183
313.104
313.041
312.993
312.962
312.945
312.944
312.958
312.987
313.029
313.086
313.157
313.24
313.336
313.444
313.563
313.693
313.833
313.982
314.139
314.304
314.476
314.653
314.835
315.021
315.209
315.398
315.588
315.778
315.965
316.149
316.328
316.502
316.67
316.83
316.98
317.121
317.251
317.369
317.474
317.565
317.643
317.706
317.753
317.785
317.801
342.781
340.291
340.024
338.9
337.941
337.042
336.151
335.265
334.395
333.544
332.712
331.899
331.102
330.322
329.559
328.814
328.086
327.375
326.681
326.005
325.345
324.702
324.077
323.468
322.876
322.301
321.743
321.202
320.677
320.169
319.678
319.204
318.746
318.304
317.88
317.472
317.08
316.705
316.346
316.004
315.678
315.369
315.075
314.798
314.537
314.291
314.061
313.848
313.65
313.467
313.301
313.151
313.017
312.899
312.797
312.712
312.641
312.587
312.548
312.525
312.517
312.524
312.546
312.582
312.632
312.695
312.772
312.861
312.963
313.076
313.199
313.333
313.476
313.628
313.788
313.954
314.126
314.303
314.484
314.668
314.854
315.04
315.225
315.409
315.59
315.767
315.938
316.103
316.261
316.409
316.548
316.676
316.793
316.897
316.988
317.064
317.126
317.173
317.205
317.22
342.583
340.104
339.826
338.698
337.734
336.833
335.942
335.058
334.187
333.334
332.499
331.683
330.885
330.103
329.339
328.591
327.861
327.147
326.451
325.771
325.109
324.463
323.834
323.222
322.627
322.048
321.486
320.941
320.412
319.9
319.404
318.925
318.463
318.016
317.587
317.173
316.776
316.395
316.031
315.683
315.351
315.035
314.736
314.452
314.184
313.932
313.696
313.475
313.27
313.081
312.907
312.75
312.609
312.483
312.374
312.28
312.203
312.141
312.094
312.063
312.047
312.047
312.061
312.089
312.131
312.187
312.257
312.339
312.433
312.538
312.655
312.782
312.919
313.064
313.217
313.378
313.544
313.716
313.892
314.07
314.251
314.433
314.614
314.794
314.971
315.145
315.313
315.475
315.63
315.777
315.913
316.04
316.155
316.257
316.347
316.423
316.484
316.53
316.561
316.577
342.316
339.868
339.6
338.47
337.506
336.605
335.711
334.823
333.951
333.098
332.264
331.447
330.647
329.864
329.098
328.348
327.615
326.9
326.201
325.518
324.853
324.204
323.572
322.956
322.357
321.774
321.208
320.658
320.125
319.608
319.107
318.623
318.155
317.704
317.268
316.849
316.446
316.059
315.689
315.334
314.995
314.673
314.366
314.075
313.8
313.541
313.297
313.069
312.856
312.66
312.478
312.313
312.163
312.03
311.912
311.81
311.724
311.654
311.599
311.559
311.535
311.526
311.531
311.551
311.585
311.632
311.693
311.767
311.853
311.951
312.06
312.179
312.308
312.447
312.593
312.746
312.906
313.072
313.241
313.414
313.59
313.766
313.943
314.118
314.291
314.461
314.626
314.785
314.937
315.081
315.215
315.339
315.452
315.554
315.642
315.716
315.777
315.822
315.853
315.868
342.127
339.657
339.373
338.231
337.261
336.36
335.469
334.582
333.708
332.852
332.015
331.196
330.394
329.609
328.84
328.087
327.352
326.633
325.931
325.246
324.577
323.924
323.288
322.668
322.065
321.478
320.908
320.353
319.815
319.293
318.788
318.298
317.824
317.367
316.926
316.5
316.091
315.697
315.32
314.958
314.612
314.282
313.968
313.67
313.387
313.119
312.867
312.631
312.41
312.204
312.014
311.84
311.682
311.539
311.413
311.302
311.206
311.126
311.062
311.013
310.98
310.961
310.957
310.967
310.992
311.03
311.082
311.147
311.224
311.313
311.413
311.524
311.645
311.775
311.913
312.059
312.212
312.37
312.533
312.7
312.869
313.04
313.211
313.381
313.549
313.714
313.875
314.03
314.179
314.32
314.452
314.573
314.684
314.784
314.87
314.944
315.003
315.048
315.078
315.093
341.866
339.368
339.1
337.969
337.002
336.097
335.2
334.31
333.435
332.579
331.742
330.922
330.118
329.331
328.56
327.806
327.068
326.346
325.641
324.953
324.28
323.624
322.984
322.36
321.752
321.161
320.585
320.026
319.483
318.955
318.444
317.948
317.469
317.005
316.557
316.125
315.709
315.309
314.924
314.555
314.201
313.863
313.541
313.234
312.942
312.666
312.405
312.16
311.93
311.715
311.516
311.332
311.164
311.012
310.875
310.754
310.649
310.559
310.485
310.426
310.382
310.353
310.339
310.339
310.353
310.381
310.423
310.478
310.545
310.624
310.715
310.816
310.928
311.049
311.178
311.316
311.46
311.61
311.766
311.925
312.087
312.251
312.416
312.581
312.744
312.904
313.06
313.211
313.355
313.492
313.621
313.74
313.849
313.946
314.03
314.102
314.161
314.205
314.234
314.249
341.585
339.114
338.836
337.691
336.717
335.813
334.919
334.03
333.153
332.295
331.454
330.632
329.826
329.036
328.263
327.505
326.764
326.04
325.331
324.639
323.962
323.302
322.658
322.03
321.417
320.821
320.241
319.676
319.127
318.594
318.077
317.575
317.089
316.619
316.164
315.725
315.302
314.894
314.501
314.124
313.763
313.416
313.085
312.769
312.469
312.183
311.912
311.657
311.417
311.192
310.983
310.789
310.611
310.448
310.301
310.169
310.053
309.952
309.866
309.796
309.741
309.701
309.676
309.665
309.668
309.685
309.716
309.759
309.815
309.884
309.964
310.055
310.156
310.267
310.387
310.515
310.65
310.791
310.938
311.089
311.244
311.4
311.558
311.716
311.872
312.027
312.177
312.323
312.463
312.596
312.721
312.837
312.943
313.037
313.12
313.19
313.247
313.29
313.319
313.334
341.248
338.77
338.507
337.383
336.419
335.513
334.614
333.722
332.845
331.986
331.145
330.321
329.513
328.721
327.945
327.185
326.441
325.713
325.001
324.305
323.624
322.96
322.311
321.678
321.061
320.459
319.873
319.303
318.748
318.209
317.686
317.177
316.685
316.207
315.746
315.299
314.868
314.452
314.051
313.665
313.295
312.94
312.6
312.275
311.964
311.669
311.388
311.122
310.872
310.636
310.416
310.211
310.022
309.847
309.689
309.545
309.417
309.305
309.207
309.125
309.058
309.006
308.968
308.945
308.936
308.941
308.96
308.991
309.036
309.092
309.16
309.24
309.33
309.43
309.539
309.656
309.781
309.912
310.049
310.191
310.337
310.485
310.635
310.785
310.934
311.082
311.226
311.367
311.501
311.63
311.75
311.862
311.965
312.056
312.137
312.205
312.26
312.302
312.33
312.344
340.998
338.504
338.222
337.079
336.103
335.196
334.3
333.407
332.528
331.666
330.822
329.996
329.186
328.391
327.612
326.848
326.101
325.369
324.653
323.953
323.268
322.599
321.946
321.308
320.685
320.078
319.486
318.91
318.349
317.803
317.272
316.757
316.257
315.772
315.303
314.848
314.408
313.984
313.574
313.18
312.8
312.436
312.086
311.751
311.43
311.124
310.833
310.556
310.294
310.047
309.815
309.599
309.397
309.211
309.04
308.884
308.743
308.618
308.508
308.413
308.333
308.267
308.217
308.18
308.158
308.15
308.155
308.173
308.205
308.248
308.304
308.371
308.448
308.536
308.632
308.738
308.851
308.972
309.098
309.229
309.365
309.504
309.644
309.786
309.927
310.067
310.205
310.338
310.467
310.59
310.706
310.813
310.912
311
311.077
311.143
311.196
311.237
311.264
311.277
340.581
338.119
337.86
336.732
335.765
334.858
333.958
333.064
332.185
331.323
330.478
329.65
328.837
328.04
327.258
326.492
325.741
325.006
324.286
323.582
322.893
322.219
321.56
320.917
320.288
319.675
319.077
318.495
317.927
317.374
316.837
316.314
315.806
315.313
314.836
314.372
313.924
313.491
313.072
312.668
312.279
311.904
311.544
311.198
310.867
310.55
310.247
309.958
309.684
309.425
309.181
308.952
308.737
308.538
308.354
308.185
308.031
307.892
307.768
307.659
307.565
307.485
307.42
307.37
307.333
307.311
307.302
307.306
307.323
307.352
307.394
307.446
307.51
307.584
307.668
307.76
307.861
307.969
308.083
308.203
308.327
308.455
308.586
308.717
308.849
308.981
309.11
309.236
309.358
309.474
309.584
309.687
309.78
309.865
309.938
310.001
310.052
310.091
310.117
310.13
340.284
337.807
337.531
336.387
335.412
334.506
333.609
332.715
331.833
330.969
330.121
329.291
328.475
327.675
326.89
326.12
325.365
324.626
323.902
323.192
322.498
321.819
321.155
320.506
319.872
319.253
318.649
318.059
317.484
316.924
316.379
315.848
315.332
314.831
314.345
313.872
313.415
312.972
312.543
312.129
311.73
311.345
310.974
310.617
310.274
309.945
309.63
309.329
309.043
308.771
308.514
308.271
308.043
307.83
307.632
307.449
307.28
307.127
306.988
306.864
306.755
306.66
306.58
306.514
306.462
306.424
306.399
306.388
306.389
306.403
306.429
306.467
306.516
306.575
306.644
306.722
306.808
306.902
307.003
307.11
307.222
307.337
307.456
307.577
307.698
307.82
307.94
308.057
308.171
308.28
308.383
308.479
308.568
308.647
308.717
308.776
308.825
308.862
308.886
308.899
339.944
337.428
337.147
336.015
335.046
334.137
333.235
332.339
331.457
330.592
329.743
328.911
328.093
327.29
326.502
325.729
324.971
324.227
323.499
322.785
322.086
321.402
320.733
320.078
319.437
318.812
318.201
317.604
317.022
316.455
315.901
315.363
314.838
314.328
313.832
313.35
312.883
312.43
311.991
311.566
311.156
310.759
310.376
310.008
309.652
309.311
308.983
308.67
308.37
308.085
307.813
307.557
307.314
307.087
306.874
306.675
306.492
306.323
306.168
306.028
305.903
305.792
305.695
305.613
305.544
305.489
305.448
305.42
305.404
305.401
305.411
305.432
305.464
305.506
305.559
305.621
305.692
305.771
305.857
305.949
306.047
306.149
306.254
306.362
306.472
306.582
306.691
306.798
306.903
307.003
307.099
307.188
307.27
307.344
307.409
307.464
307.51
307.544
307.567
307.579
339.523
337.029
336.755
335.621
334.652
333.747
332.849
331.953
331.069
330.201
329.35
328.515
327.695
326.888
326.097
325.32
324.557
323.81
323.077
322.358
321.654
320.964
320.289
319.628
318.981
318.349
317.731
317.127
316.538
315.962
315.401
314.853
314.32
313.801
313.296
312.804
312.327
311.863
311.414
310.978
310.556
310.147
309.753
309.371
309.003
308.649
308.308
307.98
307.666
307.367
307.081
306.809
306.552
306.309
306.08
305.865
305.665
305.48
305.309
305.152
305.009
304.881
304.767
304.666
304.58
304.507
304.447
304.401
304.367
304.346
304.337
304.34
304.354
304.379
304.414
304.458
304.512
304.573
304.642
304.718
304.8
304.887
304.978
305.071
305.167
305.264
305.361
305.457
305.551
305.641
305.727
305.808
305.883
305.95
306.009
306.06
306.102
306.133
306.154
306.165
339.041
336.603
336.349
335.222
334.253
333.345
332.445
331.549
330.664
329.795
328.942
328.105
327.282
326.473
325.678
324.897
324.13
323.378
322.64
321.916
321.207
320.511
319.829
319.162
318.508
317.868
317.243
316.631
316.034
315.45
314.88
314.323
313.781
313.252
312.737
312.235
311.747
311.272
310.811
310.364
309.93
309.509
309.102
308.708
308.326
307.958
307.603
307.261
306.933
306.618
306.317
306.029
305.756
305.496
305.251
305.019
304.802
304.599
304.41
304.235
304.074
303.927
303.794
303.675
303.569
303.477
303.398
303.332
303.278
303.237
303.209
303.192
303.186
303.191
303.206
303.231
303.265
303.308
303.359
303.417
303.48
303.55
303.624
303.701
303.782
303.864
303.947
304.029
304.11
304.189
304.264
304.335
304.401
304.461
304.514
304.559
304.596
304.624
304.643
304.653
338.654
336.196
335.926
334.793
333.829
332.928
332.029
331.131
330.244
329.373
328.518
327.678
326.852
326.039
325.241
324.456
323.685
322.928
322.185
321.456
320.741
320.04
319.352
318.678
318.017
317.37
316.737
316.118
315.511
314.919
314.34
313.774
313.222
312.683
312.157
311.645
311.146
310.66
310.187
309.727
309.28
308.846
308.426
308.018
307.622
307.24
306.87
306.513
306.169
305.838
305.521
305.217
304.927
304.65
304.387
304.137
303.902
303.68
303.472
303.278
303.098
302.931
302.778
302.638
302.512
302.399
302.299
302.212
302.137
302.075
302.024
301.986
301.958
301.942
301.936
301.939
301.952
301.974
302.004
302.042
302.086
302.135
302.19
302.25
302.312
302.377
302.444
302.511
302.577
302.643
302.706
302.765
302.821
302.872
302.917
302.955
302.987
303.011
303.027
303.035
338.217
335.74
335.48
334.36
333.398
332.492
331.592
330.694
329.807
328.935
328.078
327.235
326.406
325.59
324.787
323.998
323.223
322.461
321.713
320.979
320.258
319.55
318.856
318.175
317.507
316.853
316.211
315.584
314.969
314.367
313.779
313.204
312.641
312.092
311.556
311.033
310.522
310.024
309.539
309.067
308.607
308.16
307.725
307.303
306.893
306.495
306.109
305.736
305.376
305.029
304.694
304.373
304.065
303.77
303.489
303.22
302.966
302.724
302.496
302.282
302.081
301.893
301.718
301.557
301.409
301.273
301.151
301.041
300.943
300.858
300.784
300.722
300.671
300.631
300.601
300.582
300.571
300.57
300.577
300.592
300.613
300.641
300.675
300.713
300.755
300.801
300.849
300.898
300.948
300.998
301.046
301.092
301.136
301.175
301.211
301.242
301.267
301.286
301.299
301.306
337.754
335.293
335.035
333.919
332.958
332.054
331.152
330.251
329.361
328.486
327.626
326.78
325.947
325.127
324.32
323.527
322.747
321.98
321.226
320.485
319.758
319.044
318.342
317.654
316.979
316.317
315.667
315.031
314.407
313.797
313.198
312.613
312.04
311.48
310.933
310.398
309.876
309.366
308.868
308.382
307.909
307.448
306.999
306.562
306.137
305.723
305.322
304.932
304.555
304.19
303.838
303.498
303.172
302.858
302.557
302.269
301.994
301.732
301.482
301.246
301.023
300.813
300.616
300.432
300.26
300.101
299.954
299.82
299.697
299.587
299.488
299.4
299.324
299.258
299.203
299.157
299.121
299.094
299.075
299.065
299.061
299.065
299.074
299.089
299.108
299.131
299.158
299.186
299.217
299.248
299.279
299.31
299.339
299.366
299.39
299.412
299.429
299.443
299.452
299.456
337.25
334.821
334.575
333.452
332.49
331.587
330.688
329.789
328.898
328.022
327.16
326.311
325.475
324.651
323.84
323.042
322.257
321.485
320.726
319.979
319.245
318.524
317.815
317.12
316.437
315.766
315.108
314.462
313.83
313.209
312.601
312.005
311.421
310.85
310.291
309.744
309.209
308.686
308.175
307.675
307.188
306.713
306.249
305.796
305.355
304.925
304.507
304.1
303.705
303.323
302.952
302.593
302.247
301.913
301.592
301.283
300.986
300.703
300.431
300.173
299.926
299.693
299.471
299.262
299.066
298.881
298.708
298.548
298.399
298.261
298.135
298.02
297.916
297.822
297.739
297.665
297.6
297.545
297.498
297.459
297.427
297.403
297.385
297.373
297.366
297.364
297.366
297.371
297.378
297.388
297.399
297.411
297.423
297.435
297.446
297.456
297.465
297.471
297.476
297.478
336.774
334.357
334.114
332.992
332.028
331.123
330.22
329.317
328.423
327.543
326.678
325.826
324.986
324.158
323.343
322.54
321.75
320.973
320.208
319.455
318.715
317.987
317.272
316.568
315.878
315.199
314.532
313.878
313.235
312.604
311.986
311.379
310.784
310.201
309.63
309.07
308.522
307.986
307.461
306.947
306.445
305.955
305.475
305.007
304.549
304.102
303.667
303.242
302.829
302.427
302.037
301.658
301.292
300.937
300.594
300.264
299.945
299.638
299.343
299.061
298.79
298.531
298.284
298.049
297.826
297.614
297.414
297.226
297.048
296.882
296.726
296.582
296.447
296.323
296.208
296.103
296.008
295.921
295.843
295.772
295.71
295.654
295.605
295.563
295.526
295.494
295.468
295.445
295.427
295.411
295.399
295.389
295.381
295.375
295.37
295.366
295.364
295.362
295.361
295.36
336.319
333.879
333.627
332.504
331.54
330.633
329.73
328.826
327.931
327.049
326.181
325.325
324.482
323.65
322.831
322.023
321.228
320.445
319.674
318.915
318.168
317.433
316.71
316
315.301
314.613
313.938
313.274
312.622
311.982
311.353
310.735
310.129
309.534
308.95
308.378
307.817
307.266
306.727
306.199
305.682
305.175
304.679
304.194
303.719
303.255
302.801
302.358
301.926
301.504
301.094
300.695
300.307
299.93
299.565
299.212
298.87
298.539
298.22
297.912
297.615
297.33
297.056
296.794
296.542
296.302
296.072
295.854
295.646
295.448
295.261
295.084
294.917
294.76
294.612
294.473
294.343
294.221
294.108
294.003
293.905
293.815
293.731
293.654
293.583
293.518
293.459
293.405
293.355
293.311
293.27
293.234
293.203
293.175
293.151
293.131
293.115
293.103
293.095
293.091
335.901
333.404
333.151
332.026
331.053
330.142
329.236
328.329
327.431
326.546
325.674
324.815
323.967
323.131
322.306
321.493
320.692
319.903
319.126
318.361
317.607
316.865
316.134
315.415
314.707
314.011
313.327
312.653
311.991
311.34
310.7
310.072
309.454
308.847
308.251
307.666
307.091
306.527
305.973
305.43
304.897
304.375
303.862
303.36
302.867
302.384
301.912
301.449
300.997
300.555
300.124
299.703
299.293
298.894
298.506
298.128
297.761
297.405
297.06
296.726
296.403
296.09
295.787
295.496
295.214
294.943
294.683
294.432
294.192
293.961
293.74
293.528
293.325
293.132
292.947
292.772
292.604
292.444
292.293
292.149
292.012
291.882
291.76
291.643
291.534
291.43
291.333
291.242
291.157
291.078
291.005
290.938
290.878
290.824
290.777
290.738
290.706
290.681
290.665
290.657
335.455
332.939
332.653
331.521
330.554
329.642
328.73
327.819
326.917
326.029
325.154
324.291
323.439
322.599
321.769
320.951
320.145
319.35
318.566
317.794
317.032
316.283
315.544
314.816
314.1
313.395
312.7
312.017
311.345
310.683
310.032
309.392
308.762
308.142
307.533
306.935
306.346
305.767
305.199
304.64
304.092
303.553
303.024
302.503
301.992
301.491
300.999
300.516
300.043
299.58
299.127
298.684
298.251
297.828
297.416
297.013
296.621
296.239
295.867
295.505
295.153
294.811
294.479
294.156
293.843
293.54
293.246
292.962
292.686
292.42
292.162
291.913
291.673
291.44
291.216
291
290.791
290.589
290.395
290.208
290.028
289.854
289.687
289.527
289.373
289.226
289.085
288.951
288.824
288.705
288.593
288.49
288.395
288.311
288.236
288.172
288.121
288.081
288.054
288.041
334.803
332.368
332.118
330.994
330.025
329.112
328.203
327.291
326.388
325.496
324.618
323.751
322.895
322.049
321.215
320.392
319.579
318.778
317.988
317.209
316.441
315.684
314.937
314.201
313.476
312.762
312.058
311.364
310.681
310.009
309.347
308.694
308.052
307.42
306.798
306.186
305.583
304.99
304.406
303.832
303.267
302.711
302.164
301.626
301.096
300.575
300.063
299.559
299.065
298.58
298.105
297.638
297.182
296.735
296.297
295.869
295.45
295.04
294.64
294.249
293.867
293.495
293.131
292.776
292.43
292.093
291.764
291.443
291.13
290.826
290.529
290.24
289.959
289.684
289.417
289.156
288.902
288.655
288.414
288.179
287.95
287.728
287.511
287.3
287.096
286.898
286.708
286.524
286.348
286.181
286.024
285.877
285.742
285.619
285.511
285.418
285.342
285.284
285.245
285.224
334.339
331.887
331.62
330.482
329.506
328.591
327.677
326.761
325.853
324.958
324.075
323.204
322.343
321.493
320.653
319.824
319.006
318.198
317.401
316.615
315.839
315.073
314.318
313.573
312.839
312.115
311.401
310.697
310.003
309.319
308.644
307.98
307.325
306.68
306.044
305.418
304.8
304.192
303.593
303.003
302.421
301.848
301.284
300.727
300.178
299.637
299.105
298.58
298.064
297.556
297.058
296.568
296.086
295.614
295.15
294.695
294.248
293.81
293.381
292.96
292.547
292.142
291.745
291.357
290.976
290.602
290.236
289.877
289.525
289.18
288.842
288.51
288.184
287.864
287.55
287.242
286.938
286.641
286.348
286.06
285.778
285.5
285.227
284.96
284.699
284.443
284.194
283.953
283.721
283.498
283.286
283.087
282.902
282.734
282.585
282.456
282.35
282.269
282.213
282.186
333.759
331.301
331.056
329.934
328.962
328.045
327.129
326.212
325.302
324.404
323.518
322.642
321.777
320.922
320.077
319.243
318.418
317.605
316.801
316.008
315.224
314.451
313.687
312.934
312.19
311.456
310.732
310.017
309.312
308.616
307.93
307.253
306.585
305.926
305.276
304.635
304.002
303.378
302.763
302.156
301.557
300.966
300.383
299.808
299.24
298.678
298.125
297.579
297.04
296.509
295.987
295.472
294.965
294.467
293.976
293.493
293.018
292.55
292.09
291.638
291.193
290.754
290.323
289.899
289.481
289.069
288.664
288.265
287.871
287.483
287.1
286.722
286.349
285.98
285.616
285.256
284.899
284.546
284.197
283.851
283.508
283.169
282.834
282.502
282.176
281.854
281.539
281.231
280.931
280.642
280.366
280.104
279.86
279.636
279.436
279.263
279.12
279.01
278.935
278.896
333.267
330.807
330.536
329.396
328.415
327.495
326.577
325.657
324.742
323.84
322.949
322.069
321.2
320.34
319.489
318.649
317.819
316.998
316.188
315.387
314.596
313.814
313.042
312.28
311.527
310.783
310.049
309.323
308.607
307.9
307.201
306.512
305.831
305.158
304.494
303.838
303.19
302.55
301.918
301.293
300.677
300.067
299.465
298.87
298.282
297.7
297.125
296.556
295.995
295.44
294.893
294.353
293.82
293.295
292.776
292.265
291.76
291.262
290.77
290.285
289.806
289.333
288.865
288.404
287.947
287.496
287.049
286.607
286.17
285.736
285.306
284.879
284.455
284.034
283.615
283.199
282.784
282.371
281.959
281.549
281.14
280.733
280.327
279.923
279.523
279.126
278.733
278.347
277.97
277.603
277.249
276.912
276.596
276.305
276.042
275.814
275.624
275.477
275.376
275.326
332.629
330.196
329.949
328.829
327.856
326.934
326.01
325.085
324.168
323.262
322.368
321.484
320.609
319.744
318.888
318.042
317.205
316.378
315.56
314.752
313.953
313.163
312.382
311.611
310.848
310.095
309.35
308.614
307.886
307.167
306.456
305.754
305.06
304.374
303.695
303.024
302.361
301.705
301.056
300.415
299.78
299.153
298.531
297.916
297.306
296.703
296.105
295.514
294.929
294.35
293.778
293.212
292.652
292.099
291.552
291.01
290.475
289.945
289.421
288.902
288.388
287.878
287.373
286.873
286.376
285.883
285.393
284.907
284.422
283.94
283.46
282.981
282.503
282.026
281.549
281.072
280.594
280.115
279.636
279.155
278.673
278.189
277.705
277.22
276.735
276.252
275.771
275.295
274.825
274.366
273.921
273.493
273.089
272.714
272.374
272.077
271.828
271.634
271.502
271.433
332.228
329.702
329.414
328.273
327.29
326.364
325.438
324.511
323.589
322.679
321.78
320.891
320.012
319.141
318.279
317.427
316.584
315.75
314.925
314.109
313.302
312.503
311.714
310.932
310.16
309.396
308.64
307.893
307.154
306.422
305.699
304.983
304.275
303.575
302.881
302.195
301.516
300.844
300.178
299.519
298.867
298.22
297.579
296.944
296.314
295.688
295.068
294.453
293.844
293.24
292.642
292.049
291.462
290.88
290.304
289.732
289.165
288.602
288.044
287.49
286.94
286.393
285.849
285.308
284.769
284.233
283.698
283.164
282.631
282.098
281.564
281.03
280.495
279.958
279.418
278.876
278.33
277.781
277.227
276.669
276.106
275.538
274.966
274.39
273.81
273.228
272.645
272.064
271.487
270.919
270.363
269.826
269.315
268.837
268.4
268.015