/*--------------------------------*- C++ -*----------------------------------*\
| =========                 |                                                 |
| \\      /  F ield         | OpenFOAM: The Open Source CFD Toolbox           |
|  \\    /   O peration     | Version:  4.1                                   |
|   \\  /    A nd           | Web:      www.OpenFOAM.org                      |
|    \\/     M anipulation  |                                                 |
\*---------------------------------------------------------------------------*/
FoamFile
{
    version     2.0;
    format      ascii;
    class       volScalarField;
    location    "0.1";
    object      pPrime2Mean;
}
// * * * * * * * * * * * * * * * * * * * * * * * * * * * * * * * * * * * * * //

dimensions      [0 4 -4 0 0 0 0];

internalField   nonuniform List<scalar> 
43750
(
3.63064e+09
3.60521e+09
3.5786e+09
3.55217e+09
3.52593e+09
3.49989e+09
3.47405e+09
3.44841e+09
3.42297e+09
3.39774e+09
3.37272e+09
3.3479e+09
3.32328e+09
3.29888e+09
3.27468e+09
3.25068e+09
3.22689e+09
3.2033e+09
3.17993e+09
3.15675e+09
3.13378e+09
3.11102e+09
3.08847e+09
3.06612e+09
3.04397e+09
3.02204e+09
3.00031e+09
2.97878e+09
2.95747e+09
2.93637e+09
2.91547e+09
2.89479e+09
2.87432e+09
2.85406e+09
2.83402e+09
2.81418e+09
2.79457e+09
2.77517e+09
2.75599e+09
2.73703e+09
2.71829e+09
2.69977e+09
2.68148e+09
2.66342e+09
2.64558e+09
2.62797e+09
2.6106e+09
2.59345e+09
2.57655e+09
2.55988e+09
2.54346e+09
2.52727e+09
2.51134e+09
2.49565e+09
2.48021e+09
2.46503e+09
2.4501e+09
2.43544e+09
2.42104e+09
2.4069e+09
2.39304e+09
2.37945e+09
2.36613e+09
2.3531e+09
2.34035e+09
2.32788e+09
2.31571e+09
2.30384e+09
2.29226e+09
2.28099e+09
2.27003e+09
2.25937e+09
2.24904e+09
2.23902e+09
2.22933e+09
2.21996e+09
2.21093e+09
2.20224e+09
2.19388e+09
2.18588e+09
2.17822e+09
2.17091e+09
2.16397e+09
2.15738e+09
2.15116e+09
2.14531e+09
2.13983e+09
2.13473e+09
2.13e+09
2.12566e+09
2.12171e+09
2.11814e+09
2.11496e+09
2.11217e+09
2.10978e+09
2.10779e+09
2.10619e+09
2.10499e+09
2.10419e+09
2.10379e+09
3.63072e+09
3.60519e+09
3.57854e+09
3.55209e+09
3.52584e+09
3.49979e+09
3.47394e+09
3.4483e+09
3.42286e+09
3.39763e+09
3.37261e+09
3.34779e+09
3.32317e+09
3.29876e+09
3.27456e+09
3.25056e+09
3.22677e+09
3.20319e+09
3.17981e+09
3.15663e+09
3.13366e+09
3.1109e+09
3.08834e+09
3.06599e+09
3.04385e+09
3.02191e+09
3.00018e+09
2.97865e+09
2.95734e+09
2.93623e+09
2.91534e+09
2.89465e+09
2.87418e+09
2.85392e+09
2.83387e+09
2.81404e+09
2.79442e+09
2.77502e+09
2.75584e+09
2.73687e+09
2.71813e+09
2.69961e+09
2.68132e+09
2.66325e+09
2.64541e+09
2.6278e+09
2.61042e+09
2.59327e+09
2.57636e+09
2.55969e+09
2.54326e+09
2.52708e+09
2.51114e+09
2.49545e+09
2.48001e+09
2.46482e+09
2.44989e+09
2.43522e+09
2.42081e+09
2.40667e+09
2.39281e+09
2.37921e+09
2.36589e+09
2.35285e+09
2.34009e+09
2.32763e+09
2.31545e+09
2.30357e+09
2.29199e+09
2.28071e+09
2.26974e+09
2.25908e+09
2.24874e+09
2.23872e+09
2.22902e+09
2.21965e+09
2.21061e+09
2.20191e+09
2.19355e+09
2.18554e+09
2.17788e+09
2.17057e+09
2.16361e+09
2.15702e+09
2.1508e+09
2.14494e+09
2.13946e+09
2.13435e+09
2.12963e+09
2.12528e+09
2.12132e+09
2.11775e+09
2.11457e+09
2.11178e+09
2.10939e+09
2.10739e+09
2.10579e+09
2.10459e+09
2.10379e+09
2.10339e+09
3.63055e+09
3.60505e+09
3.57838e+09
3.55192e+09
3.52565e+09
3.49959e+09
3.47374e+09
3.44809e+09
3.42265e+09
3.39742e+09
3.37239e+09
3.34756e+09
3.32295e+09
3.29854e+09
3.27433e+09
3.25033e+09
3.22654e+09
3.20295e+09
3.17957e+09
3.15639e+09
3.13342e+09
3.11065e+09
3.08809e+09
3.06574e+09
3.04359e+09
3.02165e+09
2.99992e+09
2.97839e+09
2.95708e+09
2.93597e+09
2.91507e+09
2.89438e+09
2.8739e+09
2.85364e+09
2.83358e+09
2.81375e+09
2.79412e+09
2.77472e+09
2.75553e+09
2.73656e+09
2.71782e+09
2.69929e+09
2.68099e+09
2.66292e+09
2.64507e+09
2.62745e+09
2.61007e+09
2.59291e+09
2.576e+09
2.55932e+09
2.54288e+09
2.52669e+09
2.51074e+09
2.49504e+09
2.47959e+09
2.4644e+09
2.44946e+09
2.43478e+09
2.42037e+09
2.40622e+09
2.39234e+09
2.37873e+09
2.3654e+09
2.35235e+09
2.33959e+09
2.32711e+09
2.31492e+09
2.30303e+09
2.29144e+09
2.28015e+09
2.26917e+09
2.2585e+09
2.24815e+09
2.23811e+09
2.2284e+09
2.21902e+09
2.20997e+09
2.20126e+09
2.19289e+09
2.18487e+09
2.1772e+09
2.16988e+09
2.16291e+09
2.15631e+09
2.15008e+09
2.14421e+09
2.13872e+09
2.13361e+09
2.12887e+09
2.12452e+09
2.12055e+09
2.11698e+09
2.11379e+09
2.11099e+09
2.1086e+09
2.1066e+09
2.10499e+09
2.10379e+09
2.10299e+09
2.10259e+09
3.63036e+09
3.60483e+09
3.57814e+09
3.55165e+09
3.52537e+09
3.4993e+09
3.47343e+09
3.44778e+09
3.42233e+09
3.39709e+09
3.37205e+09
3.34723e+09
3.32261e+09
3.29819e+09
3.27399e+09
3.24999e+09
3.22619e+09
3.2026e+09
3.17921e+09
3.15603e+09
3.13306e+09
3.11029e+09
3.08772e+09
3.06537e+09
3.04322e+09
3.02127e+09
2.99953e+09
2.978e+09
2.95668e+09
2.93557e+09
2.91466e+09
2.89397e+09
2.87348e+09
2.85321e+09
2.83315e+09
2.81331e+09
2.79368e+09
2.77427e+09
2.75507e+09
2.7361e+09
2.71734e+09
2.69881e+09
2.6805e+09
2.66241e+09
2.64456e+09
2.62693e+09
2.60954e+09
2.59237e+09
2.57545e+09
2.55876e+09
2.54231e+09
2.52611e+09
2.51015e+09
2.49443e+09
2.47897e+09
2.46377e+09
2.44881e+09
2.43412e+09
2.41969e+09
2.40553e+09
2.39164e+09
2.37802e+09
2.36467e+09
2.35161e+09
2.33883e+09
2.32633e+09
2.31413e+09
2.30222e+09
2.29061e+09
2.27931e+09
2.26831e+09
2.25763e+09
2.24726e+09
2.2372e+09
2.22748e+09
2.21808e+09
2.20902e+09
2.20029e+09
2.1919e+09
2.18386e+09
2.17617e+09
2.16884e+09
2.16186e+09
2.15525e+09
2.149e+09
2.14312e+09
2.13761e+09
2.13249e+09
2.12774e+09
2.12338e+09
2.1194e+09
2.11581e+09
2.11262e+09
2.10982e+09
2.10741e+09
2.10541e+09
2.1038e+09
2.10259e+09
2.10179e+09
2.10139e+09
3.63011e+09
3.60454e+09
3.57781e+09
3.55129e+09
3.52499e+09
3.4989e+09
3.47302e+09
3.44735e+09
3.4219e+09
3.39665e+09
3.37161e+09
3.34678e+09
3.32216e+09
3.29774e+09
3.27353e+09
3.24952e+09
3.22572e+09
3.20213e+09
3.17874e+09
3.15555e+09
3.13257e+09
3.1098e+09
3.08723e+09
3.06487e+09
3.04271e+09
3.02076e+09
2.99902e+09
2.97748e+09
2.95615e+09
2.93503e+09
2.91412e+09
2.89342e+09
2.87293e+09
2.85265e+09
2.83258e+09
2.81273e+09
2.79309e+09
2.77366e+09
2.75446e+09
2.73547e+09
2.71671e+09
2.69816e+09
2.67984e+09
2.66175e+09
2.64388e+09
2.62624e+09
2.60883e+09
2.59166e+09
2.57472e+09
2.55801e+09
2.54155e+09
2.52533e+09
2.50935e+09
2.49363e+09
2.47815e+09
2.46292e+09
2.44795e+09
2.43325e+09
2.4188e+09
2.40462e+09
2.3907e+09
2.37706e+09
2.3637e+09
2.35062e+09
2.33781e+09
2.3253e+09
2.31308e+09
2.30115e+09
2.28952e+09
2.27819e+09
2.26717e+09
2.25646e+09
2.24607e+09
2.236e+09
2.22625e+09
2.21683e+09
2.20774e+09
2.19899e+09
2.19058e+09
2.18252e+09
2.17481e+09
2.16746e+09
2.16046e+09
2.15382e+09
2.14756e+09
2.14166e+09
2.13614e+09
2.13099e+09
2.12623e+09
2.12185e+09
2.11786e+09
2.11426e+09
2.11105e+09
2.10824e+09
2.10583e+09
2.10382e+09
2.1022e+09
2.10099e+09
2.10019e+09
2.09978e+09
3.62981e+09
3.60417e+09
3.57738e+09
3.55083e+09
3.5245e+09
3.49839e+09
3.4725e+09
3.44682e+09
3.42136e+09
3.3961e+09
3.37106e+09
3.34622e+09
3.32159e+09
3.29717e+09
3.27295e+09
3.24894e+09
3.22514e+09
3.20154e+09
3.17815e+09
3.15496e+09
3.13197e+09
3.10919e+09
3.08662e+09
3.06425e+09
3.04208e+09
3.02013e+09
2.99837e+09
2.97683e+09
2.95549e+09
2.93436e+09
2.91344e+09
2.89273e+09
2.87223e+09
2.85194e+09
2.83186e+09
2.812e+09
2.79235e+09
2.77291e+09
2.7537e+09
2.7347e+09
2.71592e+09
2.69736e+09
2.67902e+09
2.66091e+09
2.64303e+09
2.62538e+09
2.60795e+09
2.59076e+09
2.5738e+09
2.55708e+09
2.5406e+09
2.52436e+09
2.50836e+09
2.49262e+09
2.47712e+09
2.46187e+09
2.44688e+09
2.43215e+09
2.41768e+09
2.40348e+09
2.38954e+09
2.37587e+09
2.36249e+09
2.34938e+09
2.33655e+09
2.32401e+09
2.31176e+09
2.2998e+09
2.28815e+09
2.27679e+09
2.26574e+09
2.25501e+09
2.24459e+09
2.23449e+09
2.22471e+09
2.21526e+09
2.20615e+09
2.19737e+09
2.18893e+09
2.18085e+09
2.17311e+09
2.16573e+09
2.1587e+09
2.15204e+09
2.14575e+09
2.13983e+09
2.13429e+09
2.12912e+09
2.12434e+09
2.11994e+09
2.11594e+09
2.11232e+09
2.1091e+09
2.10628e+09
2.10385e+09
2.10183e+09
2.10021e+09
2.09899e+09
2.09818e+09
2.09778e+09
3.62945e+09
3.60368e+09
3.57684e+09
3.55025e+09
3.52389e+09
3.49777e+09
3.47186e+09
3.44618e+09
3.4207e+09
3.39544e+09
3.37039e+09
3.34555e+09
3.32091e+09
3.29649e+09
3.27227e+09
3.24825e+09
3.22444e+09
3.20083e+09
3.17743e+09
3.15424e+09
3.13125e+09
3.10846e+09
3.08588e+09
3.0635e+09
3.04133e+09
3.01936e+09
2.9976e+09
2.97605e+09
2.9547e+09
2.93356e+09
2.91263e+09
2.89191e+09
2.8714e+09
2.85109e+09
2.831e+09
2.81113e+09
2.79146e+09
2.77201e+09
2.75278e+09
2.73377e+09
2.71497e+09
2.6964e+09
2.67804e+09
2.65992e+09
2.64201e+09
2.62434e+09
2.6069e+09
2.58968e+09
2.5727e+09
2.55596e+09
2.53946e+09
2.5232e+09
2.50718e+09
2.49141e+09
2.47588e+09
2.46061e+09
2.4456e+09
2.43084e+09
2.41634e+09
2.40211e+09
2.38814e+09
2.37445e+09
2.36103e+09
2.34789e+09
2.33503e+09
2.32246e+09
2.31018e+09
2.29819e+09
2.2865e+09
2.27511e+09
2.26403e+09
2.25326e+09
2.24281e+09
2.23267e+09
2.22286e+09
2.21338e+09
2.20423e+09
2.19542e+09
2.18696e+09
2.17883e+09
2.17106e+09
2.16365e+09
2.1566e+09
2.14991e+09
2.14359e+09
2.13764e+09
2.13207e+09
2.12688e+09
2.12207e+09
2.11765e+09
2.11362e+09
2.10999e+09
2.10675e+09
2.10391e+09
2.10148e+09
2.09944e+09
2.09781e+09
2.09659e+09
2.09577e+09
2.09537e+09
3.62873e+09
3.60302e+09
3.57616e+09
3.54954e+09
3.52317e+09
3.49703e+09
3.47111e+09
3.44542e+09
3.41994e+09
3.39467e+09
3.36961e+09
3.34476e+09
3.32012e+09
3.29569e+09
3.27146e+09
3.24744e+09
3.22362e+09
3.20001e+09
3.17661e+09
3.1534e+09
3.1304e+09
3.10761e+09
3.08502e+09
3.06263e+09
3.04045e+09
3.01848e+09
2.9967e+09
2.97514e+09
2.95378e+09
2.93263e+09
2.91169e+09
2.89095e+09
2.87042e+09
2.85011e+09
2.83e+09
2.81011e+09
2.79043e+09
2.77096e+09
2.75171e+09
2.73268e+09
2.71387e+09
2.69527e+09
2.6769e+09
2.65875e+09
2.64083e+09
2.62313e+09
2.60567e+09
2.58843e+09
2.57143e+09
2.55466e+09
2.53813e+09
2.52184e+09
2.5058e+09
2.49e+09
2.47444e+09
2.45914e+09
2.4441e+09
2.42931e+09
2.41478e+09
2.40051e+09
2.38652e+09
2.37279e+09
2.35933e+09
2.34616e+09
2.33326e+09
2.32066e+09
2.30834e+09
2.29631e+09
2.28458e+09
2.27316e+09
2.26204e+09
2.25123e+09
2.24074e+09
2.23056e+09
2.22071e+09
2.21119e+09
2.202e+09
2.19315e+09
2.18465e+09
2.17649e+09
2.16868e+09
2.16123e+09
2.15414e+09
2.14741e+09
2.14106e+09
2.13508e+09
2.12948e+09
2.12426e+09
2.11942e+09
2.11498e+09
2.11092e+09
2.10727e+09
2.10401e+09
2.10115e+09
2.0987e+09
2.09665e+09
2.09501e+09
2.09378e+09
2.09296e+09
2.09255e+09
3.6281e+09
3.60226e+09
3.57535e+09
3.54871e+09
3.52232e+09
3.49617e+09
3.47025e+09
3.44454e+09
3.41906e+09
3.39378e+09
3.36872e+09
3.34386e+09
3.31922e+09
3.29478e+09
3.27055e+09
3.24652e+09
3.22269e+09
3.19908e+09
3.17566e+09
3.15245e+09
3.12944e+09
3.10664e+09
3.08404e+09
3.06164e+09
3.03945e+09
3.01746e+09
2.99568e+09
2.9741e+09
2.95273e+09
2.93157e+09
2.91061e+09
2.88986e+09
2.86932e+09
2.84898e+09
2.82886e+09
2.80895e+09
2.78925e+09
2.76977e+09
2.7505e+09
2.73145e+09
2.71261e+09
2.694e+09
2.6756e+09
2.65743e+09
2.63948e+09
2.62176e+09
2.60427e+09
2.587e+09
2.56997e+09
2.55318e+09
2.53662e+09
2.5203e+09
2.50422e+09
2.48839e+09
2.4728e+09
2.45747e+09
2.44239e+09
2.42756e+09
2.413e+09
2.3987e+09
2.38466e+09
2.37089e+09
2.3574e+09
2.34418e+09
2.33125e+09
2.3186e+09
2.30624e+09
2.29417e+09
2.2824e+09
2.27093e+09
2.25976e+09
2.24891e+09
2.23837e+09
2.22815e+09
2.21825e+09
2.20869e+09
2.19945e+09
2.19056e+09
2.18201e+09
2.1738e+09
2.16595e+09
2.15846e+09
2.15133e+09
2.14456e+09
2.13817e+09
2.13215e+09
2.12651e+09
2.12126e+09
2.11639e+09
2.11191e+09
2.10783e+09
2.10415e+09
2.10087e+09
2.09799e+09
2.09552e+09
2.09346e+09
2.0918e+09
2.09056e+09
2.08974e+09
2.08932e+09
3.62723e+09
3.60131e+09
3.57438e+09
3.54774e+09
3.52134e+09
3.49519e+09
3.46926e+09
3.44355e+09
3.41806e+09
3.39278e+09
3.36771e+09
3.34285e+09
3.3182e+09
3.29376e+09
3.26952e+09
3.24548e+09
3.22165e+09
3.19802e+09
3.1746e+09
3.15138e+09
3.12836e+09
3.10555e+09
3.08294e+09
3.06053e+09
3.03833e+09
3.01633e+09
2.99453e+09
2.97294e+09
2.95155e+09
2.93037e+09
2.9094e+09
2.88863e+09
2.86807e+09
2.84772e+09
2.82758e+09
2.80765e+09
2.78793e+09
2.76843e+09
2.74913e+09
2.73006e+09
2.7112e+09
2.69256e+09
2.67414e+09
2.65594e+09
2.63796e+09
2.62022e+09
2.60269e+09
2.5854e+09
2.56834e+09
2.55151e+09
2.53492e+09
2.51856e+09
2.50245e+09
2.48658e+09
2.47096e+09
2.45559e+09
2.44047e+09
2.4256e+09
2.411e+09
2.39665e+09
2.38257e+09
2.36876e+09
2.35523e+09
2.34196e+09
2.32898e+09
2.31628e+09
2.30387e+09
2.29176e+09
2.27994e+09
2.26842e+09
2.2572e+09
2.2463e+09
2.23571e+09
2.22544e+09
2.21549e+09
2.20587e+09
2.19659e+09
2.18764e+09
2.17904e+09
2.17079e+09
2.16288e+09
2.15534e+09
2.14816e+09
2.14135e+09
2.13491e+09
2.12885e+09
2.12317e+09
2.11788e+09
2.11297e+09
2.10846e+09
2.10435e+09
2.10064e+09
2.09733e+09
2.09443e+09
2.09194e+09
2.08986e+09
2.08819e+09
2.08694e+09
2.0861e+09
2.08569e+09
3.62596e+09
3.60013e+09
3.57325e+09
3.54662e+09
3.52024e+09
3.49409e+09
3.46816e+09
3.44245e+09
3.41695e+09
3.39167e+09
3.36659e+09
3.34173e+09
3.31707e+09
3.29262e+09
3.26837e+09
3.24433e+09
3.22049e+09
3.19685e+09
3.17342e+09
3.15019e+09
3.12716e+09
3.10434e+09
3.08172e+09
3.0593e+09
3.03708e+09
3.01506e+09
2.99325e+09
2.97165e+09
2.95025e+09
2.92905e+09
2.90806e+09
2.88727e+09
2.86669e+09
2.84632e+09
2.82616e+09
2.80621e+09
2.78647e+09
2.76694e+09
2.74762e+09
2.72852e+09
2.70964e+09
2.69097e+09
2.67252e+09
2.65429e+09
2.63629e+09
2.6185e+09
2.60095e+09
2.58362e+09
2.56653e+09
2.54966e+09
2.53303e+09
2.51664e+09
2.50049e+09
2.48458e+09
2.46892e+09
2.45351e+09
2.43834e+09
2.42343e+09
2.40878e+09
2.39439e+09
2.38026e+09
2.3664e+09
2.35282e+09
2.3395e+09
2.32647e+09
2.31372e+09
2.30126e+09
2.28908e+09
2.27721e+09
2.26563e+09
2.25436e+09
2.2434e+09
2.23275e+09
2.22242e+09
2.21242e+09
2.20274e+09
2.1934e+09
2.1844e+09
2.17574e+09
2.16743e+09
2.15947e+09
2.15188e+09
2.14465e+09
2.13778e+09
2.13129e+09
2.12518e+09
2.11946e+09
2.11412e+09
2.10917e+09
2.10462e+09
2.10047e+09
2.09673e+09
2.09339e+09
2.09046e+09
2.08795e+09
2.08585e+09
2.08416e+09
2.0829e+09
2.08206e+09
2.08164e+09
3.62434e+09
3.59876e+09
3.57197e+09
3.54538e+09
3.51901e+09
3.49287e+09
3.46694e+09
3.44123e+09
3.41573e+09
3.39044e+09
3.36536e+09
3.34049e+09
3.31583e+09
3.29137e+09
3.26711e+09
3.24306e+09
3.21922e+09
3.19557e+09
3.17213e+09
3.14889e+09
3.12585e+09
3.10301e+09
3.08038e+09
3.05794e+09
3.03571e+09
3.01368e+09
2.99186e+09
2.97023e+09
2.94881e+09
2.9276e+09
2.90659e+09
2.88578e+09
2.86518e+09
2.84479e+09
2.8246e+09
2.80463e+09
2.78486e+09
2.76531e+09
2.74596e+09
2.72683e+09
2.70792e+09
2.68922e+09
2.67074e+09
2.65248e+09
2.63444e+09
2.61663e+09
2.59904e+09
2.58167e+09
2.56454e+09
2.54764e+09
2.53097e+09
2.51454e+09
2.49834e+09
2.48239e+09
2.46668e+09
2.45122e+09
2.43601e+09
2.42105e+09
2.40635e+09
2.39191e+09
2.37773e+09
2.36381e+09
2.35017e+09
2.3368e+09
2.32371e+09
2.3109e+09
2.29838e+09
2.28615e+09
2.27421e+09
2.26258e+09
2.25124e+09
2.24022e+09
2.22951e+09
2.21911e+09
2.20905e+09
2.19931e+09
2.1899e+09
2.18083e+09
2.17211e+09
2.16374e+09
2.15572e+09
2.14807e+09
2.14077e+09
2.13385e+09
2.12731e+09
2.12114e+09
2.11536e+09
2.10998e+09
2.10498e+09
2.10039e+09
2.0962e+09
2.09242e+09
2.08904e+09
2.08609e+09
2.08355e+09
2.08142e+09
2.07972e+09
2.07845e+09
2.0776e+09
2.07717e+09
3.62302e+09
3.59738e+09
3.5706e+09
3.54403e+09
3.51767e+09
3.49153e+09
3.46561e+09
3.4399e+09
3.41439e+09
3.3891e+09
3.36402e+09
3.33914e+09
3.31447e+09
3.29001e+09
3.26575e+09
3.24169e+09
3.21783e+09
3.19417e+09
3.17072e+09
3.14747e+09
3.12442e+09
3.10157e+09
3.07892e+09
3.05647e+09
3.03422e+09
3.01218e+09
2.99033e+09
2.96869e+09
2.94725e+09
2.92602e+09
2.90499e+09
2.88416e+09
2.86354e+09
2.84312e+09
2.82291e+09
2.80291e+09
2.78311e+09
2.76353e+09
2.74416e+09
2.725e+09
2.70605e+09
2.68732e+09
2.66881e+09
2.65052e+09
2.63244e+09
2.61459e+09
2.59696e+09
2.57956e+09
2.56238e+09
2.54543e+09
2.52872e+09
2.51224e+09
2.496e+09
2.48e+09
2.46425e+09
2.44873e+09
2.43347e+09
2.41846e+09
2.4037e+09
2.3892e+09
2.37497e+09
2.361e+09
2.34729e+09
2.33386e+09
2.32071e+09
2.30784e+09
2.29525e+09
2.28295e+09
2.27095e+09
2.25925e+09
2.24784e+09
2.23675e+09
2.22597e+09
2.21551e+09
2.20537e+09
2.19556e+09
2.18608e+09
2.17695e+09
2.16816e+09
2.15971e+09
2.15163e+09
2.1439e+09
2.13655e+09
2.12956e+09
2.12296e+09
2.11673e+09
2.11089e+09
2.10545e+09
2.10041e+09
2.09576e+09
2.09153e+09
2.0877e+09
2.08429e+09
2.0813e+09
2.07873e+09
2.07659e+09
2.07487e+09
2.07358e+09
2.07271e+09
2.07228e+09
3.62153e+09
3.5959e+09
3.56913e+09
3.54257e+09
3.51622e+09
3.49009e+09
3.46417e+09
3.43845e+09
3.41295e+09
3.38766e+09
3.36257e+09
3.33769e+09
3.31301e+09
3.28854e+09
3.26427e+09
3.2402e+09
3.21633e+09
3.19267e+09
3.1692e+09
3.14594e+09
3.12287e+09
3.10001e+09
3.07734e+09
3.05488e+09
3.03262e+09
3.01055e+09
2.98869e+09
2.96703e+09
2.94557e+09
2.92431e+09
2.90326e+09
2.88241e+09
2.86176e+09
2.84132e+09
2.82108e+09
2.80105e+09
2.78123e+09
2.76162e+09
2.74221e+09
2.72302e+09
2.70404e+09
2.68527e+09
2.66672e+09
2.64839e+09
2.63028e+09
2.61238e+09
2.59471e+09
2.57727e+09
2.56005e+09
2.54306e+09
2.5263e+09
2.50977e+09
2.49348e+09
2.47743e+09
2.46162e+09
2.44605e+09
2.43073e+09
2.41566e+09
2.40084e+09
2.38628e+09
2.37199e+09
2.35795e+09
2.34418e+09
2.33069e+09
2.31747e+09
2.30452e+09
2.29187e+09
2.2795e+09
2.26742e+09
2.25564e+09
2.24417e+09
2.233e+09
2.22214e+09
2.21161e+09
2.20139e+09
2.1915e+09
2.18195e+09
2.17274e+09
2.16387e+09
2.15535e+09
2.14719e+09
2.13939e+09
2.13197e+09
2.12491e+09
2.11823e+09
2.11194e+09
2.10604e+09
2.10054e+09
2.09544e+09
2.09074e+09
2.08646e+09
2.08258e+09
2.07913e+09
2.07611e+09
2.0735e+09
2.07133e+09
2.06959e+09
2.06828e+09
2.06741e+09
2.06697e+09
3.61985e+09
3.59432e+09
3.56757e+09
3.54102e+09
3.51467e+09
3.48854e+09
3.46262e+09
3.4369e+09
3.4114e+09
3.3861e+09
3.36101e+09
3.33612e+09
3.31144e+09
3.28696e+09
3.26268e+09
3.2386e+09
3.21472e+09
3.19104e+09
3.16757e+09
3.14429e+09
3.12121e+09
3.09833e+09
3.07565e+09
3.05317e+09
3.03089e+09
3.00881e+09
2.98693e+09
2.96524e+09
2.94376e+09
2.92248e+09
2.9014e+09
2.88053e+09
2.85985e+09
2.83938e+09
2.81912e+09
2.79906e+09
2.77921e+09
2.75956e+09
2.74012e+09
2.7209e+09
2.70188e+09
2.68308e+09
2.66449e+09
2.64611e+09
2.62796e+09
2.61002e+09
2.59231e+09
2.57481e+09
2.55754e+09
2.5405e+09
2.52369e+09
2.50711e+09
2.49077e+09
2.47466e+09
2.45879e+09
2.44317e+09
2.42779e+09
2.41266e+09
2.39778e+09
2.38315e+09
2.36879e+09
2.35468e+09
2.34084e+09
2.32728e+09
2.31398e+09
2.30097e+09
2.28823e+09
2.27579e+09
2.26363e+09
2.25177e+09
2.24022e+09
2.22897e+09
2.21803e+09
2.20741e+09
2.19711e+09
2.18714e+09
2.1775e+09
2.16821e+09
2.15925e+09
2.15066e+09
2.14241e+09
2.13454e+09
2.12703e+09
2.11989e+09
2.11314e+09
2.10678e+09
2.10081e+09
2.09524e+09
2.09008e+09
2.08532e+09
2.08098e+09
2.07706e+09
2.07356e+09
2.07049e+09
2.06785e+09
2.06565e+09
2.06388e+09
2.06256e+09
2.06167e+09
2.06123e+09
3.61843e+09
3.59272e+09
3.56593e+09
3.53936e+09
3.51302e+09
3.48688e+09
3.46096e+09
3.43525e+09
3.40974e+09
3.38444e+09
3.35934e+09
3.33445e+09
3.30976e+09
3.28527e+09
3.26098e+09
3.23689e+09
3.213e+09
3.18931e+09
3.16582e+09
3.14253e+09
3.11944e+09
3.09654e+09
3.07385e+09
3.05135e+09
3.02905e+09
3.00695e+09
2.98504e+09
2.96334e+09
2.94183e+09
2.92053e+09
2.89942e+09
2.87852e+09
2.85782e+09
2.83732e+09
2.81702e+09
2.79693e+09
2.77705e+09
2.75737e+09
2.73789e+09
2.71863e+09
2.69957e+09
2.68073e+09
2.6621e+09
2.64368e+09
2.62548e+09
2.6075e+09
2.58974e+09
2.57219e+09
2.55487e+09
2.53778e+09
2.52092e+09
2.50428e+09
2.48788e+09
2.47171e+09
2.45578e+09
2.44009e+09
2.42465e+09
2.40945e+09
2.3945e+09
2.37981e+09
2.36537e+09
2.35119e+09
2.33728e+09
2.32363e+09
2.31026e+09
2.29716e+09
2.28435e+09
2.27182e+09
2.25958e+09
2.24764e+09
2.23599e+09
2.22466e+09
2.21363e+09
2.20292e+09
2.19253e+09
2.18247e+09
2.17274e+09
2.16335e+09
2.15431e+09
2.14562e+09
2.13729e+09
2.12933e+09
2.12173e+09
2.11452e+09
2.10768e+09
2.10124e+09
2.09519e+09
2.08955e+09
2.08432e+09
2.0795e+09
2.07509e+09
2.07112e+09
2.06757e+09
2.06446e+09
2.06178e+09
2.05954e+09
2.05775e+09
2.0564e+09
2.0555e+09
2.05506e+09
3.61669e+09
3.59097e+09
3.56417e+09
3.5376e+09
3.51126e+09
3.48512e+09
3.4592e+09
3.43348e+09
3.40797e+09
3.38267e+09
3.35756e+09
3.33267e+09
3.30797e+09
3.28347e+09
3.25917e+09
3.23507e+09
3.21117e+09
3.18747e+09
3.16397e+09
3.14066e+09
3.11755e+09
3.09464e+09
3.07193e+09
3.04941e+09
3.02709e+09
3.00497e+09
2.98304e+09
2.96131e+09
2.93978e+09
2.91845e+09
2.89732e+09
2.87639e+09
2.85566e+09
2.83513e+09
2.8148e+09
2.79467e+09
2.77475e+09
2.75504e+09
2.73552e+09
2.71622e+09
2.69712e+09
2.67824e+09
2.65956e+09
2.6411e+09
2.62285e+09
2.60482e+09
2.58701e+09
2.56941e+09
2.55204e+09
2.53489e+09
2.51797e+09
2.50127e+09
2.48481e+09
2.46858e+09
2.45258e+09
2.43683e+09
2.42131e+09
2.40604e+09
2.39102e+09
2.37625e+09
2.36174e+09
2.34748e+09
2.33349e+09
2.31976e+09
2.3063e+09
2.29312e+09
2.28022e+09
2.2676e+09
2.25527e+09
2.24323e+09
2.2315e+09
2.22006e+09
2.20894e+09
2.19813e+09
2.18765e+09
2.17749e+09
2.16767e+09
2.15818e+09
2.14904e+09
2.14025e+09
2.13183e+09
2.12377e+09
2.11608e+09
2.10877e+09
2.10185e+09
2.09532e+09
2.08919e+09
2.08347e+09
2.07816e+09
2.07327e+09
2.0688e+09
2.06476e+09
2.06116e+09
2.05799e+09
2.05527e+09
2.053e+09
2.05118e+09
2.04981e+09
2.0489e+09
2.04844e+09
3.61465e+09
3.58906e+09
3.56229e+09
3.53574e+09
3.50939e+09
3.48326e+09
3.45733e+09
3.43161e+09
3.4061e+09
3.38079e+09
3.35568e+09
3.33078e+09
3.30607e+09
3.28157e+09
3.25726e+09
3.23315e+09
3.20924e+09
3.18552e+09
3.16201e+09
3.13869e+09
3.11556e+09
3.09263e+09
3.0699e+09
3.04736e+09
3.02502e+09
3.00287e+09
2.98092e+09
2.95917e+09
2.93762e+09
2.91626e+09
2.8951e+09
2.87414e+09
2.85337e+09
2.83281e+09
2.81245e+09
2.79229e+09
2.77233e+09
2.75257e+09
2.73302e+09
2.71367e+09
2.69453e+09
2.6756e+09
2.65688e+09
2.63837e+09
2.62007e+09
2.60199e+09
2.58412e+09
2.56647e+09
2.54904e+09
2.53183e+09
2.51485e+09
2.49809e+09
2.48156e+09
2.46526e+09
2.4492e+09
2.43337e+09
2.41778e+09
2.40244e+09
2.38734e+09
2.37249e+09
2.35789e+09
2.34355e+09
2.32947e+09
2.31566e+09
2.30211e+09
2.28884e+09
2.27584e+09
2.26313e+09
2.2507e+09
2.23857e+09
2.22673e+09
2.2152e+09
2.20397e+09
2.19306e+09
2.18247e+09
2.17221e+09
2.16228e+09
2.15269e+09
2.14344e+09
2.13455e+09
2.12602e+09
2.11786e+09
2.11007e+09
2.10266e+09
2.09564e+09
2.08902e+09
2.0828e+09
2.07699e+09
2.0716e+09
2.06663e+09
2.06209e+09
2.05798e+09
2.05432e+09
2.0511e+09
2.04834e+09
2.04602e+09
2.04417e+09
2.04278e+09
2.04185e+09
2.04138e+09
3.61262e+09
3.58707e+09
3.56032e+09
3.53377e+09
3.50743e+09
3.48129e+09
3.45536e+09
3.42964e+09
3.40413e+09
3.37881e+09
3.3537e+09
3.32879e+09
3.30407e+09
3.27956e+09
3.25524e+09
3.23112e+09
3.2072e+09
3.18347e+09
3.15994e+09
3.1366e+09
3.11346e+09
3.09051e+09
3.06776e+09
3.0452e+09
3.02283e+09
3.00067e+09
2.97869e+09
2.95691e+09
2.93533e+09
2.91394e+09
2.89275e+09
2.87176e+09
2.85096e+09
2.83037e+09
2.80997e+09
2.78977e+09
2.76977e+09
2.74997e+09
2.73038e+09
2.71099e+09
2.6918e+09
2.67283e+09
2.65405e+09
2.63549e+09
2.61714e+09
2.599e+09
2.58108e+09
2.56337e+09
2.54588e+09
2.52861e+09
2.51156e+09
2.49473e+09
2.47814e+09
2.46177e+09
2.44563e+09
2.42973e+09
2.41406e+09
2.39864e+09
2.38346e+09
2.36852e+09
2.35384e+09
2.33941e+09
2.32524e+09
2.31134e+09
2.29769e+09
2.28432e+09
2.27123e+09
2.25841e+09
2.24588e+09
2.23364e+09
2.2217e+09
2.21006e+09
2.19872e+09
2.1877e+09
2.177e+09
2.16662e+09
2.15658e+09
2.14688e+09
2.13752e+09
2.12852e+09
2.11987e+09
2.1116e+09
2.1037e+09
2.09619e+09
2.08906e+09
2.08234e+09
2.07602e+09
2.07012e+09
2.06463e+09
2.05958e+09
2.05496e+09
2.05078e+09
2.04705e+09
2.04378e+09
2.04096e+09
2.0386e+09
2.03671e+09
2.03529e+09
2.03434e+09
2.03387e+09
3.61075e+09
3.58505e+09
3.55827e+09
3.53171e+09
3.50536e+09
3.47922e+09
3.45329e+09
3.42757e+09
3.40205e+09
3.37673e+09
3.35161e+09
3.32669e+09
3.30197e+09
3.27745e+09
3.25312e+09
3.22899e+09
3.20505e+09
3.18131e+09
3.15776e+09
3.13441e+09
3.11125e+09
3.08828e+09
3.06551e+09
3.04293e+09
3.02054e+09
2.99835e+09
2.97635e+09
2.95454e+09
2.93293e+09
2.91151e+09
2.89029e+09
2.86926e+09
2.84843e+09
2.8278e+09
2.80736e+09
2.78712e+09
2.76708e+09
2.74725e+09
2.72761e+09
2.70817e+09
2.68894e+09
2.66991e+09
2.65109e+09
2.63247e+09
2.61407e+09
2.59587e+09
2.57788e+09
2.56011e+09
2.54256e+09
2.52522e+09
2.50811e+09
2.49121e+09
2.47454e+09
2.4581e+09
2.44188e+09
2.4259e+09
2.41016e+09
2.39465e+09
2.37938e+09
2.36436e+09
2.34958e+09
2.33506e+09
2.3208e+09
2.30679e+09
2.29305e+09
2.27958e+09
2.26638e+09
2.25345e+09
2.24081e+09
2.22846e+09
2.21641e+09
2.20465e+09
2.1932e+09
2.18206e+09
2.17124e+09
2.16074e+09
2.15057e+09
2.14075e+09
2.13127e+09
2.12215e+09
2.11338e+09
2.10499e+09
2.09697e+09
2.08934e+09
2.0821e+09
2.07527e+09
2.06885e+09
2.06284e+09
2.05726e+09
2.05211e+09
2.04741e+09
2.04315e+09
2.03935e+09
2.03601e+09
2.03313e+09
2.03073e+09
2.0288e+09
2.02735e+09
2.02638e+09
2.0259e+09
3.60847e+09
3.58288e+09
3.55611e+09
3.52954e+09
3.50319e+09
3.47705e+09
3.45112e+09
3.4254e+09
3.39987e+09
3.37455e+09
3.34943e+09
3.3245e+09
3.29977e+09
3.27524e+09
3.2509e+09
3.22675e+09
3.2028e+09
3.17905e+09
3.15548e+09
3.13211e+09
3.10893e+09
3.08594e+09
3.06315e+09
3.04055e+09
3.01814e+09
2.99592e+09
2.97389e+09
2.95206e+09
2.93041e+09
2.90896e+09
2.88771e+09
2.86665e+09
2.84578e+09
2.82511e+09
2.80463e+09
2.78436e+09
2.76427e+09
2.74439e+09
2.7247e+09
2.70522e+09
2.68594e+09
2.66686e+09
2.64798e+09
2.62931e+09
2.61084e+09
2.59259e+09
2.57454e+09
2.55671e+09
2.53909e+09
2.52168e+09
2.50449e+09
2.48752e+09
2.47078e+09
2.45426e+09
2.43796e+09
2.4219e+09
2.40606e+09
2.39047e+09
2.37511e+09
2.36e+09
2.34513e+09
2.33051e+09
2.31614e+09
2.30203e+09
2.28818e+09
2.2746e+09
2.26129e+09
2.24825e+09
2.2355e+09
2.22303e+09
2.21085e+09
2.19897e+09
2.18739e+09
2.17613e+09
2.16518e+09
2.15456e+09
2.14426e+09
2.13431e+09
2.1247e+09
2.11544e+09
2.10655e+09
2.09803e+09
2.08988e+09
2.08213e+09
2.07477e+09
2.06782e+09
2.06128e+09
2.05516e+09
2.04947e+09
2.04422e+09
2.03943e+09
2.03508e+09
2.0312e+09
2.02779e+09
2.02485e+09
2.0224e+09
2.02043e+09
2.01894e+09
2.01795e+09
2.01746e+09
3.60636e+09
3.58066e+09
3.55385e+09
3.52728e+09
3.50092e+09
3.47478e+09
3.44885e+09
3.42312e+09
3.39759e+09
3.37227e+09
3.34714e+09
3.3222e+09
3.29747e+09
3.27292e+09
3.24857e+09
3.22442e+09
3.20045e+09
3.17668e+09
3.1531e+09
3.12971e+09
3.10651e+09
3.0835e+09
3.06069e+09
3.03806e+09
3.01562e+09
2.99338e+09
2.97132e+09
2.94946e+09
2.92779e+09
2.90631e+09
2.88502e+09
2.86392e+09
2.84301e+09
2.8223e+09
2.80179e+09
2.78146e+09
2.76134e+09
2.74141e+09
2.72168e+09
2.70214e+09
2.68281e+09
2.66367e+09
2.64474e+09
2.62601e+09
2.60748e+09
2.58916e+09
2.57105e+09
2.55315e+09
2.53546e+09
2.51798e+09
2.50072e+09
2.48367e+09
2.46685e+09
2.45025e+09
2.43387e+09
2.41771e+09
2.40179e+09
2.3861e+09
2.37065e+09
2.35544e+09
2.34047e+09
2.32574e+09
2.31127e+09
2.29705e+09
2.28309e+09
2.2694e+09
2.25597e+09
2.24281e+09
2.22993e+09
2.21734e+09
2.20504e+09
2.19303e+09
2.18132e+09
2.16992e+09
2.15884e+09
2.14808e+09
2.13764e+09
2.12755e+09
2.1178e+09
2.10841e+09
2.09938e+09
2.09072e+09
2.08244e+09
2.07455e+09
2.06706e+09
2.05997e+09
2.05331e+09
2.04707e+09
2.04127e+09
2.03591e+09
2.03101e+09
2.02657e+09
2.02261e+09
2.01912e+09
2.01611e+09
2.0136e+09
2.01158e+09
2.01007e+09
2.00905e+09
2.00855e+09
3.60402e+09
3.5783e+09
3.55148e+09
3.5249e+09
3.49855e+09
3.47241e+09
3.44648e+09
3.42075e+09
3.39522e+09
3.36989e+09
3.34475e+09
3.31981e+09
3.29506e+09
3.27051e+09
3.24615e+09
3.22198e+09
3.198e+09
3.17421e+09
3.15062e+09
3.12721e+09
3.10399e+09
3.08096e+09
3.05812e+09
3.03547e+09
3.01301e+09
2.99073e+09
2.96865e+09
2.94675e+09
2.92505e+09
2.90353e+09
2.88221e+09
2.86108e+09
2.84013e+09
2.81938e+09
2.79882e+09
2.77845e+09
2.75828e+09
2.7383e+09
2.71852e+09
2.69893e+09
2.67954e+09
2.66035e+09
2.64136e+09
2.62257e+09
2.60398e+09
2.5856e+09
2.56742e+09
2.54945e+09
2.53168e+09
2.51413e+09
2.49679e+09
2.47967e+09
2.46276e+09
2.44607e+09
2.4296e+09
2.41336e+09
2.39735e+09
2.38156e+09
2.36601e+09
2.35069e+09
2.33562e+09
2.32078e+09
2.3062e+09
2.29187e+09
2.27779e+09
2.26397e+09
2.25042e+09
2.23714e+09
2.22413e+09
2.21141e+09
2.19897e+09
2.18682e+09
2.17498e+09
2.16344e+09
2.15221e+09
2.1413e+09
2.13073e+09
2.12048e+09
2.11059e+09
2.10104e+09
2.09186e+09
2.08306e+09
2.07463e+09
2.0666e+09
2.05896e+09
2.05174e+09
2.04494e+09
2.03857e+09
2.03264e+09
2.02717e+09
2.02216e+09
2.01762e+09
2.01355e+09
2.00998e+09
2.0069e+09
2.00433e+09
2.00226e+09
2.0007e+09
1.99966e+09
1.99914e+09
3.60151e+09
3.57579e+09
3.54899e+09
3.52242e+09
3.49607e+09
3.46994e+09
3.44401e+09
3.41828e+09
3.39274e+09
3.36741e+09
3.34227e+09
3.31732e+09
3.29256e+09
3.268e+09
3.24363e+09
3.21944e+09
3.19545e+09
3.17165e+09
3.14803e+09
3.1246e+09
3.10137e+09
3.07831e+09
3.05545e+09
3.03277e+09
3.01029e+09
2.98798e+09
2.96587e+09
2.94394e+09
2.92221e+09
2.90066e+09
2.87929e+09
2.85812e+09
2.83714e+09
2.81634e+09
2.79574e+09
2.77533e+09
2.75511e+09
2.73508e+09
2.71524e+09
2.6956e+09
2.67616e+09
2.65691e+09
2.63785e+09
2.619e+09
2.60035e+09
2.5819e+09
2.56365e+09
2.5456e+09
2.52776e+09
2.51013e+09
2.49271e+09
2.4755e+09
2.45851e+09
2.44173e+09
2.42517e+09
2.40884e+09
2.39272e+09
2.37684e+09
2.36118e+09
2.34576e+09
2.33057e+09
2.31563e+09
2.30093e+09
2.28648e+09
2.27228e+09
2.25833e+09
2.24465e+09
2.23124e+09
2.2181e+09
2.20523e+09
2.19265e+09
2.18036e+09
2.16837e+09
2.15668e+09
2.1453e+09
2.13424e+09
2.12351e+09
2.11311e+09
2.10305e+09
2.09335e+09
2.08401e+09
2.07505e+09
2.06646e+09
2.05827e+09
2.05049e+09
2.04311e+09
2.03617e+09
2.02966e+09
2.0236e+09
2.01799e+09
2.01286e+09
2.00821e+09
2.00404e+09
2.00037e+09
1.99722e+09
1.99457e+09
1.99245e+09
1.99085e+09
1.98978e+09
1.98925e+09
3.59867e+09
3.57311e+09
3.54637e+09
3.51983e+09
3.4935e+09
3.46737e+09
3.44144e+09
3.41571e+09
3.39018e+09
3.36484e+09
3.33969e+09
3.31473e+09
3.28997e+09
3.2654e+09
3.24101e+09
3.21681e+09
3.19281e+09
3.16898e+09
3.14535e+09
3.1219e+09
3.09864e+09
3.07557e+09
3.05268e+09
3.02998e+09
3.00746e+09
2.98513e+09
2.96299e+09
2.94103e+09
2.91926e+09
2.89767e+09
2.87627e+09
2.85506e+09
2.83403e+09
2.81319e+09
2.79254e+09
2.77208e+09
2.75181e+09
2.73173e+09
2.71185e+09
2.69215e+09
2.67264e+09
2.65333e+09
2.63422e+09
2.6153e+09
2.59658e+09
2.57806e+09
2.55974e+09
2.54162e+09
2.5237e+09
2.50599e+09