/*--------------------------------*- C++ -*----------------------------------*\
| =========                 |                                                 |
| \\      /  F ield         | OpenFOAM: The Open Source CFD Toolbox           |
|  \\    /   O peration     | Version:  4.1                                   |
|   \\  /    A nd           | Web:      www.OpenFOAM.org                      |
|    \\/     M anipulation  |                                                 |
\*---------------------------------------------------------------------------*/
FoamFile
{
    version     2.0;
    format      ascii;
    class       volScalarField;
    location    "0.1";
    object      s;
}
// * * * * * * * * * * * * * * * * * * * * * * * * * * * * * * * * * * * * * //

dimensions      [0 0 0 0 0 0 0];

internalField   nonuniform List<scalar> 
43750
(
1
1
1
1
1
1
1
1
1
1
1
1
1
1
1
1
1
1
1
1
1
1
1
1
1
1
1
1
1
1
1
1
1
1
1
1
0.999998
0.999991
0.99996
0.999822
0.999222
0.996666
0.986145
0.944792
0.793009
0.536926
0.336167
0.197007
0.108558
0.0564266
0.0277334
0.0129136
0.00570535
0.00239479
0.000956017
0.000363299
0.000131516
4.53792e-05
1.49309e-05
4.68588e-06
1.40296e-06
4.0075e-07
1.09205e-07
2.83841e-08
7.0347e-09
1.66182e-09
3.73996e-10
8.01366e-11
1.63365e-11
3.16583e-12
5.82642e-13
1.01727e-13
1.68293e-14
2.63459e-15
3.89708e-16
5.43805e-17
7.14585e-18
8.82529e-19
1.02223e-19
1.10793e-20
1.12078e-21
1.05532e-22
9.22134e-24
7.45274e-25
5.55103e-26
3.79506e-27
2.37086e-28
1.34661e-29
6.91403e-31
3.18777e-32
1.30952e-33
4.74821e-35
1.50212e-36
4.08549e-38
9.36967e-40
1.76407e-41
2.62161e-43
2.88783e-45
2.09964e-47
7.56995e-50
1
1
1
1
1
1
1
1
1
1
1
1
1
1
1
1
1
1
1
1
1
1
1
1
1
1
1
1
1
1
1
1
1
1
1
1
0.999999
0.999997
0.999988
0.999951
0.999798
0.999192
0.996883
0.988455
0.959162
0.860756
0.636643
0.430549
0.272207
0.161479
0.0901595
0.0475123
0.0236919
0.0112033
0.00503343
0.00215195
0.000876641
0.000340652
0.000126384
4.48004e-05
1.51822e-05
4.92089e-06
1.52598e-06
4.52828e-07
1.28599e-07
3.49505e-08
9.08916e-09
2.26125e-09
5.38002e-10
1.22359e-10
2.65871e-11
5.51569e-12
1.09165e-12
2.05938e-13
3.69919e-14
6.31954e-15
1.02541e-15
1.57795e-16
2.29903e-17
3.16543e-18
4.10996e-19
5.02027e-20
5.75358e-21
6.16821e-22
6.16457e-23
5.72106e-24
4.90841e-25
3.87312e-26
2.79404e-27
1.82977e-28
1.0787e-29
5.66665e-31
2.61951e-32
1.04875e-33
3.56164e-35
9.97338e-37
2.21021e-38
3.63333e-40
3.9373e-42
2.10721e-44
1
1
1
1
1
1
1
1
1
1
1
1
1
1
1
1
1
1
1
1
1
1
1
1
1
1
1
1
1
1
1
1
1
1
1
1
0.999999
0.999996
0.999985
0.999939
0.999758
0.999064
0.996441
0.986713
0.951314
0.825343
0.587573
0.387387
0.239231
0.138854
0.0759599
0.0392674
0.019228
0.00893693
0.00394968
0.00166227
0.000667051
0.000255497
9.34891e-05
3.27035e-05
1.09429e-05
3.50401e-06
1.07407e-06
3.1523e-07
8.85914e-08
2.38411e-08
6.14313e-09
1.51529e-09
3.57699e-10
8.07763e-11
1.74413e-11
3.59867e-12
7.09026e-13
1.33284e-13
2.38823e-14
4.07454e-15
6.61066e-16
1.0185e-16
1.48778e-17
2.05681e-18
2.68564e-19
3.30445e-20
3.82141e-21
4.14132e-22
4.19164e-23
3.9472e-24
3.44292e-25
2.76737e-26
2.03752e-27
1.36442e-28
8.23861e-30
4.43767e-31
2.10548e-32
8.65876e-34
3.02232e-35
8.70105e-37
1.98243e-38
3.34913e-40
3.72671e-42
2.04564e-44
1
1
1
1
1
1
1
1
1
1
1
1
1
1
1
1
1
1
1
1
1
1
1
1
1
1
1
1
1
1
1
1
1
1
1
1
0.999999
0.999996
0.999983
0.999929
0.999707
0.998823
0.995384
0.982337
0.934228
0.770362
0.531883
0.343042
0.207628
0.118239
0.063518
0.032265
0.0155307
0.00709714
0.00308397
0.00127605
0.000503342
0.000189463
6.81092e-05
2.33989e-05
7.68638e-06
2.41526e-06
7.26182e-07
2.08952e-07
5.75446e-08
1.51674e-08
3.82574e-09
9.23276e-10
2.13122e-10
4.70367e-11
9.92073e-12
1.99845e-12
3.84223e-13
7.04474e-14
1.23066e-14
2.04618e-15
3.23416e-16
4.85296e-17
6.90262e-18
9.29038e-19
1.18091e-19
1.41451e-20
1.59261e-21
1.68069e-22
1.65698e-23
1.52043e-24
1.29286e-25
1.01362e-26
7.28382e-28
4.76376e-29
2.81309e-30
1.4866e-31
6.94061e-33
2.81689e-34
9.73007e-36
2.77915e-37
6.29633e-39
1.05979e-40
1.17682e-42
6.45387e-45
1
1
1
1
1
1
1
1
1
1
1
1
1
1
1
1
1
1
1
1
1
1
1
1
1
1
1
1
1
1
1
1
1
1
1
1
0.999999
0.999996
0.999982
0.999923
0.999683
0.998728
0.995023
0.981008
0.929453
0.757308
0.520059
0.334009
0.201302
0.114135
0.061038
0.0308628
0.014786
0.00672442
0.00290766
0.00119701
0.000469689
0.000175829
6.28458e-05
2.14604e-05
7.0047e-06
2.18618e-06
6.52583e-07
1.86337e-07
5.08966e-08
1.32977e-08
3.32271e-09
7.93821e-10
1.81265e-10
3.9543e-11
8.23666e-12
1.6371e-12
3.10253e-13
5.60137e-14
9.62457e-15
1.57215e-15
2.4383e-16
3.58551e-17
4.99112e-18
6.56541e-19
8.14479e-20
9.50786e-21
1.04178e-21
1.06837e-22
1.02214e-23
9.08923e-25
7.48016e-26
5.66894e-27
3.93339e-28
2.48146e-29
1.41164e-30
7.16892e-32
3.20975e-33
1.24704e-34
4.11755e-36
1.12303e-37
2.42799e-39
3.89919e-41
4.13202e-43
2.16409e-45
1
1
1
1
1
1
1
1
1
1
1
1
1
1
1
1
1
1
1
1
1
1
1
1
1
1
1
1
1
1
1
1
1
1
1
1
0.999999
0.999996
0.999982
0.999924
0.999689
0.998758
0.995143
0.981427
0.930789
0.760304
0.52181
0.334816
0.201628
0.114254
0.0610778
0.030875
0.014789
0.00672467
0.00290722
0.00119657
0.0004694
0.000175669
6.27669e-05
2.14247e-05
6.98968e-06
2.18026e-06
6.50379e-07
1.85561e-07
5.06374e-08
1.32155e-08
3.29794e-09
7.8672e-10
1.79328e-10
3.90406e-11
8.11274e-12
1.60804e-12
3.03778e-13
5.46441e-14
9.3498e-15
1.51991e-15
2.34432e-16
3.4257e-17
4.73474e-18
6.17799e-19
7.59452e-20
8.77492e-21
9.50469e-22
9.62283e-23
9.07579e-24
7.94384e-25
6.42457e-26
4.77751e-27
3.24733e-28
2.0036e-29
1.11291e-30
5.5094e-32
2.4007e-33
9.06351e-35
2.9039e-36
7.67536e-38
1.60635e-39
2.49498e-41
2.55552e-43
1.29325e-45
1
1
1
1
1
1
1
1
1
1
1
1
1
1
1
1
1
1
1
1
1
1
1
1
1
1
1
1
1
1
1
1
1
1
1
1
0.999999
0.999996
0.999982
0.999927
0.999705
0.998831
0.995449
0.982641
0.935288
0.772433
0.531268
0.340849
0.205128
0.116142
0.0620404
0.0313431
0.0150074
0.00682254
0.00294938
0.00121402
0.000476327
0.000178307
6.37295e-05
2.17612e-05
7.10224e-06
2.21629e-06
6.61415e-07
1.88792e-07
5.15419e-08
1.34574e-08
3.35968e-09
8.01762e-10
1.82822e-10
3.98138e-11
8.27558e-12
1.64065e-12
3.09976e-13
5.57607e-14
9.54012e-15
1.55054e-15
2.39073e-16
3.49173e-17
4.82256e-18
6.28671e-19
7.71899e-20
8.90559e-21
9.62888e-22
9.72752e-23
9.15109e-24
7.98576e-25
6.43608e-26
4.76605e-27
3.22311e-28
1.97673e-29
1.09033e-30
5.35461e-32
2.31229e-33
8.6425e-35
2.73864e-36
7.15258e-38
1.47792e-39
2.26473e-41
2.28727e-43
1.14092e-45
1
1
1
1
1
1
1
1
1
1
1
1
1
1
1
1
1
1
1
1
1
1
1
1
1
1
1
1
1
1
1
1
1
1
1
1
0.999999
0.999997
0.999986
0.99994
0.999755
0.999006
0.996048
0.984638
0.941951
0.790956
0.546822
0.351457
0.211728
0.119953
0.0640974
0.0323889
0.0155115
0.00705399
0.00305089
0.00125662
0.000493446
0.000184897
6.61595e-05
2.26195e-05
7.39259e-06
2.31034e-06
6.90574e-07
1.97444e-07
5.39976e-08
1.41239e-08
3.53258e-09
8.44607e-10
1.92959e-10
4.21017e-11
8.76784e-12
1.74152e-12
3.29645e-13
5.94057e-14
1.01813e-14
1.65744e-15
2.55939e-16
3.7431e-17
5.17576e-18
6.75355e-19
8.29792e-20
9.57728e-21
1.03556e-21
1.04581e-22
9.83064e-24
8.56773e-25
6.89238e-26
5.0919e-27
3.43469e-28
2.10095e-29
1.15568e-30
5.65942e-32
2.43668e-33
9.07938e-35
2.86793e-36
7.46576e-38
1.53751e-39
2.34817e-41
2.3637e-43
1.17526e-45
1
1
1
1
1
1
1
1
1
1
1
1
1
1
1
1
1
1
1
1
1
1
1
1
1
1
1
1
1
1
1
1
1
1
1
1
0.999999
0.999997
0.999986
0.999942
0.99976
0.999022
0.996096
0.984796
0.942472
0.792472
0.548446
0.352929
0.21293
0.120848
0.064703
0.0327618
0.0157219
0.00716374
0.00310426
0.00128098
0.000503939
0.000189177
6.78176e-05
2.32307e-05
7.60725e-06
2.38224e-06
7.13562e-07
2.04461e-07
5.6043e-08
1.46933e-08
3.68399e-09
8.83046e-10
2.02273e-10
4.42551e-11
9.24255e-12
1.84124e-12
3.49588e-13
6.31995e-14
1.0867e-14
1.77508e-15
2.75064e-16
4.03733e-17
5.60335e-18
7.33939e-19
9.05305e-20
1.04907e-20
1.13898e-21
1.15507e-22
1.09038e-23
9.54409e-25
7.7114e-26
5.72189e-27
3.87559e-28
2.37912e-29
1.31267e-30
6.44425e-32
2.78001e-33
1.03733e-34
3.27957e-36
8.54066e-38
1.75873e-39
2.68464e-41
2.69996e-43
1.34086e-45
1
1
1
1
1
1
1
1
1
1
1
1
1
1
1
1
1
1
1
1
1
1
1
1
1
1
1
1
1
1
1
1
1
1
1
1
0.999999
0.999997
0.999986
0.999942
0.999762
0.999036
0.996173
0.985153
0.943928
0.797201
0.552985
0.356379
0.215328
0.122377
0.0656073
0.0332629
0.0159839
0.00729374
0.00316573
0.00130863
0.000515758
0.000193981
6.9676e-05
2.39156e-05
7.84799e-06
2.46297e-06
7.39403e-07
2.12359e-07
5.83481e-08
1.53358e-08
3.85499e-09
9.26493e-10
2.12808e-10
4.66921e-11
9.78002e-12
1.95418e-12
3.72183e-13
6.74994e-14
1.16446e-14
1.90852e-15
2.96773e-16
4.37156e-17
6.08956e-18
8.00642e-19
9.91422e-20
1.15345e-20
1.25745e-21
1.28057e-22
1.21409e-23
1.0674e-24
8.66357e-26
6.45838e-27
4.39551e-28
2.71208e-29
1.50442e-30
7.42695e-32
3.22256e-33
1.20968e-34
3.84795e-36
1.00837e-37
2.08967e-39
3.21029e-41
3.24941e-43
1.62413e-45
1
1
1
1
1
1
1
1
1
1
1
1
1
1
1
1
1
1
1
1
1
1
1
1
1
1
1
1
1
1
1
1
1
1
1
1
0.999999
0.999997
0.999986
0.999943
0.999771
0.999089
0.996432
0.986274
0.948356
0.811899
0.566975
0.366539
0.2219
0.126295
0.0677883
0.0344066
0.0165518
0.00756128
0.00328529
0.00135952
0.000536461
0.000202039
7.26786e-05
2.49867e-05
8.21381e-06
2.5826e-06
7.76855e-07
2.23584e-07
6.15682e-08
1.62198e-08
4.08711e-09
9.84781e-10
2.26797e-10
4.98986e-11
1.04816e-11
2.10059e-12
4.01295e-13
7.30099e-14
1.26364e-14
2.07804e-15
3.24248e-16
4.79321e-17
6.70118e-18
8.84333e-19
1.09922e-19
1.28385e-20
1.40516e-21
1.43682e-22
1.36787e-23
1.20769e-24
9.84459e-26
7.37113e-27
5.03928e-28
3.12355e-29
1.74077e-30
8.63476e-32
3.76484e-33
1.42022e-34
4.54031e-36
1.19583e-37
2.49083e-39
3.8462e-41
3.91303e-43
1.96584e-45
1
1
1
1
1
1
1
1
1
1
1
1
1
1
1
1
1
1
1
1
1
1
1
1
1
1
1
1
1
1
1
1
1
1
1
1
0.999999
0.999997
0.999986
0.999943
0.999769
0.999084
0.996435
0.986386
0.949113
0.815292
0.571775
0.371135
0.225605
0.128874
0.0693947
0.0353208
0.0170348
0.00780081
0.00339767
0.00140953
0.000557607
0.000210548
7.59408e-05
2.61797e-05
8.63017e-06
2.72136e-06
8.21029e-07
2.37018e-07
6.54722e-08
1.73037e-08
4.37462e-09
1.05762e-09
2.44417e-10
5.39668e-11
1.13776e-11
2.28873e-12
4.38928e-13
8.01738e-14
1.39329e-14
2.30087e-15
3.60566e-16
5.35367e-17
7.51877e-18
9.9686e-19
1.24503e-19
1.46128e-20
1.60741e-21
1.65209e-22
1.58111e-23
1.4035e-24
1.15039e-25
8.66208e-27
5.95593e-28
3.71341e-29
2.08189e-30
1.03897e-31
4.55801e-33
1.7302e-34
5.56633e-36
1.47542e-37
3.09287e-39
4.80643e-41
4.92111e-43
2.48792e-45
1
1
1
1
1
1
1
1
1
1
1
1
1
1
1
1
1
1
1
1
1
1
1
1
1
1
1
1
1
1
1
1
1
1
1
1
0.999999
0.999996
0.999985
0.999937
0.999745
0.999002
0.996182
0.985671
0.947183
0.810488
0.56908
0.37029
0.225634
0.129292
0.0698733
0.0357163
0.0172982
0.00795373
0.00347779
0.00144817
0.00057496
0.000217864
7.88521e-05
2.7277e-05
9.02296e-06
2.85513e-06
8.64429e-07
2.50443e-07
6.9433e-08
1.84187e-08
4.67415e-09
1.13439e-09
2.63189e-10
5.83441e-11
1.23505e-11
2.49472e-12
4.80446e-13
8.81336e-14
1.5383e-14
2.55163e-15
4.01672e-16
5.99155e-17
8.45422e-18
1.12627e-18
1.41355e-19
1.66738e-20
1.8435e-21
1.90466e-22
1.83258e-23
1.63564e-24
1.34818e-25
1.02098e-26
7.06143e-28
4.42923e-29
2.49855e-30
1.2548e-31
5.54053e-33
2.11709e-34
6.85707e-36
1.83007e-37
3.86318e-39
6.04616e-41
6.23489e-43
3.17499e-45
1
1
1
1
1
1
1
1
1
1
1
1
1
1
1
1
1
1
1
1
1
1
1
1
1
1
1
1
1
1
1
1
1
1
1
1
0.999999
0.999996
0.999984
0.999933
0.999727
0.998914
0.995782
0.984052
0.941305
0.793111
0.556504
0.363872
0.223018
0.128429
0.069685
0.0357334
0.0173694
0.00801658
0.00351899
0.00147118
0.000586438
0.000223102
8.10683e-05
2.81542e-05
9.34974e-06
2.97019e-06
9.02832e-07
2.62622e-07
7.31086e-08
1.94753e-08
4.96364e-09
1.21e-09
2.82015e-10
6.28116e-11
1.33605e-11
2.7121e-12
5.24962e-13
9.67991e-14
1.69849e-14
2.8325e-15
4.48327e-16
6.7246e-17
9.54194e-18
1.27841e-18
1.61372e-19
1.91456e-20
2.12919e-21
2.21282e-22
2.14174e-23
1.92302e-24
1.5946e-25
1.2149e-26
8.45385e-28
5.33504e-29
3.028e-30
1.53006e-31
6.79768e-33
2.61354e-34
8.51746e-36
2.28729e-37
4.85821e-39
7.65035e-41
7.93761e-43
4.06684e-45
1
1
1
1
1
1
1
1
1
1
1
1
1
1
1
1
1
1
1
1
1
1
1
1
1
1
1
1
1
1
1
1
1
1
1
1
0.999999
0.999996
0.999984
0.999934
0.99973
0.998915
0.995741
0.983715
0.939451
0.786294
0.549503
0.358786
0.220067
0.127085
0.0692497
0.0356799
0.017413
0.00806761
0.00355495
0.00149196
0.00059708
0.000228078
8.32257e-05
2.90288e-05
9.683e-06
3.09001e-06
9.43587e-07
2.75761e-07
7.71297e-08
2.06449e-08
5.28718e-09
1.29519e-09
3.0337e-10
6.79089e-11
1.4519e-11
2.96273e-12
5.76549e-13
1.06894e-13
1.88616e-14
3.16358e-15
5.03682e-16
7.6005e-17
1.08514e-17
1.46303e-18
1.85869e-19
2.21969e-20
2.48507e-21
2.60026e-22
2.53414e-23
2.29129e-24
1.91345e-25
1.46826e-26
1.02905e-27
6.54125e-29
3.73963e-30
1.90341e-31
8.51787e-33
3.29859e-34
1.08271e-35
2.92811e-37
6.2626e-39
9.92894e-41
1.03698e-42
5.34691e-45
1
1
1
1
1
1
1
1
1
1
1
1
1
1
1
1
1
1
1
1
1
1
1
1
1
1
1
1
1
1
1
1
1
1
1
1
0.999999
0.999997
0.999985
0.999937
0.999739
0.998946
0.995848
0.98405
0.940439
0.788626
0.550941
0.359537
0.22051
0.127395
0.0694769
0.0358454
0.0175373
0.00814971
0.00360273
0.00151711
0.000609245
0.000233544
8.55254e-05
2.99402e-05
1.00248e-05
3.21158e-06
9.84696e-07
2.88993e-07
8.11876e-08
2.1831e-08
5.61774e-09
1.38302e-09
3.25616e-10
7.32785e-11
1.57536e-11
3.233e-12
6.32837e-13
1.18039e-13
2.09575e-14
3.53751e-15
5.66899e-16
8.61179e-17
1.23798e-17
1.68085e-18
2.15081e-19
2.58752e-20
2.91878e-21
3.0777e-22
3.02317e-23
2.75555e-24
2.32017e-25
1.79537e-26
1.26913e-27
8.13795e-29
4.69393e-30
2.41077e-31
1.08874e-32
4.25547e-34
1.40994e-35
3.84933e-37
8.31182e-39
1.33052e-40
1.40312e-42
7.30597e-45
1
1
1
1
1
1
1
1
1
1
1
1
1
1
1
1
1
1
1
1
1
1
1
1
1
1
1
1
1
1
1
1
1
1
1
1
0.999999
0.999997
0.999987
0.999944
0.999768
0.999064
0.996288
0.985591
0.945556
0.80267
0.560897
0.365259
0.223655
0.129111
0.0704184
0.0363659
0.0178188
0.00829474
0.00367352
0.00154996
0.000623851
0.000239771
8.80655e-05
3.09293e-05
1.03918e-05
3.34135e-06
1.0284e-06
3.03022e-07
8.54804e-08
2.30838e-08
5.96652e-09
1.47565e-09
3.4908e-10
7.89465e-11
1.70587e-11
3.5193e-12
6.92628e-13
1.29917e-13
2.31995e-14
3.93921e-15
6.35123e-16
9.70856e-17
1.40459e-17
1.91955e-18
2.4727e-19
2.99511e-20
3.40208e-21
3.61279e-22
3.57446e-23
3.28206e-24
2.78426e-25
2.17102e-26
1.54672e-27
9.99762e-29
5.81406e-30
3.01132e-31
1.37178e-32
5.40972e-34
1.8089e-35
4.98546e-37
1.08698e-38
1.75722e-40
1.87168e-42
9.8439e-45
1
1
1
1
1
1
1
1
1
1
1
1
1
1
1
1
1
1
1
1
1
1
1
1
1
1
1
1
1
1
1
1
1
1
1
1
0.999999
0.999997
0.999987
0.999946
0.99978
0.999129
0.99661
0.987024
0.951336
0.822499
0.579994
0.378548
0.231771
0.133698
0.0728841
0.0376419
0.0184549
0.00860263
0.00381785
0.00161511
0.000651925
0.000251305
9.25864e-05
3.26223e-05
1.09982e-05
3.54918e-06
1.09658e-06
3.24427e-07
9.19108e-08
2.49318e-08
6.47438e-09
1.60907e-09
3.82573e-10
8.69767e-11
1.88964e-11
3.92041e-12
7.76073e-13
1.46446e-13
2.63137e-14
4.49661e-15
7.29772e-16
1.12309e-16
1.6361e-17
2.25179e-18
2.92164e-19
3.56486e-20
4.07928e-21
4.36423e-22
4.35004e-23
4.02359e-24
3.43789e-25
2.69937e-26
1.93597e-27
1.25928e-28
7.36658e-30
3.83621e-31
1.75616e-32
6.95564e-34
2.33445e-35
6.45472e-37
1.41245e-38
2.2924e-40
2.45205e-42
1.29549e-44
1
1
1
1
1
1
1
1
1
1
1
1
1
1
1
1
1
1
1
1
1
1
1
1
1
1
1
1
1
1
1
1
1
1
1
1
0.999999
0.999997
0.999988
0.999951
0.999804
0.999229
0.997008
0.988566
0.957131
0.843308
0.602051
0.395426
0.243227
0.14079
0.0769429
0.0398096
0.019544
0.00912134
0.00405322
0.00171713
0.000694291
0.000268169
9.90225e-05
3.49775e-05
1.18245e-05
3.82716e-06
1.18624e-06
3.5215e-07
1.00127e-07
2.72652e-08
7.10917e-09
1.77443e-09
4.23804e-10
9.68101e-11
2.11383e-11
4.40867e-12
8.77559e-13
1.66559e-13
3.01103e-14
5.17839e-15
8.46083e-16
1.31131e-16
1.92456e-17
2.66969e-18
3.49271e-19
4.29929e-20
4.96589e-21
5.36601e-22
5.406e-23
5.0581e-24
4.37575e-25
3.48148e-26
2.53195e-27
1.67115e-28
9.92558e-30
5.25082e-31
2.44312e-32
9.83958e-34
3.35947e-35
9.45002e-37
2.10086e-38
3.46013e-40
3.75204e-42
2.00775e-44
1
1
1
1
1
1
1
1
1
1
1
1
1
1
1
1
1
1
1
1
1
1
1
1
1
1
1
1
1
1
1
1
1
1
1
1
0.999999
0.999997
0.999989
0.999954
0.999817
0.999274
0.997179
0.989241
0.959816
0.853563
0.616006
0.407252
0.252055
0.146683
0.0805343
0.0418357
0.0206132
0.00965313
0.00430377
0.00182936
0.00074219
0.000287682
0.000106618
3.78039e-05
1.28305e-05
4.16969e-06
1.29785e-06
3.86951e-07
1.10512e-07
3.02307e-08
7.91936e-09
1.98614e-09
4.76689e-10
1.09434e-10
2.40161e-11
5.03468e-12
1.0074e-12
1.92209e-13
3.49316e-14
6.03948e-15
9.92005e-16
1.54556e-16
2.28011e-17
3.17891e-18
4.17925e-19
5.16835e-20
5.9957e-21
6.50447e-22
6.57566e-23
6.16999e-24
5.34921e-25
4.2681e-26
3.1158e-27
2.0659e-28
1.23344e-29
6.56305e-31
3.07302e-32
1.24607e-33
4.28509e-35
1.21469e-36
2.72381e-38
4.52803e-40
4.9584e-42
2.68052e-44
1
1
1
1
1
1
1
1
1
1
1
1
1
1
1
1
1
1
1
1
1
1
1
1
1
1
1
1
1
1
1
1
1
1
1
1
0.999999
0.999997
0.999989
0.999956
0.999822
0.999293
0.997247
0.989486
0.96073
0.857003
0.621818
0.413223
0.257263
0.150631
0.083201
0.0434716
0.0215376
0.0101393
0.00454357
0.00194093
0.000791361
0.00030827
0.000114825
4.09239e-05
1.39629e-05
4.56242e-06
1.42807e-06
4.28248e-07
1.2304e-07
3.38666e-08
8.92872e-09
2.25412e-09
5.44715e-10
1.25936e-10
2.78396e-11
5.88029e-12
1.18576e-12
2.28061e-13
4.17915e-14
7.28751e-15
1.20762e-15
1.89875e-16
2.82778e-17
3.98131e-18
5.28773e-19
6.60883e-20
7.75197e-21
8.50749e-22
8.70544e-23
8.27318e-24
7.26915e-25
5.87024e-26
4.33118e-27
2.90001e-28
1.74775e-29
9.38628e-31
4.43644e-32
1.8164e-33
6.30936e-35
1.80715e-36
4.09602e-38
6.88463e-40
7.62405e-42
4.1686e-44
1
1
1
1
1
1
1
1
1
1
1
1
1
1
1
1
1
1
1
1
1
1
1
1
1
1
1
1
1
1
1
1
1
1
1
1
0.999999
0.999998
0.99999
0.999957
0.999828
0.999316
0.997323
0.989739
0.961561
0.859753
0.625585
0.416449
0.259966
0.152735
0.0847014
0.0444519
0.0221278
0.0104689
0.00471551
0.00202507
0.000830161
0.000325182
0.000121812
4.36658e-05
1.49866e-05
4.92659e-06
1.55162e-06
4.68255e-07
1.35413e-07
3.75218e-08
9.9605e-09
2.5324e-09
6.16411e-10
1.43577e-10
3.19825e-11
6.80846e-12
1.38399e-12
2.6838e-13
4.95939e-14
8.72236e-15
1.45803e-15
2.31287e-16
3.47562e-17
4.93816e-18
6.6192e-19
8.35017e-20
9.88658e-21
1.09527e-21
1.13139e-22
1.08543e-23
9.62777e-25
7.85384e-26
5.85613e-27
3.96277e-28
2.41294e-29
1.30853e-30
6.24036e-32
2.57556e-33
9.0096e-35
2.59639e-36
5.91587e-38
9.98847e-40
1.11047e-41
6.09302e-44
1
1
1
1
1
1
1
1
1
1
1
1
1
1
1
1
1
1
1
1
1
1
1
1
1
1
1
1
1
1
1
1
1
1
1
1
0.999999
0.999998
0.99999
0.999959
0.999835
0.99935
0.997469
0.990304
0.963577
0.866621
0.634502
0.423068
0.264677
0.155892
0.0867011
0.0456487
0.0228039
0.0108297
0.00489755
0.00211213
0.000869679
0.000342241
0.000128824
4.64134e-05
1.60139e-05
5.2933e-06
1.67669e-06
5.09025e-07
1.48118e-07
4.1308e-08
1.10393e-08
2.8263e-09
6.92941e-10
1.62618e-10
3.65071e-11
7.83455e-12
1.60591e-12
3.14109e-13
5.85626e-14
1.03945e-14
1.75396e-15
2.80924e-16
4.26331e-17
6.11833e-18
8.2849e-19
1.05593e-19
1.26317e-20
1.41388e-21
1.47554e-22
1.43002e-23
1.28119e-24
1.0556e-25
7.9503e-27
5.43501e-28
3.34427e-29
1.83347e-30
8.84462e-32
3.69518e-33
1.30965e-34
3.82809e-36
8.85841e-38
1.52078e-39
1.7208e-41
9.61722e-44
1
1
1
1
1
1
1
1
1
1
1
1
1
1
1
1
1
1
1
1
1
1
1
1
1
1
1
1
1
1
1
1
1
1
1
1
0.999999
0.999998
0.99999
0.99996
0.999837
0.999355
0.997503
0.990525
0.964763
0.871852
0.643282
0.430493
0.270344
0.159815
0.089209
0.0471451
0.0236427
0.0112733
0.00511952
0.00221749
0.000917222
0.000362667
0.000137192
4.96851e-05
1.72359e-05
5.72964e-06
1.82568e-06
5.57694e-07
1.63329e-07
4.5857e-08
1.2341e-08
3.18263e-09
7.86237e-10
1.85972e-10
4.20936e-11
9.11085e-12
1.88419e-12
3.71968e-13
7.00227e-14
1.25544e-14
2.14084e-15
3.46681e-16
5.3221e-17
7.73031e-18
1.06004e-18
1.36896e-19
1.66033e-20
1.88525e-21
1.99691e-22
1.96506e-23
1.78799e-24
1.49598e-25
1.14367e-26
7.93042e-28
4.94483e-29
2.74378e-30
1.33766e-31
5.63842e-33
2.01224e-34
5.90934e-36
1.3709e-37
2.36218e-39
2.68507e-41
1.50897e-43
1
1
1
1
1
1
1
1
1
1
1
1
1
1
1
1
1
1
1
1
1
1
1
1
1
1
1
1
1
1
1
1
1
1
1
1
0.999999
0.999998
0.99999
0.99996
0.99984
0.999369
0.997562
0.990765
0.965693
0.875326
0.649399
0.436351
0.275303
0.163521
0.0917078
0.0486907
0.0245302
0.0117503
0.00536087
0.00233293
0.000969574
0.000385233
0.000146453
5.33096e-05
1.85901e-05
6.21311e-06
1.99072e-06
6.11592e-07
1.80173e-07
5.08953e-08
1.37834e-08
3.57781e-09
8.89818e-10
2.11936e-10
4.83147e-11
1.05347e-11
2.19522e-12
4.36759e-13
8.28797e-14
1.4982e-14
2.57638e-15
4.20823e-16
6.51767e-17
9.55324e-18
1.32233e-18
1.72431e-19
2.1126e-20
2.42462e-21
2.59805e-22
2.58945e-23
2.39059e-24
2.03453e-25
1.58615e-26
1.12409e-27
7.17712e-29
4.08485e-30
2.04571e-31
8.86916e-33
3.2592e-34
9.86446e-36
2.35909e-37
4.17057e-39
4.84517e-41
2.77338e-43
1
1
1
1
1
1
1
1
1
1
1
1
1
1
1
1
1
1
1
1
1
1
1
1
1
1
1
1
1
1
1
1
1
1
1
1
0.999999
0.999998
0.999991
0.999963
0.999852
0.999416
0.99774
0.991404
0.967916
0.882978
0.661405
0.445425
0.281887
0.168011
0.094586
0.0504269
0.0255171
0.0122801
0.00563011
0.00246273
0.00102906
0.00041118
0.000157242
5.75898e-05
2.02117e-05
6.80012e-06
2.19389e-06
6.78842e-07
2.01469e-07
5.73469e-08
1.56534e-08
4.09635e-09
1.02734e-09
2.46808e-10
5.67647e-11
1.24903e-11
2.62717e-12
5.27735e-13
1.01131e-13
1.84657e-14
3.20815e-15
5.29503e-16
8.28787e-17
1.22777e-17
1.71756e-18
2.26323e-19
2.80101e-20
3.24513e-21
3.5061e-22
3.51699e-23
3.25862e-24
2.77238e-25
2.16022e-26
1.53385e-27
9.83296e-29
5.62954e-30
2.84071e-31
1.24281e-32
4.61489e-34
1.41315e-35
3.42361e-37
6.14691e-39
7.26484e-41
4.2355e-43
1
1
1
1
1
1
1
1
1
1
1
1
1
1
1
1
1
1
1
1
1
1
1
1
1
1
1
1
1
1
1
1
1
1
1
1
1
0.999998
0.999991
0.999965
0.99986
0.999449
0.997875
0.991947
0.970042
0.890888
0.675223
0.45624
0.289801
0.173374
0.0979834
0.0524512
0.0266557
0.012886
0.00593577
0.00260918
0.0010958
0.000440165
0.00016925
6.23417e-05
2.20095e-05
7.45092e-06
2.41941e-06
7.5369e-07
2.25264e-07
6.45937e-08
1.77676e-08
4.68705e-09
1.18536e-09
2.87261e-10
6.66703e-11
1.48087e-11
3.14538e-12
6.38258e-13
1.23599e-13
2.2814e-14
4.00822e-15
6.69259e-16
1.06017e-16
1.59024e-17
2.25383e-18
3.01109e-19
3.7821e-20
4.45345e-21
4.90043e-22
5.0212e-23
4.7716e-24
4.18392e-25
3.35431e-26
2.43699e-27
1.59165e-28
9.25342e-30
4.72995e-31
2.09241e-32
7.84592e-34
2.42373e-35
5.91943e-37
1.07116e-38
1.27594e-40
7.49817e-43
1
1
1
1
1
1
1
1
1
1
1
1
1
1
1
1
1
1
1
1
1
1
1
1
1
1
1
1
1
1
1
1
1
1
1
1
1
0.999998
0.999992
0.999966
0.999863
0.999461
0.997925
0.992172
0.971053
0.895151
0.684531
0.465222
0.297202
0.178746
0.101515
0.0545955
0.0278723
0.0135362
0.00626478
0.00276729
0.00116815
0.000471727
0.000182396
6.75746e-05
2.40016e-05
8.17669e-06
2.67259e-06
8.38283e-07
2.52345e-07
7.29017e-08
2.02101e-08
5.37511e-09
1.37105e-09
3.35255e-10
7.85443e-11
1.7619e-11
3.78119e-12
7.75629e-13
1.51912e-13
2.83733e-14
5.04655e-15
8.53402e-16
1.36962e-16
2.08181e-17
2.98997e-18
4.047e-19
5.14674e-20
6.12871e-21
6.80662e-22
7.01892e-23
6.68652e-24
5.8557e-25
4.70104e-26
3.4434e-27
2.2771e-28
1.34396e-29
6.98535e-31
3.14525e-32
1.20126e-33
3.7826e-35
9.42007e-37
1.73808e-38
2.11033e-40
1.26368e-42
1
1
1
1
1
1
1
1
1
1
1
1
1
1
1
1
1
1
1
1
1
1
1
1
1
1
1
1
1
1
1
1
1
1
1
1
1
0.999998
0.999992
0.999966
0.999863
0.999462
0.997932
0.992214
0.97128
0.896291
0.68813
0.470275
0.302317
0.183014
0.104623
0.0566312
0.0290958
0.0142192
0.00662193
0.00294325
0.00125017
0.000508019
0.000197676
7.37067e-05
2.63509e-05
9.03684e-06
2.97378e-06
9.39218e-07
2.84728e-07
8.28507e-08
2.31376e-08
6.20013e-09
1.59371e-09
3.92791e-10
9.27745e-11
2.09863e-11
4.54319e-12
9.40422e-13
1.85947e-13
3.50801e-14
6.30626e-15
1.07864e-15
1.75241e-16
2.69909e-17
3.93253e-18
5.40648e-19
6.99428e-20
8.48799e-21
9.62873e-22
1.01687e-22
9.94966e-24
8.96689e-25
7.38419e-26
5.50939e-27
3.69639e-28
2.20795e-29
1.15938e-30
5.26626e-32
2.02729e-33
6.44466e-35
1.62279e-36
3.03236e-38
3.73456e-40
2.27159e-42
1
1
1
1
1
1
1
1
1
1
1
1
1
1
1
1
1
1
1
1
1
1
1
1
1
1
1
1
1
1
1
1
1
1
1
1
1
0.999998
0.999992
0.999966
0.999865
0.99947
0.997962
0.992324
0.971677
0.897665
0.691152
0.47395
0.306147
0.186412
0.107247
0.0584406
0.0302309
0.0148765
0.00697683
0.00312324
0.00133634
0.00054711
0.000214525
8.0622e-05
2.90576e-05
1.00483e-05
3.33506e-06
1.06262e-06
3.25055e-07
9.54628e-08
2.69126e-08
7.28147e-09
1.89007e-09
4.70474e-10
1.12241e-10
2.56468e-11
5.6084e-12
1.17268e-12
2.34215e-13
4.46325e-14
8.10493e-15
1.40058e-15
2.29968e-16
3.58172e-17
5.28163e-18
7.35764e-19
9.65408e-20
1.18929e-20
1.37054e-21
1.47149e-22
1.46513e-23
1.34558e-24
1.13249e-25
8.6689e-27
5.98223e-28
3.68219e-29
1.99522e-30
9.36106e-32
3.72097e-33
1.21563e-34
3.13261e-36
5.96676e-38
7.46279e-40
4.59429e-42
1
1
1
1
1
1
1
1
1
1
1
1
1
1
1
1
1
1
1
1
1
1
1
1
1
1
1
1
1
1
1
1
1
1
1
1
1
0.999998
0.999992
0.999968
0.99987
0.999491
0.998039
0.992588
0.972553
0.900576
0.69662
0.478411
0.30975
0.189229
0.109333
0.0598805
0.0311531
0.0154253
0.00728168
0.00328209
0.00141435
0.00058335
0.000230499
8.73192e-05
3.17334e-05
1.10687e-05
3.70687e-06
1.19219e-06
3.68263e-07
1.09258e-07
3.11298e-08
8.51601e-09
2.23607e-09
5.63278e-10
1.3605e-10
3.14843e-11
6.97488e-12
1.47767e-12
2.99008e-13
5.77072e-14
1.06049e-14
1.85241e-15
3.06951e-16
4.81438e-17
7.12973e-18
9.96526e-19
1.31373e-19
1.62794e-20
1.8891e-21
2.04432e-22
2.05351e-23
1.9045e-24
1.62063e-25
1.25607e-26
8.78953e-28
5.49455e-29
3.02844e-30
1.4476e-31
5.87341e-33
1.96452e-34
5.19503e-36
1.01734e-37
1.31017e-39
8.31513e-42
1
1
1
1
1
1
1
1
1
1
1
1
1
1
1
1
1
1
1
1
1
1
1
1
1
1
1
1
1
1
1
1
1
1
1
1
1
0.999998
0.999993
0.999971
0.999885
0.999546
0.998234
0.993246
0.974672
0.907247
0.708499
0.486927
0.315669
0.19324
0.111963
0.0615341
0.0321446
0.0159902
0.007587
0.00343867
0.00149061
0.000618677
0.000246085
9.38771e-05
3.43682e-05
1.20807e-05
4.0787e-06
1.32301e-06
4.1236e-07
1.23505e-07
3.55435e-08
9.82738e-09
2.60979e-09
6.6544e-10
1.62836e-10
3.82197e-11
8.59868e-12
1.85289e-12
3.82078e-13
7.53204e-14
1.41764e-14
2.5425e-15
4.33612e-16
7.01675e-17
1.07475e-17
1.55167e-18
2.10316e-19
2.66846e-20
3.15833e-21
3.47296e-22
3.53148e-23
3.30315e-24
2.82508e-25
2.19462e-26
1.53687e-27
9.61912e-29
5.3317e-30
2.57271e-31
1.05636e-32
3.57774e-34
9.57832e-36
1.90037e-37
2.48397e-39
1.60364e-41
1
1
1
1
1
1
1
1
1
1
1
1
1
1
1
1
1
1
1
1
1
1
1
1
1
1
1
1
1
1
1
1
1
1
1
1
1
0.999999
0.999994
0.999975
0.999901
0.999609
0.998484
0.994189
0.978092
0.919233
0.733424
0.505062
0.327896
0.201071
0.116753
0.0643442
0.0337257
0.0168425
0.00802671
0.00365567
0.00159303
0.000664912
0.000266056
0.000102134
3.7637e-05
1.33203e-05
4.52913e-06
1.47987e-06
4.64716e-07
1.40254e-07
4.06783e-08
1.13356e-08
3.03403e-09
7.79667e-10
1.92254e-10
4.54605e-11
1.03002e-11
2.23414e-12
4.63422e-13
9.18143e-14
1.73583e-14
3.13276e-15
5.38891e-16
8.8136e-17
1.36774e-17
2.0093e-18
2.78669e-19
3.63573e-20
4.44424e-21
5.06682e-22
5.36013e-23
5.23045e-24
4.67537e-25
3.79704e-26
2.77427e-27
1.80159e-28
1.02363e-29
5.00392e-31
2.06201e-32
6.98869e-34
1.88201e-35
3.78543e-37
5.03053e-39
3.30503e-41
1
1
1
1
1
1
1
1
1
1
1
1
1
1
1
1
1
1
1
1
1
1
1
1
1
1
1
1
1
1
1
1
1
1
1
1
1
0.999999
0.999994
0.999977
0.999907
0.999639
0.998616
0.994772
0.980522
0.928674
0.757479
0.525047
0.34211
0.210388
0.122486
0.067693
0.0355948
0.0178423
0.00853992
0.00390848
0.00171254
0.000719121
0.000289651
0.000111989
4.1588e-05
1.48408e-05
5.09091e-06
1.67916e-06
5.32608e-07
1.62462e-07
4.76533e-08
1.34384e-08
3.64245e-09
9.48521e-10
2.37181e-10
5.69125e-11
1.30943e-11
2.88595e-12
6.0861e-13
1.22649e-13
2.35797e-14
4.31399e-15
7.49849e-16
1.23639e-16
1.92944e-17
2.84234e-18
3.94298e-19
5.15929e-20
6.34055e-21
7.28684e-22
7.79169e-23
7.70663e-24
7.00305e-25
5.79993e-26
4.3365e-27
2.89391e-28
1.70027e-29
8.65338e-31
3.73791e-32
1.33098e-33
3.74202e-35
7.77401e-37
1.06169e-38
7.14905e-41
1
1
1
1
1
1
1
1
1
1
1
1
1
1
1
1
1
1
1
1
1
1
1
1
1
1
1
1
1
1
1
1
1
1
1
1
1
0.999999
0.999994
0.999977
0.999909
0.999648
0.998658
0.994987
0.98159
0.933472
0.772533
0.54137
0.355948
0.220576
0.129235
0.0718068
0.037937
0.0191004
0.00918155
0.00422056
0.00185771
0.00078383
0.000317327
0.000123359
4.60768e-05
1.65449e-05
5.71322e-06
1.89781e-06
6.0653e-07
1.86513e-07
5.5183e-08
1.57068e-08
4.29984e-09
1.13177e-09
2.86297e-10
6.95653e-11
1.62258e-11
3.63019e-12
7.78355e-13
1.59777e-13
3.1363e-14
5.87804e-15
1.05022e-15
1.78529e-16
2.87989e-17
4.39555e-18
6.3251e-19
8.52793e-20
1.07404e-20
1.2586e-21
1.36599e-22
1.36567e-23
1.24968e-24
1.0388e-25
7.77569e-27
5.21893e-28
3.10665e-29
1.61332e-30
7.14897e-32
2.61999e-33
7.59437e-35
1.6284e-36
2.29359e-38
1.5911e-40
1
1
1
1
1
1
1
1
1
1
1
1
1
1
1
1
1
1
1
1
1
1
1
1
1
1
1
1
1
1
1
1
1
1
1
1
1
0.999999
0.999995
0.999978
0.999913
0.999661
0.998707
0.995159
0.982193
0.935659
0.779235
0.549989
0.364524
0.227823
0.134619
0.0754136
0.0401553
0.0203694
0.00986295
0.00456619
0.00202409
0.000860096
0.000350698
0.000137322
5.16725e-05
1.86945e-05
6.50551e-06
2.17812e-06
7.0176e-07
2.17586e-07
6.49213e-08
1.86378e-08
5.14681e-09
1.36666e-09
3.48784e-10
8.5499e-11
2.0117e-11
4.53934e-12
9.8134e-13
2.03028e-13
4.01462e-14
7.57636e-15
1.36241e-15
2.33175e-16
3.79604e-17
5.86854e-18
8.59589e-19
1.18831e-19
1.5438e-20
1.87578e-21
2.12016e-22
2.21555e-23
2.12529e-24
1.85577e-25
1.46038e-26
1.02069e-27
6.25067e-29
3.30125e-30
1.47267e-31
5.43452e-33
1.60067e-34
3.51102e-36
5.08006e-38
3.62779e-40
1
1
1
1
1
1
1
1
1
1
1
1
1
1
1
1
1
1
1
1
1
1
1
1
1
1
1
1
1
1
1
1
1
1
1
1
1
0.999999
0.999995
0.99998
0.999922
0.999695
0.998827
0.995557
0.983466
0.939729
0.790138
0.560432
0.373243
0.234633
0.139567
0.0787497
0.042249
0.0215984
0.0105412
0.00491974
0.00219881
0.000942213
0.000387495
0.000153075
5.81258e-05
2.12276e-05
7.45913e-06
2.52273e-06
8.21364e-07
2.57471e-07
7.77039e-08
2.25752e-08
6.31243e-09
1.69823e-09
4.39373e-10
1.0926e-10
2.60957e-11
5.98119e-12
1.31422e-12
2.76492e-13
5.56151e-14
1.06767e-14
1.95205e-15
3.39032e-16
5.57698e-17
8.66488e-18
1.26874e-18
1.7581e-19
2.29558e-20
2.81219e-21
3.21581e-22
3.41232e-23
3.33676e-24
2.98265e-25
2.41387e-26
1.74789e-27
1.11613e-28
6.17653e-30
2.89819e-31
1.11976e-32
3.41989e-34
7.7522e-36
1.15821e-37
8.54415e-40
1
1
1
1
1
1
1
1
1
1
1
1
1
1
1
1
1
1
1
1
1
1
1
1
1
1
1
1
1
1
1
1
1
1
1
1
1
0.999999
0.999995
0.999981
0.999926
0.999712
0.998898
0.995841
0.984559
0.943728
0.8021
0.571991
0.382507
0.241532
0.144394
0.0819281
0.0442216
0.0227545
0.0111825
0.00525716
0.0023676
0.00102265
0.000424067