/*--------------------------------*- C++ -*----------------------------------*\
| =========                 |                                                 |
| \\      /  F ield         | OpenFOAM: The Open Source CFD Toolbox           |
|  \\    /   O peration     | Version:  4.1                                   |
|   \\  /    A nd           | Web:      www.OpenFOAM.org                      |
|    \\/     M anipulation  |                                                 |
\*---------------------------------------------------------------------------*/
FoamFile
{
    version     2.0;
    format      ascii;
    class       volScalarField;
    location    "0.1";
    object      s_0;
}
// * * * * * * * * * * * * * * * * * * * * * * * * * * * * * * * * * * * * * //

dimensions      [0 0 0 0 0 0 0];

internalField   nonuniform List<scalar> 
43750
(
1
1
1
1
1
1
1
1
1
1
1
1
1
1
1
1
1
1
1
1
1
1
1
1
1
1
1
1
1
1
1
1
1
1
1
1
0.999998
0.999991
0.99996
0.999821
0.999218
0.996647
0.986068
0.944499
0.79206
0.536033
0.335513
0.196576
0.108296
0.0562783
0.0276548
0.0128744
0.00568697
0.00238663
0.000952589
0.000361934
0.000131
4.51935e-05
1.48674e-05
4.66521e-06
1.39656e-06
3.98862e-07
1.08674e-07
2.82421e-08
6.99854e-09
1.65304e-09
3.71972e-10
7.96922e-11
1.62438e-11
3.14747e-12
5.79191e-13
1.01112e-13
1.67255e-14
2.61804e-15
3.87217e-16
5.40269e-17
7.09861e-18
8.76602e-19
1.01526e-19
1.10027e-20
1.11293e-21
1.04783e-22
9.15505e-24
7.39854e-25
5.51021e-26
3.76687e-27
2.35308e-28
1.33642e-29
6.86125e-31
3.16324e-32
1.29937e-33
4.71115e-35
1.49032e-36
4.05321e-38
9.29523e-40
1.74998e-41
2.60057e-43
2.86454e-45
2.08262e-47
7.50828e-50
1
1
1
1
1
1
1
1
1
1
1
1
1
1
1
1
1
1
1
1
1
1
1
1
1
1
1
1
1
1
1
1
1
1
1
1
0.999999
0.999997
0.999988
0.999951
0.999796
0.999187
0.996866
0.988393
0.958951
0.860039
0.635669
0.429778
0.271644
0.161102
0.0899265
0.0473782
0.0236196
0.0111667
0.00501592
0.00214403
0.000873244
0.000339267
0.000125847
4.46019e-05
1.51123e-05
4.89738e-06
1.51843e-06
4.50514e-07
1.27921e-07
3.47606e-08
9.03836e-09
2.24826e-09
5.3483e-10
1.2162e-10
2.64225e-11
5.48072e-12
1.08458e-12
2.04573e-13
3.67415e-14
6.27588e-15
1.01818e-15
1.56661e-16
2.2822e-17
3.14183e-18
4.07877e-19
4.9815e-20
5.70839e-21
6.11896e-22
6.11456e-23
5.67391e-24
4.86734e-25
3.84023e-26
2.76996e-27
1.81377e-28
1.06913e-29
5.61571e-31
2.59564e-32
1.03907e-33
3.52834e-35
9.87893e-37
2.18902e-38
3.59806e-40
3.89861e-42
2.08626e-44
1
1
1
1
1
1
1
1
1
1
1
1
1
1
1
1
1
1
1
1
1
1
1
1
1
1
1
1
1
1
1
1
1
1
1
1
0.999999
0.999996
0.999985
0.999939
0.999757
0.999058
0.996421
0.98664
0.951048
0.824442
0.586639
0.386652
0.238712
0.138517
0.0757568
0.0391533
0.0191678
0.00890703
0.00393564
0.00165604
0.000664417
0.00025444
9.30853e-05
3.25564e-05
1.08917e-05
3.48703e-06
1.06869e-06
3.13597e-07
8.81182e-08
2.37099e-08
6.10836e-09
1.50648e-09
3.55564e-10
8.02818e-11
1.73319e-11
3.57556e-12
7.04369e-13
1.3239e-13
2.37185e-14
4.04601e-15
6.56342e-16
1.01108e-16
1.47673e-17
2.04124e-18
2.66493e-19
3.27852e-20
3.79089e-21
4.10767e-22
4.15701e-23
3.91404e-24
3.41353e-25
2.74337e-26
2.01957e-27
1.35221e-28
8.1638e-30
4.39679e-31
2.08581e-32
8.57673e-34
2.99329e-35
8.61634e-37
1.96287e-38
3.31565e-40
3.68897e-42
2.02466e-44
1
1
1
1
1
1
1
1
1
1
1
1
1
1
1
1
1
1
1
1
1
1
1
1
1
1
1
1
1
1
1
1
1
1
1
1
0.999999
0.999996
0.999983
0.999928
0.999705
0.998817
0.995358
0.982239
0.933872
0.769367
0.530987
0.34237
0.207167
0.117947
0.0633463
0.0321705
0.0154818
0.00707331
0.00307298
0.00127125
0.000501356
0.00018868
6.78155e-05
2.32938e-05
7.65056e-06
2.40359e-06
7.22554e-07
2.07875e-07
5.72386e-08
1.50843e-08
3.80419e-09
9.17934e-10
2.11857e-10
4.67503e-11
9.85884e-12
1.98568e-12
3.81713e-13
6.9977e-14
1.22226e-14
2.03192e-15
3.21117e-16
4.81777e-17
6.85159e-18
9.22039e-19
1.17185e-19
1.40346e-20
1.57994e-21
1.66708e-22
1.64333e-23
1.5077e-24
1.28185e-25
1.00484e-26
7.21973e-28
4.72118e-29
2.78751e-30
1.47285e-31
6.87535e-33
2.78996e-34
9.63558e-36
2.75173e-37
6.23325e-39
1.04901e-40
1.16467e-42
6.3863e-45
1
1
1
1
1
1
1
1
1
1
1
1
1
1
1
1
1
1
1
1
1
1
1
1
1
1
1
1
1
1
1
1
1
1
1
1
0.999999
0.999996
0.999982
0.999922
0.999681
0.998721
0.994995
0.980903
0.929073
0.756301
0.519177
0.333353
0.200855
0.113853
0.060873
0.0307725
0.0147396
0.00670189
0.00289733
0.00119253
0.000467842
0.000175106
6.2576e-05
2.13646e-05
6.97221e-06
2.17568e-06
6.49342e-07
1.85381e-07
5.06276e-08
1.32254e-08
3.30412e-09
7.89261e-10
1.80197e-10
3.93041e-11
8.1857e-12
1.62674e-12
3.08244e-13
5.56431e-14
9.55954e-15
1.56131e-15
2.42115e-16
3.55979e-17
4.95463e-18
6.51652e-19
8.08303e-20
9.43447e-21
1.0336e-21
1.05984e-22
1.01384e-23
9.01413e-25
7.41734e-26
5.62056e-27
3.89928e-28
2.4596e-29
1.39901e-30
7.10379e-32
3.18014e-33
1.23536e-34
4.07841e-36
1.11219e-37
2.40422e-39
3.86046e-41
4.09039e-43
2.14197e-45
1
1
1
1
1
1
1
1
1
1
1
1
1
1
1
1
1
1
1
1
1
1
1
1
1
1
1
1
1
1
1
1
1
1
1
1
0.999999
0.999996
0.999982
0.999923
0.999687
0.998751
0.995115
0.981325
0.930416
0.759299
0.520925
0.334157
0.20118
0.113972
0.0609129
0.0307846
0.0147426
0.00670216
0.00289691
0.0011921
0.000467556
0.000174947
6.24978e-05
2.13292e-05
6.95732e-06
2.1698e-06
6.47154e-07
1.84611e-07
5.03703e-08
1.31438e-08
3.27953e-09
7.82212e-10
1.78274e-10
3.88055e-11
8.06269e-12
1.59789e-12
3.01819e-13
5.4284e-14
9.28688e-15
1.50948e-15
2.32791e-16
3.40126e-17
4.70032e-18
6.13226e-19
7.5373e-20
8.70766e-21
9.4306e-22
9.54656e-23
9.00269e-24
7.87882e-25
6.37116e-26
4.73718e-27
3.21949e-28
1.98617e-29
1.10308e-30
5.46005e-32
2.37889e-33
8.97999e-35
2.87676e-36
7.60265e-38
1.59092e-39
2.4707e-41
2.53031e-43
1.28033e-45
1
1
1
1
1
1
1
1
1
1
1
1
1
1
1
1
1
1
1
1
1
1
1
1
1
1
1
1
1
1
1
1
1
1
1
1
0.999999
0.999996
0.999982
0.999927
0.999704
0.998824
0.995424
0.982545
0.93494
0.771443
0.530373
0.340181
0.204673
0.115856
0.061873
0.0312516
0.0149603
0.00679974
0.00293893
0.00120948
0.000474459
0.000177575
6.34567e-05
2.16643e-05
7.06941e-06
2.20568e-06
6.5814e-07
1.87828e-07
5.12705e-08
1.33844e-08
3.34096e-09
7.97174e-10
1.81749e-10
3.95743e-11
8.22461e-12
1.63031e-12
3.07979e-13
5.53937e-14
9.47603e-15
1.53991e-15
2.37402e-16
3.46685e-17
4.78757e-18
6.24026e-19
7.66096e-20
8.83747e-21
9.55399e-22
9.65061e-23
9.07756e-24
7.92059e-25
6.38274e-26
4.72595e-27
3.1956e-28
1.95961e-29
1.08076e-30
5.30694e-32
2.29142e-33
8.56345e-35
2.71326e-36
7.08544e-38
1.46387e-39
2.24293e-41
2.26498e-43
1.12967e-45
1
1
1
1
1
1
1
1
1
1
1
1
1
1
1
1
1
1
1
1
1
1
1
1
1
1
1
1
1
1
1
1
1
1
1
1
0.999999
0.999997
0.999986
0.99994
0.999753
0.999001
0.996025
0.984552
0.941634
0.789983
0.545905
0.350766
0.211257
0.119657
0.063924
0.0322941
0.0154628
0.00703038
0.00304008
0.00125192
0.000491511
0.000184138
6.58764e-05
2.25188e-05
7.35843e-06
2.29928e-06
6.87158e-07
1.96436e-07
5.37135e-08
1.40474e-08
3.51292e-09
8.3978e-10
1.91828e-10
4.18488e-11
8.71393e-12
1.73057e-12
3.27526e-13
5.90155e-14
1.0113e-14
1.6461e-15
2.54154e-16
3.7165e-17
5.13831e-18
6.70379e-19
8.23572e-20
9.50426e-21
1.02754e-21
1.03758e-22
9.75198e-24
8.49811e-25
6.83552e-26
5.04927e-27
3.40551e-28
2.08285e-29
1.14558e-30
5.60926e-32
2.41479e-33
8.99672e-35
2.84147e-36
7.39601e-38
1.52296e-39
2.32568e-41
2.34078e-43
1.16373e-45
1
1
1
1
1
1
1
1
1
1
1
1
1
1
1
1
1
1
1
1
1
1
1
1
1
1
1
1
1
1
1
1
1
1
1
1
0.999999
0.999997
0.999986
0.999942
0.999758
0.999016
0.996074
0.984711
0.942157
0.7915
0.547527
0.352236
0.212457
0.12055
0.0645282
0.0326659
0.0156725
0.00713977
0.00309326
0.00127619
0.000501962
0.000188401
6.75273e-05
2.31272e-05
7.57209e-06
2.37084e-06
7.10031e-07
2.03416e-07
5.5748e-08
1.46137e-08
3.66348e-09
8.77998e-10
2.01087e-10
4.39892e-11
9.1857e-12
1.82965e-12
3.47339e-13
6.27843e-14
1.07942e-14
1.76293e-15
2.73146e-16
4.00863e-17
5.56279e-18
7.2853e-19
8.98517e-20
1.04107e-20
1.13015e-21
1.14597e-22
1.08166e-23
9.46653e-25
7.64779e-26
5.674e-27
3.84269e-28
2.35864e-29
1.30122e-30
6.38726e-32
2.7551e-33
1.02792e-34
3.24943e-36
8.46121e-38
1.74217e-39
2.65906e-41
2.67393e-43
1.32778e-45
1
1
1
1
1
1
1
1
1
1
1
1
1
1
1
1
1
1
1
1
1
1
1
1
1
1
1
1
1
1
1
1
1
1
1
1
0.999999
0.999997
0.999986
0.999942
0.999761
0.99903
0.996151
0.98507
0.943622
0.796239
0.552064
0.355682
0.214851
0.122076
0.0654305
0.0331659
0.0159339
0.00726939
0.00315454
0.00130375
0.000513738
0.000193186
6.93782e-05
2.38093e-05
7.81177e-06
2.4512e-06
7.35749e-07
2.11275e-07
5.80414e-08
1.52529e-08
3.83355e-09
9.21203e-10
2.11562e-10
4.64119e-11
9.71992e-12
1.9419e-12
3.69792e-13
6.70564e-14
1.15666e-14
1.89548e-15
2.94705e-16
4.34052e-17
6.04552e-18
7.94747e-19
9.83995e-20
1.14467e-20
1.24771e-21
1.27049e-22
1.20438e-23
1.05873e-24
8.59216e-26
6.40436e-27
4.35822e-28
2.68874e-29
1.49129e-30
7.36129e-32
3.19369e-33
1.1987e-34
3.81259e-36
9.98985e-38
2.07e-39
3.1797e-41
3.21808e-43
1.60829e-45
1
1
1
1
1
1
1
1
1
1
1
1
1
1
1
1
1
1
1
1
1
1
1
1
1
1
1
1
1
1
1
1
1
1
1
1
0.999999
0.999997
0.999986
0.999943
0.99977
0.999084
0.996412
0.986197
0.948074
0.810963
0.566044
0.365826
0.221411
0.125985
0.067606
0.0343063
0.0165
0.00753606
0.00327368
0.00135446
0.000534362
0.000201212
7.23682e-05
2.48757e-05
8.17594e-06
2.57027e-06
7.7302e-07
2.22444e-07
6.12449e-08
1.61321e-08
4.06441e-09
9.79165e-10
2.2547e-10
4.95995e-11
1.04173e-11
2.0874e-12
3.9872e-13
7.25313e-14
1.25518e-14
2.06385e-15
3.21992e-16
4.75922e-17
6.65278e-18
8.77832e-19
1.091e-19
1.27408e-20
1.3943e-21
1.42553e-22
1.35695e-23
1.1979e-24
9.76357e-26
7.30957e-27
4.99658e-28
3.09671e-29
1.72561e-30
8.55854e-32
3.73116e-33
1.40735e-34
4.49865e-36
1.18472e-37
2.46741e-39
3.8096e-41
3.87536e-43
1.94669e-45
1
1
1
1
1
1
1
1
1
1
1
1
1
1
1
1
1
1
1
1
1
1
1
1
1
1
1
1
1
1
1
1
1
1
1
1
0.999999
0.999997
0.999986
0.999942
0.999767
0.999079
0.996415
0.98631
0.948835
0.814363
0.57084
0.370416
0.225108
0.128558
0.069208
0.0352178
0.0169815
0.0077748
0.00338566
0.00140428
0.000555426
0.000209686
7.56167e-05
2.60635e-05
8.59042e-06
2.70838e-06
8.1698e-07
2.35812e-07
6.51288e-08
1.72103e-08
4.35034e-09
1.05159e-09
2.42988e-10
5.36437e-11
1.13079e-11
2.27438e-12
4.36115e-13
7.96489e-14
1.38398e-14
2.28518e-15
3.5806e-16
5.31576e-17
7.46455e-18
9.89541e-19
1.23573e-19
1.45018e-20
1.595e-21
1.63913e-22
1.5685e-23
1.39214e-24
1.14093e-25
8.58986e-27
5.90556e-28
3.68156e-29
2.06379e-30
1.02981e-31
4.51731e-33
1.71455e-34
5.51534e-36
1.46174e-37
3.06384e-39
4.76077e-41
4.87381e-43
2.46373e-45
1
1
1
1
1
1
1
1
1
1
1
1
1
1
1
1
1
1
1
1
1
1
1
1
1
1
1
1
1
1
1
1
1
1
1
1
0.999999
0.999996
0.999985
0.999936
0.999744
0.998996
0.996161
0.985591
0.946895
0.80955
0.56815
0.369573
0.225138
0.128976
0.0696859
0.0356124
0.0172442
0.00792724
0.00346552
0.00144278
0.000572713
0.000216973
7.85157e-05
2.71559e-05
8.9814e-06
2.84151e-06
8.60166e-07
2.49168e-07
6.90688e-08
1.83193e-08
4.64822e-09
1.12793e-09
2.61652e-10
5.79948e-11
1.22748e-11
2.47908e-12
4.77367e-13
8.75567e-14
1.52803e-14
2.53424e-15
3.98881e-16
5.94913e-17
8.39326e-18
1.118e-18
1.40299e-19
1.65472e-20
1.82927e-21
1.88972e-22
1.81798e-23
1.6224e-24
1.33711e-25
1.01247e-26
7.00173e-28
4.39126e-29
2.47684e-30
1.24374e-31
5.49107e-33
2.09795e-34
6.79428e-36
1.8131e-37
3.82693e-39
5.98875e-41
6.17499e-43
3.14413e-45
1
1
1
1
1
1
1
1
1
1
1
1
1
1
1
1
1
1
1
1
1
1
1
1
1
1
1
1
1
1
1
1
1
1
1
1
0.999999
0.999996
0.999984
0.999933
0.999726
0.998908
0.995758
0.983964
0.940985
0.79215
0.555591
0.363171
0.22253
0.128115
0.0694985
0.0356297
0.0173152
0.00798993
0.00350659
0.00146571
0.000584149
0.000222191
8.07229e-05
2.80294e-05
9.30671e-06
2.95603e-06
8.98383e-07
2.61286e-07
7.27254e-08
1.93703e-08
4.93612e-09
1.20312e-09
2.80369e-10
6.24359e-11
1.32787e-11
2.69512e-12
5.21601e-13
9.61661e-14
1.68715e-14
2.81322e-15
4.45215e-16
6.67704e-17
9.47321e-18
1.26903e-18
1.60168e-19
1.90004e-20
2.11277e-21
2.19548e-22
2.1247e-23
1.90747e-24
1.58152e-25
1.20479e-26
8.38246e-28
5.28935e-29
3.00171e-30
1.5166e-31
6.73706e-33
2.58993e-34
8.43954e-36
2.2661e-37
4.81266e-39
7.57774e-41
7.86139e-43
4.02733e-45
1
1
1
1
1
1
1
1
1
1
1
1
1
1
1
1
1
1
1
1
1
1
1
1
1
1
1
1
1
1
1
1
1
1
1
1
0.999999
0.999996
0.999984
0.999934
0.999728
0.998908
0.995717
0.983624
0.939121
0.785325
0.5486
0.358097
0.219589
0.126777
0.0690655
0.0355769
0.0173589
0.00804088
0.00354246
0.00148643
0.000594755
0.000227149
8.28718e-05
2.89003e-05
9.63852e-06
3.0753e-06
9.38944e-07
2.7436e-07
7.67259e-08
2.05336e-08
5.2579e-09
1.28783e-09
3.01601e-10
6.75031e-11
1.44302e-11
2.94419e-12
5.72861e-13
1.06196e-13
1.87359e-14
3.14206e-15
5.00189e-16
7.5468e-17
1.07734e-17
1.45232e-18
1.84484e-19
2.20288e-20
2.46593e-21
2.57992e-22
2.514e-23
2.27279e-24
1.89778e-25
1.45606e-26
1.02038e-27
6.48534e-29
3.70723e-30
1.8867e-31
8.44209e-33
3.26887e-34
1.07283e-35
2.90106e-37
6.20403e-39
9.83497e-41
1.02705e-42
5.29512e-45
1
1
1
1
1
1
1
1
1
1
1
1
1
1
1
1
1
1
1
1
1
1
1
1
1
1
1
1
1
1
1
1
1
1
1
1
0.999999
0.999996
0.999985
0.999936
0.999737
0.99894
0.995824
0.983961
0.940114
0.787661
0.550037
0.358848
0.220031
0.127087
0.0692925
0.0357422
0.017483
0.00812279
0.00359011
0.0015115
0.000606877
0.000232594
8.51622e-05
2.98079e-05
9.97874e-06
3.1963e-06
9.79854e-07
2.87527e-07
8.07628e-08
2.17135e-08
5.58664e-09
1.37516e-09
3.23717e-10
7.28407e-11
1.56573e-11
3.21277e-12
6.28791e-13
1.17268e-13
2.08178e-14
3.51345e-15
5.62968e-16
8.55096e-17
1.22907e-17
1.66854e-18
2.13478e-19
2.56792e-20
2.8963e-21
3.05362e-22
2.99914e-23
2.73331e-24
2.30116e-25
1.78044e-26
1.25843e-27
8.06839e-29
4.65326e-30
2.3896e-31
1.07906e-32
4.21713e-34
1.39708e-35
3.81379e-37
8.23414e-39
1.31794e-40
1.3897e-42
7.2353e-45
1
1
1
1
1
1
1
1
1
1
1
1
1
1
1
1
1
1
1
1
1
1
1
1
1
1
1
1
1
1
1
1
1
1
1
1
0.999999
0.999997
0.999986
0.999943
0.999767
0.999059
0.996267
0.985511
0.945259
0.801726
0.559983
0.364561
0.22317
0.128799
0.070232
0.0362616
0.0177638
0.00826742
0.00366068
0.00154424
0.000621433
0.000238798
8.76925e-05
3.0793e-05
1.03443e-05
3.32551e-06
1.02336e-06
3.01488e-07
8.50343e-08
2.29598e-08
5.93357e-09
1.46728e-09
3.47049e-10
7.84759e-11
1.69546e-11
3.49733e-12
6.88208e-13
1.2907e-13
2.30451e-14
3.91247e-15
6.30728e-16
9.6401e-17
1.3945e-17
1.90552e-18
2.45431e-19
2.97245e-20
3.37592e-21
3.58456e-22
3.54609e-23
3.2556e-24
2.76148e-25
2.153e-26
1.53369e-27
9.91222e-29
5.76371e-30
2.98488e-31
1.35958e-32
5.36095e-34
1.79238e-35
4.93936e-37
1.0768e-38
1.74056e-40
1.85372e-42
9.74834e-45
1
1
1
1
1
1
1
1
1
1
1
1
1
1
1
1
1
1
1
1
1
1
1
1
1
1
1
1
1
1
1
1
1
1
1
1
0.999999
0.999997
0.999987
0.999945
0.999779
0.999124
0.996591
0.986952
0.951071
0.821592
0.579066
0.377829
0.231271
0.133377
0.0726923
0.0375344
0.0183983
0.00857447
0.00380458
0.00160918
0.000649412
0.00025029
9.21963e-05
3.24792e-05
1.09481e-05
3.53242e-06
1.09123e-06
3.22791e-07
9.14331e-08
2.47984e-08
6.43876e-09
1.59998e-09
3.80355e-10
8.64599e-11
1.87814e-11
3.89601e-12
7.71135e-13
1.45494e-13
2.61391e-14
4.46618e-15
7.24736e-16
1.11519e-16
1.62438e-17
2.23538e-18
2.89998e-19
3.53798e-20
4.04802e-21
4.33024e-22
4.31563e-23
3.99128e-24
3.40987e-25
2.67705e-26
1.91974e-27
1.24857e-28
7.30312e-30
3.80272e-31
1.74063e-32
6.89336e-34
2.31329e-35
6.39547e-37
1.39932e-38
2.27083e-40
2.42869e-42
1.283e-44
1
1
1
1
1
1
1
1
1
1
1
1
1
1
1
1
1
1
1
1
1
1
1
1
1
1
1
1
1
1
1
1
1
1
1
1
0.999999
0.999997
0.999988
0.999951
0.999803
0.999225
0.996992
0.988502
0.956896
0.842469
0.601083
0.39468
0.242704
0.140453
0.0767406
0.0396961
0.0194841
0.00909152
0.00403916
0.00171085
0.00069162
0.000267088
9.8606e-05
3.48243e-05
1.17708e-05
3.80913e-06
1.18046e-06
3.50378e-07
9.96077e-08
2.71196e-08
7.07014e-09
1.76443e-09
4.21352e-10
9.62362e-11
2.101e-11
4.38129e-12
8.71986e-13
1.65478e-13
2.99109e-14
5.1434e-15
8.40254e-16
1.30211e-16
1.9108e-17
2.65025e-18
3.46683e-19
4.26689e-20
4.92785e-21
5.32424e-22
5.36325e-23
5.01748e-24
4.34008e-25
3.45268e-26
2.5107e-27
1.65693e-28
9.83996e-30
5.20491e-31
2.42148e-32
9.75129e-34
3.32895e-35
9.36313e-37
2.08132e-38
3.42758e-40
3.71633e-42
1.98843e-44
1
1
1
1
1
1
1
1
1
1
1
1
1
1
1
1
1
1
1
1
1
1
1
1
1
1
1
1
1
1
1
1
1
1
1
1
0.999999
0.999997
0.999989
0.999954
0.999815
0.99927
0.997163
0.989181
0.959594
0.852772
0.615006
0.406488
0.251514
0.146333
0.0803227
0.0417164
0.0205501
0.00962157
0.00428885
0.00182266
0.000739338
0.000286525
0.00010617
3.76387e-05
1.27723e-05
4.15009e-06
1.29154e-06
3.85009e-07
1.09941e-07
3.00698e-08
7.87601e-09
1.97497e-09
4.7394e-10
1.08788e-10
2.38708e-11
5.00352e-12
1.00102e-12
1.90967e-13
3.47011e-14
5.99882e-15
9.85195e-16
1.53475e-16
2.26387e-17
3.15585e-18
4.14841e-19
5.12955e-20
5.94994e-21
6.45401e-22
6.52383e-23
6.1206e-24
5.30574e-25
4.23291e-26
3.08974e-27
2.04838e-28
1.22283e-29
6.50584e-31
3.04588e-32
1.23491e-33
4.24625e-35
1.20355e-36
2.69851e-38
4.48547e-40
4.91126e-42
2.65475e-44
1
1
1
1
1
1
1
1
1
1
1
1
1
1
1
1
1
1
1
1
1
1
1
1
1
1
1
1
1
1
1
1
1
1
1
1
0.999999
0.999997
0.999989
0.999956
0.999821
0.999289
0.997231
0.989427
0.960513
0.856227
0.620811
0.412451
0.256714
0.150272
0.0829829
0.0433478
0.0214716
0.0101061
0.00452782
0.00193383
0.000788319
0.00030703
0.000114343
4.07451e-05
1.38996e-05
4.54098e-06
1.42113e-06
4.261e-07
1.22404e-07
3.36864e-08
8.8799e-09
2.24147e-09
5.41579e-10
1.25193e-10
2.76715e-11
5.84396e-12
1.17828e-12
2.2659e-13
4.15165e-14
7.2386e-15
1.19935e-15
1.88551e-16
2.80771e-17
3.95255e-18
5.24888e-19
6.55947e-20
7.69313e-21
8.44189e-22
8.63728e-23
8.20743e-24
7.21053e-25
5.82222e-26
4.29524e-27
2.87562e-28
1.73285e-29
9.30524e-31
4.39764e-32
1.80032e-33
6.2528e-35
1.79075e-36
4.05838e-38
6.82057e-40
7.55223e-42
4.12884e-44
1
1
1
1
1
1
1
1
1
1
1
1
1
1
1
1
1
1
1
1
1
1
1
1
1
1
1
1
1
1
1
1
1
1
1
1
0.999999
0.999998
0.99999
0.999957
0.999827
0.999312
0.997308
0.989681
0.961347
0.85899
0.624572
0.415674
0.259413
0.152372
0.0844799
0.0443256
0.0220601
0.0104348
0.00469918
0.00201767
0.000826971
0.000323874
0.000121301
4.3475e-05
1.49186e-05
4.90343e-06
1.54407e-06
4.65906e-07
1.34712e-07
3.73221e-08
9.906e-09
2.51817e-09
6.12859e-10
1.42729e-10
3.17892e-11
6.76637e-12
1.37524e-12
2.66648e-13
4.92672e-14
8.66376e-15
1.44804e-15
2.29673e-16
3.45092e-17
4.90244e-18
6.57049e-19
8.28768e-20
9.81137e-21
1.08681e-21
1.12251e-22
1.07678e-23
9.54982e-25
7.78931e-26
5.80731e-27
3.92926e-28
2.39224e-29
1.29715e-30
6.18534e-32
2.55255e-33
8.92806e-35
2.57259e-36
5.86099e-38
9.89471e-40
1.09993e-41
6.03454e-44
1
1
1
1
1
1
1
1
1
1
1
1
1
1
1
1
1
1
1
1
1
1
1
1
1
1
1
1
1
1
1
1
1
1
1
1
0.999999
0.999998
0.99999
0.999959
0.999834
0.999346
0.997454
0.990249
0.963374
0.865894
0.633472
0.422283
0.264117
0.155523
0.0864753
0.0455195
0.0227344
0.0107945
0.00488064
0.00210442
0.000866346
0.000340868
0.000128284
4.62109e-05
1.59413e-05
5.26846e-06
1.66855e-06
5.06475e-07
1.47353e-07
4.10884e-08
1.0979e-08
2.81044e-09
6.88954e-10
1.61659e-10
3.62867e-11
7.78619e-12
1.59578e-12
3.12085e-13
5.81776e-14
1.03248e-14
1.74197e-15
2.78969e-16
4.23309e-17
6.0742e-18
8.22413e-19
1.04805e-19
1.2536e-20
1.403e-21
1.46401e-22
1.41868e-23
1.27088e-24
1.04698e-25
7.88452e-27
5.38943e-28
3.31584e-29
1.81768e-30
8.76743e-32
3.66251e-33
1.29792e-34
3.79337e-36
8.77705e-38
1.50664e-39
1.70462e-41
9.52572e-44
1
1
1
1
1
1
1
1
1
1
1
1
1
1
1
1
1
1
1
1
1
1
1
1
1
1
1
1
1
1
1
1
1
1
1
1
0.999999
0.999998
0.99999
0.999959
0.999836
0.999351
0.997488
0.990472
0.964567
0.871153
0.642241
0.429699
0.269775
0.159438
0.0889777
0.0470123
0.023571
0.0112367
0.00510191
0.00220943
0.000913717
0.000361216
0.000136619
4.9469e-05
1.71581e-05
5.70282e-06
1.81684e-06
5.54906e-07
1.62488e-07
4.56137e-08
1.22737e-08
3.16481e-09
7.81721e-10
1.84877e-10
4.18399e-11
9.05468e-12
1.87231e-12
3.69574e-13
6.95626e-14
1.24703e-14
2.12621e-15
3.44268e-16
5.28438e-17
7.67455e-18
1.05226e-18
1.35874e-19
1.64774e-20
1.87073e-21
1.98129e-22
1.94946e-23
1.77359e-24
1.48376e-25
1.1342e-26
7.86391e-28
4.90284e-29
2.7202e-30
1.32603e-31
5.58881e-33
1.99434e-34
5.85621e-36
1.35843e-37
2.34042e-39
2.66004e-41
1.49474e-43
1
1
1
1
1
1
1
1
1
1
1
1
1
1
1
1
1
1
1
1
1
1
1
1
1
1
1
1
1
1
1
1
1
1
1
1
0.999999
0.999998
0.99999
0.99996
0.999839
0.999365
0.997548
0.990713
0.965502
0.874645
0.648357
0.435553
0.274727
0.163138
0.0914713
0.0485541
0.0244561
0.0117123
0.00534249
0.00232447
0.00096588
0.000383696
0.000145843
5.30784e-05
1.85064e-05
6.1841e-06
1.98111e-06
6.08543e-07
1.79248e-07
5.0626e-08
1.37084e-08
3.55783e-09
8.8472e-10
2.10692e-10
4.80243e-11
1.04699e-11
2.18142e-12
4.33955e-13
8.23366e-14
1.48818e-14
2.55882e-15
4.17901e-16
6.47158e-17
9.48447e-18
1.31264e-18
1.71147e-19
2.0966e-20
2.40596e-21
2.57774e-22
2.5689e-23
2.37133e-24
2.01789e-25
1.57299e-26
1.11463e-27
7.11589e-29
4.04954e-30
2.02779e-31
8.79048e-33
3.22992e-34
9.77479e-36
2.3374e-37
4.13183e-39
4.79971e-41
2.74708e-43
1
1
1
1
1
1
1
1
1
1
1
1
1
1
1
1
1
1
1
1
1
1
1
1
1
1
1
1
1
1
1
1
1
1
1
1
0.999999
0.999998
0.999991
0.999963
0.999851
0.999412
0.997727
0.991355
0.967737
0.882339
0.660352
0.444615
0.281301
0.167619
0.0943434
0.0502861
0.0254404
0.0122406
0.00561088
0.00245385
0.00102515
0.000409546
0.000156589
5.73409e-05
2.0121e-05
6.76849e-06
2.18333e-06
6.7547e-07
2.00437e-07
5.70446e-08
1.55686e-08
4.07356e-09
1.02148e-09
2.45364e-10
5.64248e-11
1.24138e-11
2.61072e-12
5.2436e-13
1.00471e-13
1.83428e-14
3.18638e-15
5.25842e-16
8.22953e-17
1.21897e-17
1.70504e-18
2.24645e-19
2.7799e-20
3.22028e-21
3.47883e-22
3.48921e-23
3.23248e-24
2.74982e-25
2.14239e-26
1.52102e-27
9.74954e-29
5.58113e-30
2.81595e-31
1.23183e-32
4.57362e-34
1.40036e-35
3.39223e-37
6.0899e-39
7.19671e-41
4.19534e-43
1
1
1
1
1
1
1
1
1
1
1
1
1
1
1
1
1
1
1
1
1
1
1
1
1
1
1
1
1
1
1
1
1
1
1
1
1
0.999998
0.999991
0.999965
0.999859
0.999446
0.997862
0.991901
0.969874
0.890288
0.674158
0.455415
0.289202
0.172972
0.0977331
0.0523054
0.0265758
0.0128447
0.00591557
0.00259979
0.00109166
0.00043842
0.000168549
6.20729e-05
2.19109e-05
7.41632e-06
2.40779e-06
7.49952e-07
2.24112e-07
6.42536e-08
1.76714e-08
4.661e-09
1.1786e-09
2.85583e-10
6.62716e-11
1.47181e-11
3.12572e-12
6.34183e-13
1.22794e-13
2.26624e-14
3.98108e-15
6.64643e-16
1.05273e-16
1.57888e-17
2.23746e-18
2.98886e-19
3.75373e-20
4.41953e-21
4.86255e-22
4.98183e-23
4.73366e-24
4.15019e-25
3.32687e-26
2.41677e-27
1.57825e-28
9.17449e-30
4.68906e-31
2.07409e-32
7.77632e-34
2.40195e-35
5.86558e-37
1.0613e-38
1.26404e-40
7.42742e-43
1
1
1
1
1
1
1
1
1
1
1
1
1
1
1
1
1
1
1
1
1
1
1
1
1
1
1
1
1
1
1
1
1
1
1
1
1
0.999998
0.999992
0.999966
0.999862
0.999458
0.997913
0.992127
0.97089
0.894571
0.683463
0.464385
0.296591
0.178333
0.101257
0.0544442
0.027789
0.013493
0.00624351
0.00275737
0.00116374
0.000469862
0.000181643
6.7284e-05
2.38944e-05
8.13883e-06
2.65978e-06
8.34137e-07
2.51058e-07
7.25189e-08
2.01009e-08
5.3453e-09
1.36325e-09
3.333e-10
7.80754e-11
1.75113e-11
3.75758e-12
7.70682e-13
1.50923e-13
2.81849e-14
5.01239e-15
8.47516e-16
1.36e-16
2.06693e-17
2.96824e-18
4.01708e-19
5.10806e-20
6.08191e-21
6.75381e-22
6.9636e-23
6.63299e-24
5.80813e-25
4.66243e-26
3.41479e-27
2.25795e-28
1.33251e-29
6.92512e-31
3.11779e-32
1.19063e-33
3.74871e-35
9.3346e-37
1.72212e-38
2.09072e-40
1.2518e-42
1
1
1
1
1
1
1
1
1
1
1
1
1
1
1
1
1
1
1
1
1
1
1
1
1
1
1
1
1
1
1
1
1
1
1
1
1
0.999998
0.999992
0.999966
0.999862
0.999459
0.99792
0.992169
0.971118
0.895716
0.687066
0.469435
0.301699
0.182595
0.104358
0.0564749
0.0290092
0.014174
0.00659954
0.00293273
0.00124547
0.000506018
0.000196863
7.3391e-05
2.62337e-05
8.99516e-06
2.9596e-06
9.3459e-07
2.83281e-07
8.24174e-08
2.30131e-08
6.16589e-09
1.58468e-09
3.9051e-10
9.22229e-11
2.08587e-11
4.51493e-12
9.34448e-13
1.84741e-13
3.4848e-14
6.26372e-15
1.07122e-15
1.74014e-16
2.67987e-17
3.90404e-18
5.36669e-19
6.94201e-20
8.42362e-21
9.5547e-22
1.00895e-22
9.87118e-24
8.89528e-25
7.3244e-26
5.4642e-27
3.66571e-28
2.1894e-29
1.14953e-30
5.22102e-32
2.00965e-33
6.38782e-35
1.60829e-36
3.00491e-38
3.70034e-40
2.25052e-42
1
1
1
1
1
1
1
1
1
1
1
1
1
1
1
1
1
1
1
1
1
1
1
1
1
1
1
1
1
1
1
1
1
1
1
1
1
0.999998
0.999992
0.999966
0.999864
0.999467
0.99795
0.99228
0.971517
0.897098
0.690091
0.47311
0.305525
0.185986
0.106977
0.05828
0.0301412
0.0148293
0.0069533
0.0031121
0.00133133
0.00054496
0.000213645
8.02773e-05
2.89285e-05
1.00021e-05
3.31919e-06
1.0574e-06
3.23409e-07
9.49652e-08
2.67684e-08
7.24141e-09
1.8794e-09
4.67754e-10
1.11577e-10
2.54915e-11
5.57371e-12
1.16527e-12
2.32704e-13
4.43388e-14
8.05053e-15
1.391e-15
2.28365e-16
3.55627e-17
5.2434e-18
7.3034e-19
9.58164e-20
1.18021e-20
1.35991e-21
1.45989e-22
1.45339e-23
1.33464e-24
1.12315e-25
8.59636e-27
5.93151e-28
3.65057e-29
1.97787e-30
9.2787e-32
3.68791e-33
1.20472e-34
3.10423e-36
5.91217e-38
7.39383e-40
4.55141e-42
1
1
1
1
1
1
1
1
1
1
1
1
1
1
1
1
1
1
1
1
1
1
1
1
1
1
1
1
1
1
1
1
1
1
1
1
1
0.999998
0.999992
0.999967
0.999869
0.999488
0.998027
0.992546
0.972398
0.900024
0.695561
0.477567
0.309124
0.1888
0.109059
0.0597166
0.031061
0.0153765
0.00725716
0.00327041
0.00140905
0.000581059
0.000229554
8.6946e-05
3.15925e-05
1.10178e-05
3.68922e-06
1.18633e-06
3.66397e-07
1.08688e-07
3.09629e-08
8.46915e-09
2.22345e-09
5.60022e-10
1.35245e-10
3.12939e-11
6.9318e-12
1.46835e-12
2.97086e-13
5.73293e-14
1.05342e-14
1.83985e-15
3.04833e-16
4.78064e-17
7.07899e-18
9.89296e-19
1.30403e-19
1.6157e-20
1.87464e-21
2.02841e-22
2.03727e-23
1.88919e-24
1.60741e-25
1.24567e-26
8.71575e-28
5.4478e-29
3.00233e-30
1.43496e-31
5.82151e-33
1.94696e-34
5.14807e-36
1.00804e-37
1.29807e-39
8.23751e-42
1
1
1
1
1
1
1
1
1
1
1
1
1
1
1
1
1
1
1
1
1
1
1
1
1
1
1
1
1
1
1
1
1
1
1
1
1
0.999998
0.999993
0.999971
0.999884
0.999543
0.998224
0.993207
0.97453
0.906734
0.707443
0.486075
0.315036
0.192805
0.111684
0.0613669
0.0320503
0.0159399
0.00756161
0.0034265
0.00148506
0.000616258
0.000245079
9.34772e-05
3.42161e-05
1.20252e-05
4.05933e-06
1.31652e-06
4.10273e-07
1.22861e-07
3.53531e-08
9.7733e-09
2.59505e-09
6.6159e-10
1.61871e-10
3.79881e-11
8.54542e-12
1.84116e-12
3.79611e-13
7.48244e-14
1.40812e-14
2.52512e-15
4.30595e-16
6.9671e-17
1.06702e-17
1.54036e-18
2.08765e-19
2.64852e-20
3.13444e-21
3.44637e-22
3.50412e-23
3.27726e-24
2.80269e-25
2.17705e-26
1.52445e-27
9.54051e-29
5.28748e-30
2.55107e-31
1.04735e-32
3.54668e-34
9.49359e-36
1.88327e-37
2.46129e-39
1.58881e-41
1
1
1
1
1
1
1
1
1
1
1
1
1
1
1
1
1
1
1
1
1
1
1
1
1
1
1
1
1
1
1
1
1
1
1
1
1
0.999999
0.999994
0.999975
0.9999
0.999607
0.998475
0.994156
0.977968
0.918785
0.732375
0.504187
0.327244
0.200622
0.116464
0.0641706
0.0336274
0.0167898
0.00800002
0.00364281
0.00158713
0.000662327
0.000264974
0.000101701
3.74712e-05
1.32594e-05
4.50773e-06
1.47264e-06
4.62376e-07
1.39527e-07
4.04615e-08
1.12735e-08
3.01699e-09
7.75178e-10
1.91121e-10
4.51863e-11
1.02367e-11
2.22006e-12
4.6044e-13
9.12113e-14
1.72421e-14
3.1114e-15
5.35151e-16
8.75131e-17
1.3579e-17
1.99457e-18
2.76591e-19
3.60815e-20
4.40999e-21
5.02719e-22
5.31759e-23
5.18837e-24
4.63724e-25
3.76564e-26
2.75101e-27
1.78627e-28
1.01481e-29
4.96016e-31
2.04372e-32
6.92625e-34
1.86521e-35
3.75143e-37
4.98494e-39
3.27475e-41
1
1
1
1
1
1
1
1
1
1
1
1
1
1
1
1
1
1
1
1
1
1
1
1
1
1
1
1
1
1
1
1
1
1
1
1
1
0.999999
0.999994
0.999976
0.999907
0.999636
0.998608
0.994742
0.980411
0.928275
0.756442
0.524143
0.341432
0.209919
0.122184
0.0675112
0.0354915
0.0177869
0.00851168
0.0038948
0.00170623
0.00071634
0.000288479
0.000111517
4.14058e-05
1.47733e-05
5.06697e-06
1.67101e-06
5.29939e-07
1.61624e-07
4.74004e-08
1.33652e-08
3.62209e-09
9.43089e-10
2.35791e-10
5.65714e-11
1.30141e-11
2.86791e-12
6.04731e-13
1.21853e-13
2.34238e-14
4.28493e-15
7.4471e-16
1.22778e-16
1.9158e-17
2.82196e-18
3.91422e-19
5.12097e-20
6.2926e-21
7.23079e-22
7.73077e-23
7.64543e-24
6.94659e-25
5.75249e-26
4.30052e-27
2.86958e-28
1.6858e-29
8.57905e-31
3.7056e-32
1.31941e-33
3.70913e-35
7.70496e-37
1.05215e-38
7.08411e-41
1
1
1
1
1
1
1
1
1
1
1
1
1
1
1
1
1
1
1
1
1
1
1
1
1
1
1
1
1
1
1
1
1
1
1
1
1
0.999999
0.999994
0.999977
0.999909
0.999645
0.99865
0.994958
0.981484
0.933098
0.771513
0.54045
0.355248
0.220088
0.128918
0.0716146
0.0378273
0.0190412
0.00915129
0.00420584
0.00185088
0.00078081
0.000316049
0.000122841
4.58756e-05
1.647e-05
5.68643e-06
1.88862e-06
6.03498e-07
1.85552e-07
5.48907e-08
1.56213e-08
4.27583e-09
1.12529e-09
2.84617e-10
6.91477e-11
1.61263e-11
3.60743e-12
7.73372e-13
1.58734e-13
3.11541e-14
5.83815e-15
1.04296e-15
1.77274e-16
2.8593e-17
4.36361e-18
6.27853e-19
8.46439e-20
1.06594e-20
1.249e-21
1.35545e-22
1.35501e-23
1.23982e-24
1.03051e-25
7.71293e-27
5.17596e-28
3.08069e-29
1.59968e-30
7.08795e-32
2.59739e-33
7.52804e-35
1.614e-36
2.27306e-38
1.57669e-40
1
1
1
1
1
1
1
1
1
1
1
1
1
1
1
1
1
1
1
1
1
1
1
1
1
1
1
1
1
1
1
1
1
1
1
1
1
0.999999
0.999995
0.999978
0.999912
0.999659
0.9987
0.995131
0.982091
0.935295
0.778226
0.549066
0.363814
0.227323
0.134291
0.0752127
0.0400397
0.0203065
0.00983055
0.00455032
0.00201668
0.000856795
0.000349291
0.000136748
5.1448e-05
1.86103e-05
6.47519e-06
2.16763e-06
6.98275e-07
2.16473e-07
6.45798e-08
1.8537e-08
5.11827e-09
1.3589e-09
3.46753e-10
8.49897e-11
1.99945e-11
4.51109e-12
9.75104e-13
2.01711e-13
3.98805e-14
7.52523e-15
1.35304e-15
2.3154e-16
3.76895e-17
5.8259e-18
8.53228e-19
1.17936e-19
1.53199e-20
1.8612e-21
2.10344e-22
2.19783e-23
2.10806e-24
1.84053e-25
1.44824e-26
1.01213e-27
6.1977e-29
3.27295e-30
1.4599e-31
5.38703e-33
1.58657e-34
3.47982e-36
5.03447e-38
3.59491e-40
1
1
1
1
1
1
1
1
1
1
1
1
1
1
1
1
1
1
1
1
1
1
1
1
1
1
1
1
1
1
1
1
1
1
1
1
1
0.999999
0.999995
0.99998
0.999921
0.999693
0.998821
0.995531
0.98337
0.939386
0.789145
0.559502
0.372522
0.234121
0.139229
0.078541
0.0421278
0.021532
0.0105067
0.00490269
0.00219078
0.000938605
0.000385944
0.000152437
5.78738e-05
2.11321e-05
7.42443e-06
2.5106e-06
8.17295e-07
2.56157e-07
7.72963e-08
2.24536e-08
6.27756e-09
1.68861e-09
4.36827e-10
1.08612e-10
2.59377e-11
5.94421e-12
1.30593e-12
2.74715e-13
5.52511e-14
1.06056e-14
1.93883e-15
3.367e-16
5.53801e-17
8.60343e-18
1.25958e-18
1.74516e-19
2.27837e-20
2.79072e-21
3.19085e-22
3.38542e-23
3.31005e-24
2.95843e-25
2.394e-26
1.73333e-27
1.10672e-28
6.12383e-30
2.87318e-31
1.10998e-32
3.38977e-34
7.68329e-36
1.14782e-37
8.46684e-40
1
1
1
1
1
1
1
1
1
1
1
1
1
1
1
1
1
1
1
1
1
1
1
1
1
1
1
1
1
1
1
1
1
1
1
1
1
0.999999
0.999995
0.999981
0.999926
0.99971
0.998891
0.995817
0.98447
0.943406
0.801125
0.571051
0.381773
0.241008
0.144046
0.081712
0.0440953
0.0226848
0.011146
0.005239
0.00235899
0.00101874
0.000422374
0.000168263
6.44525e-05
2.37515e-05
8.42435e-06