/*--------------------------------*- C++ -*----------------------------------*\
| =========                 |                                                 |
| \\      /  F ield         | OpenFOAM: The Open Source CFD Toolbox           |
|  \\    /   O peration     | Version:  4.1                                   |
|   \\  /    A nd           | Web:      www.OpenFOAM.org                      |
|    \\/     M anipulation  |                                                 |
\*---------------------------------------------------------------------------*/
FoamFile
{
    version     2.0;
    format      ascii;
    class       volVectorField;
    location    "0.1";
    object      U_0;
}
// * * * * * * * * * * * * * * * * * * * * * * * * * * * * * * * * * * * * * //

dimensions      [0 1 -1 0 0 0 0];

internalField   nonuniform List<vector> 
43750
(
(10.0888 0.174556 0)
(10.1399 0.146143 0)
(10.0422 0.0871191 0)
(9.97599 0.0364605 0)
(9.95824 0.00318245 0)
(9.96076 -0.00064823 0)
(9.96476 0.011567 0)
(9.96597 0.0181339 0)
(9.96166 0.0130416 0)
(9.94732 0.00339962 0)
(9.91998 -0.00283491 0)
(9.88346 -0.00233682 0)
(9.8485 0.00320608 0)
(9.82446 0.01015 0)
(9.81107 0.0164419 0)
(9.79765 0.0217346 0)
(9.77162 0.0248835 0)
(9.7297 0.0234435 0)
(9.68072 0.0163074 0)
(9.63634 0.00647951 0)
(9.60001 0.000265549 0)
(9.56575 0.00136154 0)
(9.52632 0.00677981 0)
(9.48134 0.0104241 0)
(9.43664 0.0104232 0)
(9.39667 0.0120943 0)
(9.35905 0.0219336 0)
(9.3169 0.0388902 0)
(9.26617 0.0533511 0)
(9.20982 0.0556758 0)
(9.15424 0.0460639 0)
(9.102 0.035557 0)
(9.04873 0.0363815 0)
(8.98707 0.0507608 0)
(8.91391 0.0688277 0)
(8.83389 0.0772477 0)
(8.75567 0.0705378 0)
(8.6846 0.0554277 0)
(8.61812 0.0450058 0)
(8.54677 0.0486311 0)
(8.45966 0.0658246 0)
(8.35085 0.0877117 0)
(8.22236 0.103752 0)
(8.08249 0.108175 0)
(7.94095 0.101874 0)
(7.80471 0.0898912 0)
(7.67644 0.0775767 0)
(7.55528 0.0681942 0)
(7.43867 0.0626049 0)
(7.32391 0.0601544 0)
(7.20899 0.0597099 0)
(7.09271 0.0603051 0)
(6.97452 0.0613402 0)
(6.85421 0.0625251 0)
(6.7317 0.0637503 0)
(6.60699 0.0649862 0)
(6.48006 0.0662276 0)
(6.35089 0.0674735 0)
(6.21947 0.0687219 0)
(6.08576 0.0699695 0)
(5.94977 0.0712126 0)
(5.81147 0.0724474 0)
(5.67085 0.0736686 0)
(5.52793 0.0748661 0)
(5.3827 0.0760277 0)
(5.23519 0.0771414 0)
(5.08541 0.078196 0)
(4.9334 0.07918 0)
(4.77921 0.0800812 0)
(4.62292 0.0808866 0)
(4.46461 0.0815819 0)
(4.30437 0.0821516 0)
(4.14234 0.0825788 0)
(3.97867 0.0828451 0)
(3.81352 0.0829316 0)
(3.64711 0.0828182 0)
(3.47965 0.0824846 0)
(3.31141 0.0819102 0)
(3.14268 0.0810755 0)
(2.97377 0.079963 0)
(2.80504 0.0785581 0)
(2.63686 0.0768494 0)
(2.46961 0.0748304 0)
(2.30372 0.0725007 0)
(2.13959 0.0698681 0)
(1.97765 0.0669497 0)
(1.8183 0.063773 0)
(1.66192 0.0603763 0)
(1.50884 0.0568091 0)
(1.35935 0.0531313 0)
(1.21366 0.0494131 0)
(1.07189 0.0457326 0)
(0.934075 0.0421741 0)
(0.800125 0.038824 0)
(0.669846 0.0357698 0)
(0.542925 0.0330895 0)
(0.418947 0.0308579 0)
(0.297359 0.0291103 0)
(0.177656 0.0278206 0)
(0.0589765 0.0273315 0)
(9.997 0.0098286 0)
(10.0144 0.0498406 0)
(10.052 0.0486344 0)
(10.0786 0.0308638 0)
(10.0669 0.0107745 0)
(10.0343 -0.00867323 0)
(10.0114 -0.0196494 0)
(10.0072 -0.0157711 0)
(10.0082 0.00492916 0)
(9.99955 0.0370707 0)
(9.97868 0.0656826 0)
(9.95126 0.073872 0)
(9.92244 0.0565753 0)
(9.89625 0.0275261 0)
(9.87885 0.00966626 0)
(9.8766 0.0165885 0)
(9.88851 0.0420882 0)
(9.90155 0.0671596 0)
(9.89701 0.0775271 0)
(9.86568 0.0745668 0)
(9.81619 0.0699068 0)
(9.76637 0.0716195 0)
(9.72694 0.0773932 0)
(9.6941 0.0797063 0)
(9.65735 0.0746658 0)
(9.61295 0.0651922 0)
(9.56823 0.0569841 0)
(9.53336 0.0531616 0)
(9.50973 0.0532839 0)
(9.48722 0.056075 0)
(9.45338 0.0613737 0)
(9.40526 0.0690756 0)
(9.35221 0.0773464 0)
(9.30705 0.0829882 0)
(9.27425 0.0838597 0)
(9.24551 0.0810646 0)
(9.20658 0.0787463 0)
(9.149 0.0814652 0)
(9.07695 0.0914776 0)
(9.0042 0.10797 0)
(8.9444 0.127957 0)
(8.90264 0.147495 0)
(8.87382 0.162895 0)
(8.84679 0.17203 0)
(8.81044 0.17505 0)
(8.75786 0.173933 0)
(8.68751 0.171251 0)
(8.60179 0.169044 0)
(8.50479 0.168316 0)
(8.4004 0.169159 0)
(8.29146 0.171178 0)
(8.17961 0.173889 0)
(8.06565 0.176923 0)
(7.94989 0.180076 0)
(7.83238 0.183265 0)
(7.71312 0.186472 0)
(7.59205 0.189704 0)
(7.46912 0.192974 0)
(7.34428 0.196287 0)
(7.21748 0.199647 0)
(7.08866 0.203053 0)
(6.95776 0.206501 0)
(6.82472 0.209987 0)
(6.68946 0.213499 0)
(6.55194 0.217027 0)
(6.41208 0.220559 0)
(6.26982 0.224082 0)
(6.12509 0.227581 0)
(5.97785 0.231042 0)
(5.82801 0.234444 0)
(5.67553 0.237767 0)
(5.52035 0.240986 0)
(5.36241 0.244073 0)
(5.20166 0.246999 0)
(5.03805 0.24973 0)
(4.87156 0.252231 0)
(4.70213 0.254463 0)
(4.52976 0.256386 0)
(4.35443 0.257961 0)
(4.17613 0.259146 0)
(3.99486 0.259902 0)
(3.81066 0.260193 0)
(3.62356 0.259989 0)
(3.4336 0.259263 0)
(3.24086 0.258001 0)
(3.04541 0.256199 0)
(2.84737 0.253867 0)
(2.64684 0.251035 0)
(2.44396 0.247748 0)
(2.23889 0.244072 0)
(2.03178 0.240095 0)
(1.82282 0.235921 0)
(1.61219 0.231674 0)
(1.40009 0.22749 0)
(1.18673 0.223514 0)
(0.972321 0.21989 0)
(0.757055 0.216774 0)
(0.541168 0.214269 0)
(0.324835 0.212584 0)
(0.107875 0.211379 0)
(10.1652 0.129964 0)
(10.225 0.125618 0)
(10.1744 0.0630619 0)
(10.1346 0.0425081 0)
(10.0891 0.0582124 0)
(10.0441 0.0615719 0)
(10.0112 0.0405485 0)
(9.98519 0.0209481 0)
(9.95883 0.0216312 0)
(9.93686 0.0351996 0)
(9.92752 0.0473256 0)
(9.92683 0.054063 0)
(9.91757 0.0571989 0)
(9.88639 0.0532637 0)
(9.83909 0.036815 0)
(9.79561 0.0134576 0)
(9.77145 0.00153275 0)
(9.76625 0.0159051 0)
(9.76772 0.0516071 0)
(9.76305 0.0862978 0)
(9.74737 0.0997245 0)
(9.72402 0.0916614 0)
(9.69827 0.0796192 0)
(9.67112 0.0795157 0)
(9.63805 0.0910407 0)
(9.59311 0.10173 0)
(9.53438 0.102938 0)
(9.46614 0.0990363 0)
(9.39678 0.100871 0)
(9.33451 0.113002 0)
(9.2838 0.128953 0)
(9.24422 0.13814 0)
(9.21128 0.136538 0)
(9.17793 0.130685 0)
(9.1369 0.131742 0)
(9.08342 0.145605 0)
(9.01744 0.167705 0)
(8.94411 0.186402 0)
(8.8716 0.192125 0)
(8.80721 0.184367 0)
(8.75414 0.170999 0)
(8.71072 0.161855 0)
(8.67145 0.162826 0)
(8.62923 0.174282 0)
(8.57774 0.192879 0)
(8.51329 0.214139 0)
(8.43541 0.234283 0)
(8.346 0.251084 0)
(8.24801 0.263913 0)
(8.14424 0.273288 0)
(8.03679 0.280241 0)
(7.92694 0.285792 0)
(7.81532 0.290686 0)
(7.70217 0.295361 0)
(7.58754 0.300027 0)
(7.47139 0.304768 0)
(7.35369 0.30961 0)
(7.23438 0.314556 0)
(7.11344 0.319606 0)
(6.99081 0.324758 0)
(6.86647 0.330011 0)
(6.74039 0.33536 0)
(6.61251 0.340802 0)
(6.48282 0.346333 0)
(6.35127 0.351949 0)
(6.21783 0.357642 0)
(6.08245 0.363404 0)
(5.94509 0.369224 0)
(5.80572 0.375087 0)
(5.66428 0.380977 0)
(5.52072 0.386876 0)
(5.375 0.392762 0)
(5.22706 0.398612 0)
(5.07684 0.404398 0)
(4.92427 0.410091 0)
(4.76927 0.415658 0)
(4.61178 0.421065 0)
(4.4517 0.426274 0)
(4.28894 0.431246 0)
(4.12339 0.435943 0)
(3.95496 0.440326 0)
(3.78351 0.444356 0)
(3.60894 0.447999 0)
(3.43112 0.451223 0)
(3.24992 0.454003 0)
(3.06523 0.456322 0)
(2.87693 0.458173 0)
(2.68493 0.45956 0)
(2.48916 0.460499 0)
(2.28958 0.461018 0)
(2.08618 0.461158 0)
(1.87902 0.460972 0)
(1.6682 0.460524 0)
(1.45389 0.459884 0)
(1.23634 0.459127 0)
(1.01585 0.458328 0)
(0.792842 0.457567 0)
(0.567744 0.456891 0)
(0.341187 0.456595 0)
(0.113354 0.455571 0)
(9.9837 0.229022 0)
(10.0157 0.139247 0)
(10.0367 0.0800254 0)
(10.026 0.083767 0)
(10.0175 0.0846881 0)
(10.022 0.0591185 0)
(10.0275 0.033527 0)
(10.0242 0.0337032 0)
(10.0122 0.051789 0)
(9.99722 0.0662815 0)
(9.9849 0.0730444 0)
(9.97639 0.0823249 0)
(9.96816 0.0968933 0)
(9.95391 0.105795 0)
(9.92805 0.0995399 0)
(9.88904 0.0830731 0)
(9.84125 0.0703913 0)
(9.79305 0.0705038 0)
(9.75171 0.0814543 0)
(9.71888 0.0959543 0)
(9.69064 0.109116 0)
(9.66199 0.120101 0)
(9.63105 0.129869 0)
(9.5988 0.140062 0)
(9.56494 0.152672 0)
(9.52582 0.168 0)
(9.47774 0.182294 0)
(9.42204 0.188941 0)
(9.36529 0.183565 0)
(9.31397 0.168279 0)
(9.26936 0.150911 0)
(9.22745 0.140335 0)
(9.18339 0.141897 0)
(9.13566 0.155629 0)
(9.08635 0.17716 0)
(9.03816 0.199862 0)
(8.99151 0.217313 0)
(8.94404 0.225807 0)
(8.89241 0.225972 0)
(8.83481 0.222403 0)
(8.77206 0.221242 0)
(8.70627 0.227229 0)
(8.63863 0.241974 0)
(8.56826 0.263942 0)
(8.49308 0.289655 0)
(8.41132 0.315298 0)
(8.32245 0.337988 0)
(8.22709 0.356347 0)
(8.12646 0.370389 0)
(8.02181 0.381001 0)
(7.9141 0.389332 0)
(7.80398 0.396385 0)
(7.6918 0.40285 0)
(7.57775 0.409124 0)
(7.46194 0.4154 0)
(7.34439 0.421759 0)
(7.22513 0.428229 0)
(7.10414 0.434818 0)
(6.98142 0.441527 0)
(6.85693 0.448356 0)
(6.73066 0.455302 0)
(6.60258 0.462363 0)
(6.47267 0.469534 0)
(6.34092 0.476812 0)
(6.20729 0.484188 0)
(6.07176 0.491654 0)
(5.93433 0.499199 0)
(5.79497 0.50681 0)
(5.65366 0.514474 0)
(5.5104 0.522174 0)
(5.36516 0.529894 0)
(5.21793 0.537615 0)
(5.06869 0.545319 0)
(4.91742 0.552984 0)
(4.76411 0.560587 0)
(4.60872 0.568107 0)
(4.45123 0.575517 0)
(4.2916 0.582793 0)
(4.12978 0.589908 0)
(3.96572 0.596837 0)
(3.79935 0.603553 0)
(3.63061 0.610033 0)
(3.4594 0.616252 0)
(3.28563 0.622191 0)
(3.10919 0.627829 0)
(2.92997 0.633153 0)
(2.74785 0.638149 0)
(2.56272 0.642809 0)
(2.37448 0.647128 0)
(2.18304 0.651102 0)
(1.98835 0.654729 0)
(1.79038 0.65801 0)
(1.58917 0.660942 0)
(1.38483 0.663526 0)
(1.17752 0.665758 0)
(0.967494 0.667633 0)
(0.755099 0.669147 0)
(0.540699 0.670252 0)
(0.324938 0.671208 0)
(0.107951 0.670318 0)
(9.99089 0.0512565 0)
(10.0299 0.088843 0)
(10.0221 0.102569 0)
(10.032 0.0927469 0)
(10.0595 0.0816776 0)
(10.062 0.0644553 0)
(10.031 0.0441215 0)
(9.99262 0.0384974 0)
(9.96584 0.0505368 0)
(9.94943 0.0649055 0)
(9.93494 0.0704481 0)
(9.91913 0.07255 0)
(9.90427 0.0808836 0)
(9.89009 0.0943129 0)
(9.87129 0.102704 0)
(9.84343 0.10127 0)
(9.80762 0.0980235 0)
(9.76857 0.105118 0)
(9.73045 0.124836 0)
(9.69585 0.146239 0)
(9.66668 0.155913 0)
(9.64411 0.151225 0)
(9.6271 0.143068 0)
(9.61204 0.145853 0)
(9.59422 0.164345 0)
(9.5701 0.18969 0)
(9.53805 0.208022 0)
(9.49777 0.212947 0)
(9.44952 0.209994 0)
(9.39449 0.209514 0)
(9.33539 0.216038 0)
(9.27622 0.225059 0)
(9.22073 0.229693 0)
(9.17063 0.22922 0)
(9.12461 0.230527 0)
(9.07876 0.241436 0)
(9.02807 0.262816 0)
(8.96881 0.286967 0)
(8.90064 0.303513 0)
(8.82689 0.307388 0)
(8.75246 0.302348 0)
(8.68078 0.29796 0)
(8.61196 0.303284 0)
(8.54331 0.322034 0)
(8.47106 0.351763 0)
(8.39217 0.386407 0)
(8.30535 0.419774 0)
(8.21093 0.447907 0)
(8.11023 0.469628 0)
(8.00482 0.485758 0)
(7.89603 0.49795 0)
(7.78473 0.507808 0)
(7.67141 0.516502 0)
(7.55629 0.524726 0)
(7.43943 0.532835 0)
(7.32084 0.540985 0)
(7.20049 0.54924 0)
(7.07835 0.557625 0)
(6.95439 0.56615 0)
(6.82858 0.574819 0)
(6.70087 0.583633 0)
(6.57125 0.592588 0)
(6.43969 0.601682 0)
(6.30615 0.610906 0)
(6.17062 0.620251 0)
(6.03306 0.629708 0)
(5.89346 0.639262 0)
(5.7518 0.6489 0)
(5.60807 0.658606 0)
(5.46225 0.668363 0)
(5.31434 0.678151 0)
(5.16433 0.687951 0)
(5.01222 0.697742 0)
(4.858 0.707503 0)
(4.70168 0.717211 0)
(4.54326 0.726845 0)
(4.38274 0.736381 0)
(4.22012 0.7458 0)
(4.05541 0.755079 0)
(3.88861 0.7642 0)
(3.71971 0.773144 0)
(3.5487 0.781894 0)
(3.37558 0.790438 0)
(3.20032 0.798764 0)
(3.0229 0.806862 0)
(2.84329 0.814724 0)
(2.66147 0.822342 0)
(2.47739 0.829706 0)
(2.29103 0.836805 0)
(2.10236 0.84362 0)
(1.91137 0.850124 0)
(1.71808 0.85628 0)
(1.52251 0.862038 0)
(1.32475 0.867335 0)
(1.12492 0.8721 0)
(0.923202 0.876248 0)
(0.71984 0.879708 0)
(0.515067 0.88234 0)
(0.309386 0.884404 0)
(0.102754 0.883625 0)
(9.97122 0.0403951 0)
(9.99099 0.092626 0)
(10.0037 0.0810275 0)
(10.0107 0.0409671 0)
(10.0138 0.04305 0)
(10.0169 0.075798 0)
(10.0128 0.0969364 0)
(10.0034 0.097449 0)
(9.99342 0.0929269 0)
(9.97797 0.0941973 0)
(9.94882 0.10084 0)
(9.90755 0.111107 0)
(9.86801 0.124545 0)
(9.845 0.137739 0)
(9.84042 0.14534 0)
(9.8415 0.146217 0)
(9.83274 0.145427 0)
(9.80948 0.14856 0)
(9.78017 0.155466 0)
(9.75573 0.16111 0)
(9.73771 0.162 0)
(9.71651 0.160319 0)
(9.68095 0.162095 0)
(9.62925 0.172763 0)
(9.57109 0.194117 0)
(9.51941 0.223286 0)
(9.48019 0.253428 0)
(9.4491 0.276336 0)
(9.41665 0.286108 0)
(9.37653 0.28199 0)
(9.32999 0.268717 0)
(9.28307 0.254225 0)
(9.24007 0.246369 0)
(9.19918 0.25044 0)
(9.15363 0.267814 0)
(9.0971 0.295423 0)
(9.02858 0.326316 0)
(8.95296 0.351949 0)
(8.87764 0.366054 0)
(8.80803 0.368268 0)
(8.74514 0.364798 0)
(8.68587 0.365122 0)
(8.62525 0.376889 0)
(8.55894 0.402418 0)
(8.4846 0.438527 0)
(8.40192 0.478954 0)
(8.31179 0.517472 0)
(8.21551 0.550052 0)
(8.11432 0.575438 0)
(8.00923 0.594476 0)
(7.90101 0.608971 0)
(7.79022 0.620745 0)
(7.67721 0.63116 0)
(7.56222 0.641046 0)
(7.44536 0.65083 0)
(7.32668 0.660699 0)
(7.20618 0.670722 0)
(7.08385 0.680924 0)
(6.95966 0.691311 0)
(6.83357 0.701882 0)
(6.70555 0.712635 0)
(6.57555 0.723565 0)
(6.44354 0.734666 0)
(6.30948 0.745928 0)
(6.17335 0.757339 0)
(6.03511 0.768887 0)
(5.89474 0.780557 0)
(5.7522 0.79233 0)
(5.60749 0.804189 0)
(5.46056 0.816113 0)
(5.31142 0.82808 0)
(5.16006 0.840067 0)
(5.00645 0.852049 0)
(4.8506 0.864002 0)
(4.69252 0.875899 0)
(4.5322 0.887715 0)
(4.36965 0.899424 0)
(4.20489 0.911 0)
(4.03793 0.92242 0)
(3.8688 0.933661 0)
(3.69752 0.944706 0)
(3.52412 0.955536 0)
(3.34863 0.966137 0)
(3.1711 0.9765 0)
(2.99155 0.986615 0)
(2.81003 0.996474 0)
(2.62659 1.00607 0)
(2.44127 1.01539 0)
(2.25413 1.02442 0)
(2.06522 1.03314 0)
(1.8746 1.04151 0)
(1.68236 1.04948 0)
(1.48857 1.05697 0)
(1.29333 1.0639 0)
(1.09677 1.07017 0)
(0.899033 1.07565 0)
(0.700296 1.08024 0)
(0.500696 1.08375 0)
(0.300601 1.08648 0)
(0.0998114 1.0856 0)
(10.114 -0.0277452 0)
(10.106 0.0330449 0)
(10.0731 0.0888077 0)
(10.0465 0.0960924 0)
(10.0192 0.0878623 0)
(10.0021 0.0751766 0)
(9.99531 0.0618485 0)
(9.99068 0.060028 0)
(9.98218 0.0789452 0)
(9.96976 0.112674 0)
(9.95307 0.143695 0)
(9.93071 0.155683 0)
(9.90464 0.145109 0)
(9.8807 0.122821 0)
(9.86308 0.106332 0)
(9.84938 0.108453 0)
(9.83238 0.129056 0)
(9.8066 0.156277 0)
(9.77293 0.176884 0)
(9.73722 0.186986 0)
(9.70507 0.193672 0)
(9.67769 0.206888 0)
(9.6513 0.229747 0)
(9.61994 0.255856 0)
(9.5798 0.275059 0)
(9.53234 0.281882 0)
(9.48397 0.279627 0)
(9.44169 0.277464 0)
(9.40734 0.283061 0)
(9.37536 0.296335 0)
(9.33686 0.309686 0)
(9.28683 0.31546 0)
(9.22777 0.314381 0)
(9.16655 0.316575 0)
(9.10783 0.33338 0)
(9.0505 0.367047 0)
(8.99016 0.407478 0)
(8.92441 0.438703 0)
(8.85552 0.449724 0)
(8.78861 0.441653 0)
(8.72766 0.426621 0)
(8.67259 0.420112 0)
(8.61922 0.432467 0)
(8.56157 0.46482 0)
(8.49474 0.510736 0)
(8.41667 0.560931 0)
(8.3281 0.607597 0)
(8.23127 0.646463 0)
(8.12866 0.67668 0)
(8.02215 0.699568 0)
(7.91293 0.717257 0)
(7.80159 0.731757 0)
(7.68838 0.744553 0)
(7.57339 0.756578 0)
(7.45665 0.768349 0)
(7.33813 0.780123 0)
(7.21781 0.792023 0)
(7.09566 0.804105 0)
(6.97163 0.816393 0)
(6.8457 0.828897 0)
(6.71781 0.841619 0)
(6.58793 0.854556 0)
(6.45602 0.867701 0)
(6.32203 0.881043 0)
(6.18593 0.894569 0)
(6.04769 0.908263 0)
(5.90726 0.922109 0)
(5.76462 0.936086 0)
(5.61974 0.950172 0)
(5.47259 0.964344 0)
(5.32315 0.978576 0)
(5.1714 0.992841 0)
(5.01734 1.00711 0)
(4.86094 1.02135 0)
(4.7022 1.03554 0)
(4.54112 1.04964 0)
(4.3777 1.06362 0)
(4.21196 1.07745 0)
(4.04392 1.09111 0)
(3.87359 1.10455 0)
(3.701 1.11777 0)
(3.52621 1.13072 0)
(3.34925 1.1434 0)
(3.17019 1.15579 0)
(2.98908 1.16786 0)
(2.80601 1.17962 0)
(2.62107 1.19103 0)
(2.43435 1.20209 0)
(2.24595 1.21277 0)
(2.05598 1.22304 0)
(1.86458 1.23286 0)
(1.67185 1.24217 0)
(1.47794 1.25089 0)
(1.28298 1.25893 0)
(1.0871 1.26617 0)
(0.890444 1.27249 0)
(0.693167 1.27777 0)
(0.495354 1.28179 0)
(0.297295 1.28491 0)
(0.098701 1.28381 0)
(9.9842 0.211566 0)
(9.93722 0.165108 0)
(9.99052 0.0985103 0)
(10.0351 0.0702729 0)
(10.0415 0.0732497 0)
(10.023 0.0917122 0)
(10.0028 0.106178 0)
(9.98141 0.109646 0)
(9.95489 0.11079 0)
(9.93236 0.119377 0)
(9.9262 0.136629 0)
(9.93466 0.157088 0)
(9.94073 0.172869 0)
(9.92753 0.178755 0)
(9.89312 0.177227 0)
(9.84974 0.178081 0)
(9.81031 0.189727 0)
(9.77774 0.209905 0)
(9.74672 0.226986 0)
(9.71295 0.231075 0)
(9.67875 0.223381 0)
(9.65001 0.215454 0)
(9.62938 0.220378 0)
(9.61308 0.243799 0)
(9.5941 0.280498 0)
(9.56803 0.317632 0)
(9.53567 0.342858 0)
(9.5009 0.352352 0)
(9.46635 0.352429 0)
(9.43083 0.352786 0)
(9.39003 0.357594 0)
(9.3397 0.363562 0)
(9.27914 0.366842 0)
(9.2122 0.370616 0)
(9.1453 0.384093 0)
(9.08377 0.413109 0)
(9.02931 0.452073 0)
(8.97991 0.485934 0)
(8.93171 0.500969 0)
(8.88095 0.495107 0)
(8.82521 0.479734 0)
(8.76358 0.472461 0)
(8.69597 0.486824 0)
(8.62217 0.525833 0)
(8.54145 0.582385 0)
(8.45321 0.644647 0)
(8.35763 0.7021 0)
(8.25586 0.748941 0)
(8.14955 0.784218 0)
(8.04025 0.810033 0)
(7.92897 0.82948 0)
(7.81624 0.845302 0)
(7.70219 0.859385 0)
(7.58678 0.872815 0)
(7.46989 0.886129 0)
(7.35141 0.899563 0)
(7.23122 0.913212 0)
(7.10927 0.92711 0)
(6.98548 0.941273 0)
(6.85979 0.955702 0)
(6.73215 0.970397 0)
(6.60252 0.985351 0)
(6.47084 1.00056 0)
(6.33708 1.016 0)
(6.20119 1.03166 0)
(6.06313 1.04754 0)
(5.92286 1.06359 0)
(5.78036 1.07981 0)
(5.63558 1.09617 0)
(5.4885 1.11264 0)
(5.33909 1.1292 0)
(5.18733 1.1458 0)
(5.0332 1.16243 0)
(4.87668 1.17904 0)
(4.71776 1.1956 0)
(4.55644 1.21207 0)
(4.39272 1.22842 0)
(4.2266 1.24461 0)
(4.05809 1.2606 0)
(3.88722 1.27636 0)
(3.71402 1.29185 0)
(3.53852 1.30703 0)
(3.36078 1.32189 0)
(3.18086 1.33638 0)
(2.99883 1.35048 0)
(2.81477 1.36417 0)
(2.6288 1.37742 0)
(2.44102 1.3902 0)
(2.25156 1.40248 0)
(2.06056 1.41421 0)
(1.86816 1.42536 0)
(1.67453 1.43584 0)
(1.47981 1.44559 0)
(1.28417 1.45451 0)
(1.08775 1.46249 0)
(0.89071 1.46941 0)
(0.693192 1.47516 0)
(0.495269 1.47951 0)
(0.297202 1.4829 0)
(0.0986678 1.48151 0)
(9.92238 0.0749434 0)
(9.97217 0.0241262 0)
(10.0071 0.0228329 0)
(10.0153 0.0716814 0)
(9.99813 0.112489 0)
(9.98231 0.113707 0)
(9.97522 0.102128 0)
(9.97115 0.110076 0)
(9.95818 0.13237 0)
(9.93539 0.145997 0)
(9.91477 0.14511 0)
(9.90444 0.143809 0)
(9.89802 0.153834 0)
(9.88309 0.170678 0)
(9.85534 0.183188 0)
(9.82329 0.18968 0)
(9.80005 0.199085 0)
(9.7915 0.217561 0)
(9.79205 0.239164 0)
(9.79002 0.252497 0)
(9.77593 0.254516 0)
(9.74702 0.254878 0)
(9.70658 0.2663 0)
(9.6611 0.291719 0)
(9.61757 0.321343 0)
(9.58137 0.341742 0)
(9.55401 0.347869 0)
(9.5313 0.347241 0)
(9.50463 0.352954 0)
(9.46578 0.372107 0)
(9.41211 0.400091 0)
(9.34778 0.425524 0)
(9.28038 0.440948 0)
(9.21604 0.449389 0)
(9.15705 0.460866 0)
(9.10264 0.482442 0)
(9.05118 0.511271 0)
(9.00121 0.53675 0)
(8.95124 0.549424 0)
(8.89929 0.548811 0)
(8.84291 0.544255 0)
(8.77988 0.549157 0)
(8.70894 0.573413 0)
(8.63015 0.618812 0)
(8.54452 0.679196 0)
(8.45325 0.744289 0)
(8.35728 0.804485 0)
(8.2573 0.854077 0)
(8.15385 0.891864 0)
(8.04746 0.91978 0)
(7.93859 0.940961 0)
(7.8276 0.958302 0)
(7.71474 0.973843 0)
(7.60011 0.988768 0)
(7.48378 1.00366 0)
(7.36573 1.01875 0)
(7.24592 1.03414 0)
(7.1243 1.04984 0)
(7.00084 1.06587 0)
(6.87547 1.08223 0)
(6.74813 1.0989 0)
(6.6188 1.11588 0)
(6.4874 1.13315 0)
(6.35391 1.15071 0)
(6.21827 1.16853 0)
(6.08045 1.1866 0)
(5.9404 1.20489 0)
(5.79808 1.22338 0)
(5.65347 1.24204 0)
(5.50652 1.26085 0)
(5.35722 1.27976 0)
(5.20553 1.29875 0)
(5.05143 1.31777 0)
(4.89491 1.3368 0)
(4.73594 1.35578 0)
(4.57453 1.37468 0)
(4.41066 1.39346 0)
(4.24434 1.41207 0)
(4.07559 1.43047 0)
(3.90441 1.4486 0)
(3.73085 1.46644 0)
(3.55492 1.48393 0)
(3.37669 1.50104 0)
(3.19621 1.51771 0)
(3.01356 1.53392 0)
(2.82882 1.54961 0)
(2.6421 1.56475 0)
(2.45351 1.5793 0)
(2.26318 1.59321 0)
(2.07126 1.60643 0)
(1.8779 1.6189 0)
(1.68327 1.63055 0)
(1.48752 1.6413 0)
(1.29084 1.65105 0)
(1.09338 1.65971 0)
(0.895293 1.66716 0)
(0.69674 1.67332 0)
(0.497794 1.67795 0)
(0.298714 1.68157 0)
(0.0991732 1.67989 0)
(9.85866 -0.0270575 0)
(9.88851 -0.0156814 0)
(9.93584 0.0324309 0)
(9.9576 0.0677917 0)
(9.97988 0.104739 0)
(9.99725 0.122979 0)
(9.99689 0.120687 0)
(9.98044 0.123164 0)
(9.96271 0.141042 0)
(9.95373 0.158175 0)
(9.94945 0.164465 0)
(9.94025 0.171673 0)
(9.92324 0.192934 0)
(9.90324 0.221552 0)
(9.88481 0.238409 0)
(9.86666 0.235413 0)
(9.84513 0.223823 0)
(9.82019 0.220428 0)
(9.79513 0.231233 0)
(9.77127 0.249996 0)
(9.74577 0.268705 0)
(9.71534 0.286078 0)
(9.68051 0.306355 0)
(9.64482 0.332008 0)
(9.61062 0.358991 0)
(9.57673 0.37986 0)
(9.54026 0.391806 0)
(9.4998 0.400993 0)
(9.45575 0.417533 0)
(9.40825 0.445047 0)
(9.35654 0.475418 0)
(9.30102 0.495267 0)
(9.24497 0.4988 0)
(9.19292 0.494392 0)
(9.14703 0.498017 0)
(9.10471 0.519425 0)
(9.06019 0.553805 0)
(9.00875 0.586022 0)
(8.94995 0.602976 0)
(8.88716 0.603632 0)
(8.8242 0.599614 0)
(8.76204 0.607233 0)
(8.69826 0.63759 0)
(8.62907 0.691394 0)
(8.55178 0.760424 0)
(8.46587 0.832934 0)
(8.37245 0.898963 0)
(8.27321 0.953133 0)
(8.16973 0.994668 0)
(8.06312 1.02577 0)
(7.95409 1.04969 0)
(7.84307 1.06941 0)
(7.73028 1.08705 0)
(7.61582 1.10389 0)
(7.49971 1.1206 0)
(7.38194 1.13748 0)
(7.26243 1.15467 0)
(7.14115 1.17221 0)
(7.01802 1.19013 0)
(6.89299 1.20842 0)
(6.766 1.22708 0)
(6.63699 1.2461 0)
(6.50591 1.26546 0)
(6.37272 1.28515 0)
(6.23737 1.30515 0)
(6.0998 1.32543 0)
(5.95999 1.34598 0)
(5.81789 1.36676 0)
(5.67346 1.38775 0)
(5.52667 1.40892 0)
(5.37749 1.43022 0)
(5.22589 1.45162 0)
(5.07184 1.47308 0)
(4.91532 1.49456 0)
(4.75632 1.51601 0)
(4.59483 1.53739 0)
(4.43084 1.55864 0)
(4.26435 1.57972 0)
(4.09538 1.60057 0)
(3.92393 1.62114 0)
(3.75004 1.64138 0)
(3.57374 1.66123 0)
(3.39507 1.68064 0)
(3.2141 1.69956 0)
(3.03089 1.71792 0)
(2.84554 1.73569 0)
(2.65813 1.75279 0)
(2.46879 1.76917 0)
(2.27763 1.78478 0)
(2.08481 1.79955 0)
(1.89048 1.81341 0)
(1.69479 1.82628 0)
(1.49791 1.83808 0)
(1.30002 1.84872 0)
(1.10129 1.85811 0)
(0.901861 1.86613 0)
(0.701911 1.87272 0)
(0.501524 1.87765 0)
(0.300967 1.88152 0)
(0.0999279 1.87954 0)
(10.0399 -0.0669525 0)
(10.0086 -0.0607591 0)
(9.97368 -0.00697423 0)
(9.95493 0.0460456 0)
(9.97404 0.069024 0)
(10.0003 0.0880921 0)
(10.0004 0.118469 0)
(9.97726 0.149895 0)
(9.95546 0.165491 0)
(9.94754 0.16445 0)
(9.94461 0.162231 0)
(9.93416 0.172159 0)
(9.91844 0.191527 0)
(9.9089 0.208485 0)
(9.90837 0.218186 0)
(9.90651 0.227096 0)
(9.89128 0.242907 0)
(9.86089 0.264785 0)
(9.82352 0.28524 0)
(9.78768 0.299017 0)
(9.75529 0.30802 0)
(9.72332 0.318753 0)
(9.68934 0.336737 0)
(9.65337 0.362507 0)
(9.61529 0.390848 0)
(9.5732 0.413655 0)
(9.5259 0.426253 0)
(9.47618 0.433045 0)
(9.42989 0.445618 0)
(9.39087 0.472207 0)
(9.35691 0.508015 0)
(9.32071 0.537744 0)
(9.27531 0.549702 0)
(9.21881 0.547833 0)
(9.15492 0.549239 0)
(9.08943 0.569018 0)
(9.02646 0.606608 0)
(8.96739 0.646174 0)
(8.91215 0.670179 0)
(8.86048 0.673819 0)
(8.81155 0.668731 0)
(8.76291 0.674462 0)
(8.71043 0.705671 0)
(8.64968 0.764476 0)
(8.57774 0.841551 0)
(8.4941 0.922851 0)
(8.40035 0.996499 0)
(8.29913 1.0563 0)
(8.19302 1.1016 0)
(8.08398 1.13516 0)
(7.97314 1.16082 0)
(7.86103 1.18198 0)
(7.74774 1.20099 0)
(7.6332 1.21926 0)
(7.51727 1.23749 0)
(7.3998 1.256 0)
(7.28068 1.27491 0)
(7.15979 1.29425 0)
(7.03707 1.31403 0)
(6.91244 1.33426 0)
(6.78584 1.35491 0)
(6.65721 1.37597 0)
(6.5265 1.39743 0)
(6.39365 1.41927 0)
(6.25862 1.44147 0)
(6.12135 1.46399 0)
(5.98181 1.48683 0)
(5.83996 1.50993 0)
(5.69574 1.53328 0)
(5.54913 1.55684 0)
(5.40008 1.58057 0)
(5.24858 1.60442 0)
(5.09458 1.62836 0)
(4.93808 1.65234 0)
(4.77905 1.6763 0)
(4.61747 1.7002 0)
(4.45334 1.72397 0)
(4.28667 1.74757 0)
(4.11745 1.77092 0)
(3.9457 1.79398 0)
(3.77146 1.81667 0)
(3.59474 1.83894 0)
(3.4156 1.86071 0)
(3.23409 1.88193 0)
(3.05028 1.90252 0)
(2.86425 1.92241 0)
(2.67611 1.94154 0)
(2.48595 1.95984 0)
(2.29391 1.97722 0)
(2.10012 1.99362 0)
(1.90472 2.00895 0)
(1.70788 2.02313 0)
(1.50977 2.03608 0)
(1.31054 2.04769 0)
(1.11038 2.05788 0)
(0.90944 2.06655 0)
(0.707897 2.07364 0)
(0.505851 2.07892 0)
(0.303586 2.08307 0)
(0.100805 2.08083 0)
(10.0941 -0.0593713 0)
(10.0603 0.0191699 0)
(10.0593 0.0567489 0)
(10.0528 0.0624026 0)
(10.0357 0.0743558 0)
(10.0168 0.106611 0)
(10.0023 0.141604 0)
(9.99933 0.160878 0)
(10.0058 0.163855 0)
(10.0105 0.164396 0)
(10.0037 0.175082 0)
(9.98548 0.195944 0)
(9.96025 0.217656 0)
(9.93083 0.232778 0)
(9.89822 0.24293 0)
(9.86427 0.25502 0)
(9.83253 0.272207 0)
(9.80549 0.29114 0)
(9.78155 0.307487 0)
(9.75551 0.321194 0)
(9.72239 0.335509 0)
(9.68157 0.353327 0)
(9.63752 0.376219 0)
(9.59684 0.404915 0)
(9.56407 0.437456 0)
(9.53889 0.467376 0)
(9.51639 0.487133 0)
(9.48997 0.495744 0)
(9.45503 0.501983 0)
(9.41124 0.517375 0)
(9.36222 0.544981 0)
(9.31284 0.576276 0)
(9.26617 0.600178 0)
(9.22176 0.614564 0)
(9.17582 0.627801 0)
(9.12368 0.64898 0)
(9.06305 0.677359 0)
(8.99577 0.701822 0)
(8.92694 0.711023 0)
(8.8622 0.704917 0)
(8.80487 0.697433 0)
(8.75405 0.708193 0)
(8.70476 0.750324 0)
(8.65022 0.823433 0)
(8.58493 0.915404 0)
(8.50661 1.00988 0)
(8.41623 1.09368 0)
(8.31665 1.16035 0)
(8.21107 1.20979 0)
(8.10206 1.24567 0)
(7.99117 1.27268 0)
(7.8791 1.29485 0)
(7.76603 1.31491 0)
(7.65183 1.33439 0)
(7.53632 1.35402 0)
(7.41932 1.37409 0)
(7.30068 1.39469 0)
(7.18028 1.41583 0)
(7.05803 1.43749 0)
(6.93387 1.45966 0)
(6.80772 1.48232 0)
(6.67952 1.50545 0)
(6.54922 1.52903 0)
(6.41676 1.55304 0)
(6.28209 1.57746 0)
(6.14517 1.60225 0)
(6.00594 1.62739 0)
(5.86436 1.65286 0)
(5.72039 1.6786 0)
(5.57399 1.70459 0)
(5.42511 1.73079 0)
(5.27372 1.75714 0)
(5.1198 1.7836 0)
(4.96332 1.81013 0)
(4.80426 1.83665 0)
(4.6426 1.86312 0)
(4.47832 1.88947 0)
(4.31144 1.91564 0)
(4.14196 1.94157 0)
(3.96988 1.96717 0)
(3.79523 1.99238 0)
(3.61804 2.01712 0)
(3.43836 2.04133 0)
(3.25624 2.06491 0)
(3.07174 2.08779 0)
(2.88496 2.10989 0)
(2.69597 2.13112 0)
(2.5049 2.1514 0)
(2.31185 2.17064 0)
(2.11696 2.18876 0)
(1.92038 2.20566 0)
(1.72226 2.22124 0)
(1.52277 2.23543 0)
(1.32206 2.24811 0)
(1.12033 2.2592 0)
(0.917723 2.2686 0)
(0.714436 2.27628 0)
(0.510575 2.28197 0)
(0.306443 2.28645 0)
(0.101762 2.28396 0)
(10.015 -0.116561 0)
(10.0276 -0.0357203 0)
(9.97204 0.0420297 0)
(9.96293 0.0678744 0)
(9.97596 0.0878392 0)
(9.98716 0.115819 0)
(9.97923 0.140414 0)
(9.95609 0.153921 0)
(9.93403 0.161319 0)
(9.92441 0.171453 0)
(9.92621 0.189999 0)
(9.92969 0.216992 0)
(9.92518 0.246132 0)
(9.90793 0.269131 0)
(9.87979 0.282486 0)
(9.84816 0.290059 0)
(9.82029 0.298739 0)
(9.79761 0.31266 0)
(9.77596 0.332007 0)
(9.7514 0.355116 0)
(9.72433 0.37965 0)
(9.69757 0.402745 0)
(9.67166 0.422127 0)
(9.64357 0.437669 0)
(9.6102 0.45094 0)
(9.57221 0.463383 0)
(9.53346 0.476736 0)
(9.49679 0.4953 0)
(9.46074 0.524681 0)
(9.42072 0.565127 0)
(9.37337 0.606569 0)
(9.32015 0.633937 0)
(9.26662 0.640686 0)
(9.2182 0.637585 0)
(9.17586 0.646 0)
(9.13471 0.67984 0)
(9.08682 0.732472 0)
(9.02663 0.780807 0)
(8.95474 0.803114 0)
(8.8775 0.795925 0)
(8.80306 0.777318 0)
(8.7368 0.77519 0)
(8.67859 0.810083 0)
(8.62324 0.884649 0)
(8.56355 0.985176 0)
(8.49399 1.09131 0)
(8.41257 1.18611 0)
(8.32046 1.26111 0)
(8.2204 1.31591 0)
(8.11518 1.35486 0)
(8.00683 1.38364 0)
(7.89651 1.40702 0)
(7.78468 1.42821 0)
(7.67144 1.44893 0)
(7.55673 1.46998 0)
(7.44042 1.49163 0)
(7.32241 1.51394 0)
(7.2026 1.53689 0)
(7.08091 1.56045 0)
(6.95728 1.58458 0)
(6.83163 1.60927 0)
(6.70392 1.63448 0)
(6.57409 1.6602 0)
(6.44207 1.68641 0)
(6.30783 1.71307 0)
(6.17129 1.74016 0)
(6.03242 1.76765 0)
(5.89116 1.7955 0)
(5.74748 1.82368 0)
(5.60131 1.85214 0)
(5.45263 1.88085 0)
(5.3014 1.90975 0)
(5.14758 1.93879 0)
(4.99114 1.96791 0)
(4.83205 1.99705 0)
(4.67031 2.02616 0)
(4.50589 2.05515 0)
(4.3388 2.08397 0)
(4.16902 2.11252 0)
(3.99658 2.14074 0)
(3.82149 2.16854 0)
(3.64378 2.19584 0)
(3.4635 2.22255 0)
(3.28069 2.24858 0)
(3.09542 2.27383 0)
(2.90777 2.29822 0)
(2.71784 2.32164 0)
(2.52571 2.34399 0)
(2.33153 2.36519 0)
(2.1354 2.38511 0)
(1.93749 2.40367 0)
(1.73793 2.42076 0)
(1.53691 2.43628 0)
(1.33457 2.45013 0)
(1.13111 2.46222 0)
(0.926681 2.47244 0)
(0.721495 2.48077 0)
(0.51567 2.48694 0)
(0.309522 2.49179 0)
(0.102792 2.48908 0)
(10.0034 0.107991 0)
(10.0772 0.0910089 0)
(10.0815 0.0863916 0)
(10.0622 0.0685485 0)
(10.0235 0.068929 0)
(9.99491 0.110505 0)
(9.99593 0.168067 0)
(10.0167 0.197531 0)
(10.0327 0.188274 0)
(10.0267 0.167756 0)
(10.0005 0.167458 0)
(9.96984 0.196019 0)
(9.94626 0.239991 0)
(9.92673 0.280015 0)
(9.89922 0.305261 0)
(9.85781 0.317487 0)
(9.81042 0.325962 0)
(9.77072 0.338781 0)
(9.74442 0.356998 0)
(9.72593 0.375763 0)
(9.70679 0.391185 0)
(9.68417 0.406202 0)
(9.66015 0.428944 0)
(9.63529 0.464191 0)
(9.6056 0.506366 0)
(9.56638 0.541989 0)
(9.51819 0.56113 0)
(9.46781 0.567777 0)
(9.42301 0.577868 0)
(9.38642 0.604749 0)
(9.35374 0.645612 0)
(9.31738 0.683301 0)
(9.27216 0.702778 0)
(9.21866 0.706388 0)
(9.16207 0.712736 0)
(9.10776 0.739625 0)
(9.05726 0.786824 0)
(9.00765 0.83481 0)
(8.95428 0.86067 0)
(8.89421 0.857032 0)
(8.82799 0.83877 0)
(8.75902 0.833643 0)
(8.69095 0.865168 0)
(8.62494 0.939823 0)
(8.55871 1.04579 0)
(8.48818 1.16167 0)
(8.41003 1.26771 0)
(8.32312 1.35282 0)
(8.22834 1.41525 0)
(8.12752 1.45934 0)
(8.02247 1.49141 0)
(7.91451 1.51704 0)
(7.80438 1.53999 0)
(7.6924 1.56235 0)
(7.57868 1.58505 0)
(7.46321 1.60842 0)
(7.34593 1.63252 0)
(7.22679 1.65733 0)
(7.10573 1.68282 0)
(6.98269 1.70894 0)
(6.85762 1.73568 0)
(6.73046 1.763 0)
(6.60114 1.79089 0)
(6.46962 1.81932 0)
(6.33585 1.84825 0)
(6.19975 1.87767 0)
(6.06128 1.90753 0)
(5.9204 1.93782 0)
(5.77704 1.96847 0)
(5.63116 1.99945 0)
(5.48271 2.03072 0)
(5.33166 2.06222 0)
(5.17797 2.09389 0)
(5.02159 2.12567 0)
(4.86251 2.1575 0)
(4.70069 2.18931 0)
(4.53613 2.22101 0)
(4.36882 2.25254 0)
(4.19874 2.28381 0)
(4.02591 2.31473 0)
(3.85035 2.34521 0)
(3.67207 2.37515 0)
(3.49113 2.40445 0)
(3.30756 2.43302 0)
(3.12144 2.46074 0)
(2.93283 2.48751 0)
(2.74183 2.51321 0)
(2.54854 2.53774 0)
(2.35308 2.56098 0)
(2.15558 2.58283 0)
(1.95617 2.60315 0)
(1.75502 2.62185 0)
(1.55229 2.63881 0)
(1.34816 2.65392 0)
(1.14279 2.6671 0)
(0.936378 2.67823 0)
(0.729126 2.68728 0)
(0.52117 2.69397 0)
(0.312843 2.69924 0)
(0.103903 2.69633 0)
(10.043 -0.0246777 0)
(10.023 -0.0127078 0)
(9.98527 0.0564921 0)
(9.9618 0.105208 0)