/*--------------------------------*- C++ -*----------------------------------*\
| =========                 |                                                 |
| \\      /  F ield         | OpenFOAM: The Open Source CFD Toolbox           |
|  \\    /   O peration     | Version:  4.1                                   |
|   \\  /    A nd           | Web:      www.OpenFOAM.org                      |
|    \\/     M anipulation  |                                                 |
\*---------------------------------------------------------------------------*/
FoamFile
{
    version     2.0;
    format      ascii;
    class       volVectorField;
    location    "0.1";
    object      UMean;
}
// * * * * * * * * * * * * * * * * * * * * * * * * * * * * * * * * * * * * * //

dimensions      [0 1 -1 0 0 0 0];

internalField   nonuniform List<vector> 
43750
(
(9.92557 0.00236956 0)
(10.0023 0.00368888 0)
(9.95442 0.00353989 0)
(9.95684 0.00400874 0)
(9.94966 0.00556957 0)
(9.93575 0.00753801 0)
(9.91965 0.00920802 0)
(9.90181 0.0105254 0)
(9.88156 0.0118042 0)
(9.85867 0.0132624 0)
(9.83336 0.0148934 0)
(9.80598 0.0165699 0)
(9.77671 0.0181745 0)
(9.74537 0.0196638 0)
(9.71167 0.0210419 0)
(9.67542 0.0223072 0)
(9.63677 0.0234595 0)
(9.59606 0.0245593 0)
(9.55357 0.0257444 0)
(9.50928 0.0271469 0)
(9.46298 0.0287702 0)
(9.41451 0.0304691 0)
(9.36388 0.0320871 0)
(9.31122 0.0336049 0)
(9.25655 0.0351244 0)
(9.19974 0.0366971 0)
(9.14066 0.038194 0)
(9.07926 0.0393934 0)
(9.01568 0.0402143 0)
(8.95007 0.0408456 0)
(8.88241 0.0416132 0)
(8.81259 0.0426906 0)
(8.7405 0.0439293 0)
(8.66618 0.0449832 0)
(8.58987 0.0456169 0)
(8.51176 0.0459197 0)
(8.43184 0.0462398 0)
(8.34993 0.0469007 0)
(8.26577 0.0479422 0)
(8.17929 0.049088 0)
(8.0907 0.0499399 0)
(8.00044 0.0502345 0)
(7.90904 0.0499859 0)
(7.81691 0.0494414 0)
(7.72418 0.0489197 0)
(7.63078 0.0486581 0)
(7.53648 0.0487496 0)
(7.441 0.0491672 0)
(7.34411 0.0498259 0)
(7.24564 0.0506365 0)
(7.14549 0.0515325 0)
(7.04356 0.0524749 0)
(6.93982 0.0534445 0)
(6.83421 0.0544336 0)
(6.72669 0.0554394 0)
(6.61722 0.0564604 0)
(6.50576 0.0574954 0)
(6.39229 0.0585428 0)
(6.27675 0.059601 0)
(6.15911 0.0606682 0)
(6.03936 0.0617424 0)
(5.91745 0.0628214 0)
(5.79336 0.063903 0)
(5.66708 0.0649849 0)
(5.53858 0.0660639 0)
(5.40787 0.0671363 0)
(5.27493 0.0681968 0)
(5.13978 0.0692393 0)
(5.00241 0.0702549 0)
(4.86286 0.0712333 0)
(4.72113 0.0721663 0)
(4.57726 0.0730475 0)
(4.4313 0.073871 0)
(4.28329 0.0746308 0)
(4.1333 0.0753201 0)
(3.98141 0.075932 0)
(3.8277 0.0764597 0)
(3.67226 0.0768965 0)
(3.51522 0.0772365 0)
(3.35668 0.0774742 0)
(3.19677 0.077605 0)
(3.03564 0.0776259 0)
(2.87344 0.0775351 0)
(2.71031 0.0773331 0)
(2.54642 0.0770225 0)
(2.38192 0.0766084 0)
(2.21698 0.0760989 0)
(2.05174 0.0755046 0)
(1.88636 0.0748392 0)
(1.72096 0.0741192 0)
(1.55567 0.0733635 0)
(1.39058 0.0725929 0)
(1.22577 0.0718302 0)
(1.06129 0.0710982 0)
(0.897174 0.0704205 0)
(0.733417 0.0698181 0)
(0.569998 0.0693121 0)
(0.406864 0.0689092 0)
(0.243987 0.0686045 0)
(0.0812253 0.0684963 0)
(9.96013 0.00782856 0)
(10.0409 0.00894607 0)
(9.99662 0.0105902 0)
(10.0017 0.013009 0)
(9.99674 0.0160554 0)
(9.98567 0.0196523 0)
(9.9734 0.0236261 0)
(9.96025 0.0277158 0)
(9.94533 0.0315966 0)
(9.92829 0.0349261 0)
(9.90928 0.037573 0)
(9.88858 0.0397994 0)
(9.86631 0.0421586 0)
(9.84251 0.0451095 0)
(9.81708 0.048655 0)
(9.78974 0.0523457 0)
(9.76009 0.0556542 0)
(9.7279 0.0583843 0)
(9.69329 0.0607575 0)
(9.65679 0.0631341 0)
(9.61891 0.0656818 0)
(9.57981 0.0683104 0)
(9.5393 0.0708741 0)
(9.49713 0.0733732 0)
(9.45325 0.0759586 0)
(9.40782 0.0787831 0)
(9.36092 0.0818795 0)
(9.3124 0.0851711 0)
(9.26192 0.088562 0)
(9.20926 0.0919905 0)
(9.15452 0.0954125 0)
(9.09797 0.0987748 0)
(9.03982 0.102035 0)
(8.97996 0.105207 0)
(8.91806 0.10838 0)
(8.85382 0.111665 0)
(8.78724 0.115117 0)
(8.71866 0.118682 0)
(8.64844 0.122213 0)
(8.57671 0.125533 0)
(8.50322 0.128497 0)
(8.42747 0.131039 0)
(8.34895 0.133197 0)
(8.2674 0.135094 0)
(8.18281 0.136894 0)
(8.09543 0.138744 0)
(8.00563 0.140736 0)
(7.91374 0.142901 0)
(7.81999 0.145227 0)
(7.72455 0.147687 0)
(7.62745 0.150249 0)
(7.5287 0.152895 0)
(7.42827 0.155614 0)
(7.3261 0.1584 0)
(7.22214 0.161252 0)
(7.11633 0.16417 0)
(7.00862 0.167153 0)
(6.89895 0.1702 0)
(6.78726 0.173309 0)
(6.6735 0.176476 0)
(6.55761 0.179701 0)
(6.43953 0.182977 0)
(6.31921 0.186303 0)
(6.19658 0.189673 0)
(6.07161 0.193081 0)
(5.94422 0.196522 0)
(5.81438 0.199986 0)
(5.68203 0.203467 0)
(5.54712 0.206952 0)
(5.40961 0.210429 0)
(5.26945 0.213886 0)
(5.12662 0.217314 0)
(4.98107 0.2207 0)
(4.83277 0.224031 0)
(4.68171 0.227294 0)
(4.52786 0.230472 0)
(4.3712 0.233551 0)
(4.21173 0.236514 0)
(4.04945 0.239345 0)
(3.88437 0.242028 0)
(3.7165 0.244548 0)
(3.54587 0.246889 0)
(3.37252 0.249039 0)
(3.19649 0.250985 0)
(3.01784 0.25272 0)
(2.83664 0.254238 0)
(2.65297 0.255536 0)
(2.46693 0.256617 0)
(2.27863 0.257486 0)
(2.08818 0.258156 0)
(1.89573 0.258641 0)
(1.70141 0.258962 0)
(1.50539 0.259142 0)
(1.30784 0.259207 0)
(1.10894 0.259186 0)
(0.908882 0.259107 0)
(0.707867 0.259 0)
(0.50611 0.258883 0)
(0.303815 0.258824 0)
(0.101062 0.258484 0)
(9.9386 -0.000866418 0)
(10.0204 0.00536875 0)
(9.975 0.0116597 0)
(9.97787 0.0180134 0)
(9.97081 0.0236115 0)
(9.9579 0.0285598 0)
(9.9438 0.0336105 0)
(9.92884 0.039087 0)
(9.91231 0.0446665 0)
(9.89381 0.0499884 0)
(9.87309 0.0550115 0)
(9.84998 0.0598662 0)
(9.82454 0.0646285 0)
(9.79717 0.0693799 0)
(9.76833 0.0743591 0)
(9.73814 0.0798501 0)
(9.70628 0.0858442 0)
(9.67227 0.0918949 0)
(9.63581 0.0974152 0)
(9.5969 0.102162 0)
(9.55575 0.106434 0)
(9.51253 0.110772 0)
(9.46733 0.115475 0)
(9.42014 0.120403 0)
(9.37098 0.125242 0)
(9.32004 0.129874 0)
(9.26759 0.134472 0)
(9.21386 0.13925 0)
(9.15896 0.144203 0)
(9.10277 0.149112 0)
(9.04505 0.153786 0)
(8.9855 0.158271 0)
(8.92387 0.162805 0)
(8.86007 0.167592 0)
(8.79414 0.1726 0)
(8.72627 0.177576 0)
(8.65671 0.182248 0)
(8.58566 0.186558 0)
(8.51317 0.190727 0)
(8.43908 0.195095 0)
(8.3631 0.199897 0)
(8.28492 0.205135 0)
(8.20428 0.210614 0)
(8.12108 0.216075 0)
(8.03537 0.221311 0)
(7.94732 0.226223 0)
(7.85718 0.230814 0)
(7.76516 0.23516 0)
(7.67142 0.239362 0)
(7.57605 0.24352 0)
(7.47909 0.24771 0)
(7.38052 0.251981 0)
(7.28031 0.256359 0)
(7.17842 0.260856 0)
(7.0748 0.265477 0)
(6.96941 0.27022 0)
(6.86218 0.275087 0)
(6.75309 0.280074 0)
(6.64207 0.28518 0)
(6.52909 0.290402 0)
(6.41409 0.295735 0)
(6.29704 0.301177 0)
(6.17789 0.306722 0)
(6.05659 0.312365 0)
(5.93311 0.318098 0)
(5.80741 0.323914 0)
(5.67944 0.329807 0)
(5.54917 0.335767 0)
(5.41655 0.341786 0)
(5.28157 0.347854 0)
(5.14418 0.35396 0)
(5.00435 0.360091 0)
(4.86206 0.366232 0)
(4.71728 0.372367 0)
(4.56998 0.378478 0)
(4.42014 0.384548 0)
(4.26773 0.390556 0)
(4.11276 0.396482 0)
(3.95519 0.402305 0)
(3.79501 0.408003 0)
(3.63223 0.413553 0)
(3.46684 0.418935 0)
(3.29884 0.424125 0)
(3.12825 0.429102 0)
(2.95507 0.433848 0)
(2.77933 0.438341 0)
(2.60107 0.442567 0)
(2.42034 0.44651 0)
(2.2372 0.450158 0)
(2.05172 0.453502 0)
(1.864 0.456535 0)
(1.67416 0.459253 0)
(1.48232 0.461655 0)
(1.28866 0.463741 0)
(1.09334 0.465513 0)
(0.896582 0.466975 0)
(0.698601 0.468133 0)
(0.499637 0.468987 0)
(0.299995 0.469641 0)
(0.0997899 0.469331 0)
(9.95113 0.00643827 0)
(10.025 0.0138603 0)
(9.97643 0.0219977 0)
(9.9792 0.0295642 0)
(9.97294 0.0364551 0)
(9.96023 0.0435105 0)
(9.94555 0.0511923 0)
(9.92954 0.0591162 0)
(9.91174 0.066712 0)
(9.89186 0.0738979 0)
(9.86978 0.0809029 0)
(9.84546 0.0877901 0)
(9.81893 0.0944222 0)
(9.79024 0.100788 0)
(9.75955 0.10716 0)
(9.72713 0.113861 0)
(9.69318 0.120964 0)
(9.6578 0.128263 0)
(9.62089 0.135492 0)
(9.58225 0.142513 0)
(9.5417 0.149324 0)
(9.49919 0.155973 0)
(9.45472 0.162501 0)
(9.40832 0.168925 0)
(9.35997 0.175222 0)
(9.3097 0.181328 0)
(9.25766 0.187211 0)
(9.20401 0.192967 0)
(9.14883 0.198835 0)
(9.09204 0.205087 0)
(9.03344 0.211873 0)
(8.97288 0.219142 0)
(8.91032 0.226674 0)
(8.84578 0.234189 0)
(8.7793 0.241459 0)
(8.71081 0.248386 0)
(8.64024 0.255022 0)
(8.56752 0.261544 0)
(8.49266 0.268167 0)
(8.41572 0.275043 0)
(8.3368 0.28219 0)
(8.2559 0.289492 0)
(8.17301 0.296759 0)
(8.08811 0.303804 0)
(8.0012 0.310505 0)
(7.91235 0.316837 0)
(7.82165 0.322852 0)
(7.7292 0.328655 0)
(7.63506 0.334362 0)
(7.53926 0.340074 0)
(7.44181 0.345866 0)
(7.34269 0.351783 0)
(7.24187 0.357851 0)
(7.13932 0.364081 0)
(7.03498 0.370476 0)
(6.92882 0.377038 0)
(6.82079 0.383765 0)
(6.71085 0.390654 0)
(6.59896 0.397703 0)
(6.48506 0.404907 0)
(6.36911 0.412262 0)
(6.25108 0.419763 0)
(6.13093 0.427403 0)
(6.00861 0.435176 0)
(5.88409 0.443072 0)
(5.75734 0.451082 0)
(5.62832 0.459197 0)
(5.497 0.467405 0)
(5.36336 0.475694 0)
(5.22737 0.484049 0)
(5.08902 0.492457 0)
(4.94828 0.500898 0)
(4.80513 0.509357 0)
(4.65958 0.517813 0)
(4.5116 0.526248 0)
(4.3612 0.534641 0)
(4.20838 0.542971 0)
(4.05312 0.551215 0)
(3.89545 0.559351 0)
(3.73538 0.567355 0)
(3.5729 0.575201 0)
(3.40806 0.582867 0)
(3.24085 0.590325 0)
(3.07132 0.597552 0)
(2.89948 0.604521 0)
(2.72539 0.611209 0)
(2.54908 0.61759 0)
(2.37061 0.623642 0)
(2.19004 0.629339 0)
(2.00744 0.63466 0)
(1.8229 0.639583 0)
(1.63653 0.644086 0)
(1.44843 0.648149 0)
(1.25875 0.651753 0)
(1.06764 0.654881 0)
(0.875283 0.657516 0)
(0.681866 0.659645 0)
(0.487586 0.661241 0)
(0.292734 0.662409 0)
(0.0973753 0.662055 0)
(9.93583 0.01041 0)
(10.0187 0.017427 0)
(9.9747 0.0263062 0)
(9.97905 0.0355409 0)
(9.9727 0.0446391 0)
(9.95949 0.0537649 0)
(9.94482 0.0633343 0)
(9.92954 0.0732464 0)
(9.91281 0.0830432 0)
(9.89398 0.0924891 0)
(9.8729 0.101745 0)
(9.84971 0.111005 0)
(9.82447 0.12021 0)
(9.79716 0.12919 0)
(9.76777 0.137955 0)
(9.73643 0.146727 0)
(9.70334 0.155682 0)
(9.66857 0.16472 0)
(9.63215 0.17355 0)
(9.59401 0.181993 0)
(9.55403 0.190189 0)
(9.51207 0.198476 0)
(9.46797 0.207082 0)
(9.4216 0.215913 0)
(9.37295 0.224634 0)
(9.32207 0.232973 0)
(9.2691 0.240951 0)
(9.21416 0.248843 0)
(9.15739 0.256923 0)
(9.09894 0.265252 0)
(9.03888 0.273697 0)
(8.97722 0.282141 0)
(8.91388 0.290627 0)
(8.8487 0.299305 0)
(8.78153 0.308233 0)
(8.71227 0.31727 0)
(8.64091 0.326157 0)
(8.56755 0.33473 0)
(8.49234 0.343063 0)
(8.41539 0.351432 0)
(8.33671 0.360123 0)
(8.25621 0.369242 0)
(8.17373 0.378657 0)
(8.08918 0.388074 0)
(8.00253 0.397197 0)
(7.91383 0.405844 0)
(7.8232 0.413993 0)
(7.73075 0.421747 0)
(7.63657 0.429266 0)
(7.54071 0.43671 0)
(7.4432 0.444206 0)
(7.34401 0.451832 0)
(7.24311 0.459636 0)
(7.14046 0.46764 0)
(7.03601 0.475853 0)
(6.92972 0.484278 0)
(6.82153 0.492913 0)
(6.7114 0.501757 0)
(6.59928 0.510807 0)
(6.48513 0.520057 0)
(6.3689 0.529502 0)
(6.25054 0.539135 0)
(6.13002 0.548948 0)
(6.00729 0.558932 0)
(5.88232 0.569077 0)
(5.75506 0.579371 0)
(5.6255 0.589801 0)
(5.49359 0.600352 0)
(5.35931 0.61101 0)
(5.22263 0.621756 0)
(5.08354 0.632573 0)
(4.94202 0.64344 0)
(4.79805 0.654336 0)
(4.65164 0.665239 0)
(4.50277 0.676125 0)
(4.35145 0.686969 0)
(4.19769 0.697745 0)
(4.0415 0.708426 0)
(3.8829 0.718985 0)
(3.72192 0.729392 0)
(3.55857 0.739619 0)
(3.39291 0.749636 0)
(3.22496 0.759412 0)
(3.05478 0.768916 0)
(2.88242 0.778118 0)
(2.70795 0.786987 0)
(2.53142 0.79549 0)
(2.35291 0.803596 0)
(2.17251 0.811272 0)
(1.9903 0.818486 0)
(1.80639 0.825202 0)
(1.62088 0.831386 0)
(1.43389 0.837004 0)
(1.24556 0.84202 0)
(1.05603 0.846399 0)
(0.865459 0.850107 0)
(0.674017 0.853119 0)
(0.481866 0.855387 0)
(0.289259 0.857034 0)
(0.0962152 0.856637 0)
(9.94086 0.0024123 0)
(10.0225 0.0175985 0)
(9.97734 0.0299636 0)
(9.98054 0.0428925 0)
(9.97389 0.0562063 0)
(9.96101 0.0686726 0)
(9.94658 0.0801802 0)
(9.93105 0.0913578 0)
(9.9137 0.102579 0)
(9.89418 0.113817 0)
(9.87264 0.124955 0)
(9.84947 0.135933 0)
(9.82484 0.146699 0)
(9.79855 0.157228 0)
(9.77015 0.1676 0)
(9.73935 0.177974 0)
(9.70617 0.188461 0)
(9.67092 0.199027 0)
(9.63383 0.209578 0)
(9.59485 0.220094 0)
(9.55381 0.230665 0)
(9.5106 0.241398 0)
(9.46542 0.2523 0)
(9.41861 0.263247 0)
(9.3704 0.274032 0)
(9.32074 0.284451 0)
(9.26936 0.294401 0)
(9.21596 0.30395 0)
(9.16042 0.313336 0)
(9.10285 0.322882 0)
(9.04338 0.332866 0)
(8.98206 0.343417 0)
(8.91879 0.354479 0)
(8.85342 0.365844 0)
(8.78592 0.377228 0)
(8.71642 0.388367 0)
(8.64515 0.399113 0)
(8.57228 0.409502 0)
(8.49784 0.419747 0)
(8.42168 0.430143 0)
(8.34357 0.440908 0)
(8.26334 0.452069 0)
(8.18091 0.463439 0)
(8.09629 0.474717 0)
(8.0096 0.485616 0)
(7.92096 0.495976 0)
(7.83049 0.505788 0)
(7.73827 0.515173 0)
(7.64436 0.524308 0)
(7.54878 0.533375 0)
(7.45152 0.542514 0)
(7.35257 0.551821 0)
(7.25189 0.561349 0)
(7.14945 0.571127 0)
(7.04521 0.581164 0)
(6.93911 0.591463 0)
(6.8311 0.602023 0)
(6.72114 0.612841 0)
(6.60918 0.623912 0)
(6.49518 0.635231 0)
(6.37907 0.646791 0)
(6.26082 0.658583 0)
(6.14039 0.670598 0)
(6.01772 0.682825 0)
(5.89278 0.69525 0)
(5.76554 0.707861 0)
(5.63594 0.720641 0)
(5.50397 0.733573 0)
(5.36959 0.746639 0)
(5.23277 0.759817 0)
(5.0935 0.773085 0)
(4.95174 0.786419 0)
(4.8075 0.799794 0)
(4.66075 0.813182 0)
(4.51151 0.826554 0)
(4.35975 0.839879 0)
(4.20551 0.853126 0)
(4.04878 0.866261 0)
(3.88959 0.879249 0)
(3.72797 0.892055 0)
(3.56396 0.904642 0)
(3.39758 0.916974 0)
(3.22891 0.929012 0)
(3.05798 0.94072 0)
(2.88488 0.952057 0)
(2.70967 0.962986 0)
(2.53243 0.973468 0)
(2.35326 0.983463 0)
(2.17226 0.992931 0)
(1.98953 1.00183 0)
(1.80518 1.01012 0)
(1.61934 1.01775 0)
(1.43214 1.02469 0)
(1.24372 1.03089 0)
(1.05422 1.03631 0)
(0.863787 1.0409 0)
(0.672595 1.04463 0)
(0.480785 1.04744 0)
(0.288585 1.04948 0)
(0.0959895 1.049 0)
(9.95205 0.00818966 0)
(10.0262 0.024667 0)
(9.9783 0.0383596 0)
(9.98137 0.051447 0)
(9.97501 0.0648299 0)
(9.96239 0.0785434 0)
(9.94824 0.0925179 0)
(9.93301 0.106611 0)
(9.91594 0.120506 0)
(9.89662 0.133845 0)
(9.87507 0.146514 0)
(9.85151 0.158774 0)
(9.82617 0.171107 0)
(9.79905 0.183913 0)
(9.77003 0.197261 0)
(9.73892 0.210871 0)
(9.70567 0.224317 0)
(9.67042 0.237328 0)
(9.63335 0.249943 0)
(9.59454 0.262404 0)
(9.55395 0.274891 0)
(9.51144 0.287364 0)
(9.4669 0.299622 0)
(9.42035 0.311509 0)
(9.37194 0.323082 0)
(9.32184 0.334592 0)
(9.27013 0.34631 0)
(9.21671 0.358347 0)
(9.16135 0.370598 0)
(9.10389 0.382864 0)
(9.04433 0.395058 0)
(8.98286 0.407308 0)
(8.91969 0.419838 0)
(8.85488 0.432728 0)
(8.78836 0.445768 0)
(8.72 0.45856 0)
(8.64976 0.470804 0)
(8.57772 0.482537 0)
(8.50394 0.494146 0)
(8.42841 0.506137 0)
(8.35097 0.518844 0)
(8.27141 0.532243 0)
(8.18955 0.54599 0)
(8.10535 0.559608 0)
(8.01891 0.5727 0)
(7.9304 0.585078 0)
(7.84002 0.596763 0)
(7.7479 0.607926 0)
(7.65413 0.618791 0)
(7.55874 0.629568 0)
(7.46172 0.640422 0)
(7.36304 0.651461 0)
(7.26264 0.66275 0)
(7.1605 0.674325 0)
(7.05654 0.686201 0)
(6.95074 0.698385 0)
(6.84302 0.710877 0)
(6.73335 0.723677 0)
(6.62167 0.736779 0)
(6.50793 0.750176 0)
(6.39208 0.763862 0)
(6.27408 0.777826 0)
(6.15388 0.792057 0)
(6.03144 0.806543 0)
(5.90671 0.821269 0)
(5.77964 0.836219 0)
(5.65021 0.851374 0)
(5.51838 0.866714 0)
(5.38411 0.882217 0)
(5.24737 0.897858 0)
(5.10814 0.913612 0)
(4.9664 0.92945 0)
(4.82213 0.945342 0)
(4.67532 0.961254 0)
(4.52595 0.977152 0)
(4.37404 0.992999 0)
(4.21958 1.00876 0)
(4.06259 1.02439 0)
(3.90309 1.03984 0)
(3.7411 1.05509 0)
(3.57665 1.07007 0)
(3.4098 1.08475 0)
(3.24059 1.09909 0)
(3.06908 1.11302 0)
(2.89534 1.12651 0)
(2.71945 1.13951 0)
(2.54151 1.15197 0)
(2.36161 1.16385 0)
(2.17985 1.17509 0)
(1.99635 1.18564 0)
(1.81124 1.19546 0)
(1.62465 1.2045 0)
(1.43672 1.2127 0)
(1.24759 1.22001 0)
(1.05741 1.2264 0)
(0.866343 1.2318 0)
(0.674542 1.23619 0)
(0.482153 1.23949 0)
(0.289398 1.24188 0)
(0.0962604 1.24131 0)
(9.96831 0.0135121 0)
(10.048 0.0275034 0)
(10.0022 0.0436592 0)
(10.0052 0.0603613 0)
(9.9983 0.0767529 0)
(9.98523 0.0927121 0)
(9.97078 0.108346 0)
(9.95546 0.123848 0)
(9.93874 0.13935 0)
(9.92029 0.15477 0)
(9.89971 0.169929 0)
(9.87665 0.18471 0)
(9.85099 0.199147 0)
(9.82305 0.213435 0)
(9.79329 0.227807 0)
(9.76202 0.242349 0)
(9.72921 0.256902 0)
(9.6947 0.271228 0)
(9.65838 0.285269 0)
(9.62026 0.299241 0)
(9.5804 0.313465 0)
(9.53871 0.328099 0)
(9.49501 0.343002 0)
(9.4491 0.357811 0)
(9.40094 0.372159 0)
(9.35061 0.385902 0)
(9.29825 0.399199 0)
(9.24392 0.412405 0)
(9.1876 0.425829 0)
(9.12925 0.439568 0)
(9.06889 0.453545 0)
(9.00664 0.467699 0)
(8.94268 0.482092 0)
(8.87716 0.496804 0)
(8.8101 0.511744 0)
(8.7414 0.5266 0)
(8.67083 0.541035 0)
(8.59822 0.554978 0)
(8.52344 0.568736 0)
(8.44646 0.58283 0)
(8.36733 0.597668 0)
(8.28612 0.613287 0)
(8.20291 0.629326 0)
(8.11774 0.645221 0)
(8.0307 0.660468 0)
(7.94188 0.674804 0)
(7.85136 0.688254 0)
(7.75924 0.701039 0)
(7.66557 0.713458 0)
(7.57035 0.725784 0)
(7.47355 0.738223 0)
(7.37513 0.750903 0)
(7.27504 0.763895 0)
(7.17321 0.777234 0)
(7.06959 0.790932 0)
(6.96411 0.804994 0)
(6.85673 0.819418 0)
(6.74739 0.834202 0)
(6.63604 0.849339 0)
(6.52262 0.864823 0)
(6.40709 0.880643 0)
(6.2894 0.896791 0)
(6.16949 0.913252 0)
(6.04732 0.930013 0)
(5.92285 0.947056 0)
(5.79602 0.964364 0)
(5.66681 0.981916 0)
(5.53518 0.999689 0)
(5.40108 1.01766 0)
(5.26449 1.03579 0)
(5.12537 1.05406 0)
(4.98371 1.07244 0)
(4.83949 1.09089 0)
(4.69268 1.10936 0)
(4.54328 1.12783 0)
(4.39129 1.14625 0)
(4.23671 1.16457 0)
(4.07954 1.18275 0)
(3.91981 1.20073 0)
(3.75753 1.21847 0)
(3.59275 1.23591 0)
(3.4255 1.25301 0)
(3.25583 1.26969 0)
(3.0838 1.28592 0)
(2.90949 1.30162 0)
(2.73297 1.31675 0)
(2.55434 1.33125 0)
(2.37368 1.34505 0)
(2.19113 1.35811 0)
(2.00679 1.37035 0)
(1.82079 1.38173 0)
(1.63327 1.39219 0)
(1.44439 1.40167 0)
(1.25427 1.41011 0)
(1.0631 1.41746 0)
(0.871007 1.42368 0)
(0.678179 1.42872 0)
(0.484756 1.43251 0)
(0.290962 1.43525 0)
(0.0967825 1.43458 0)
(9.95902 0.0114435 0)
(10.0403 0.0300443 0)
(9.99473 0.0493885 0)
(9.9979 0.0682655 0)
(9.9915 0.0860267 0)
(9.97936 0.103401 0)
(9.96589 0.121061 0)
(9.95128 0.138826 0)
(9.93484 0.156215 0)
(9.91638 0.173221 0)
(9.89598 0.190208 0)
(9.87357 0.207363 0)
(9.84904 0.224517 0)
(9.82242 0.241446 0)
(9.79394 0.258166 0)
(9.76378 0.274856 0)
(9.73187 0.291572 0)
(9.6979 0.308148 0)
(9.66158 0.32442 0)
(9.62282 0.340469 0)
(9.58178 0.356572 0)
(9.53874 0.372921 0)
(9.49395 0.389415 0)
(9.44758 0.405751 0)
(9.3996 0.421718 0)
(9.34988 0.437393 0)
(9.29818 0.453082 0)
(9.24431 0.469053 0)
(9.1882 0.485313 0)
(9.13 0.501623 0)
(9.06997 0.517729 0)
(9.00837 0.533587 0)
(8.94529 0.549393 0)
(8.88068 0.565386 0)
(8.81439 0.581619 0)
(8.74626 0.59792 0)
(8.67618 0.614058 0)
(8.60404 0.629986 0)
(8.52977 0.645925 0)
(8.45331 0.662226 0)
(8.37466 0.679135 0)
(8.29389 0.696607 0)
(8.2111 0.714303 0)
(8.12642 0.731742 0)
(8.03997 0.748498 0)
(7.95182 0.764353 0)
(7.86202 0.779338 0)
(7.7706 0.79367 0)
(7.67756 0.807648 0)
(7.58291 0.821556 0)
(7.48663 0.835612 0)
(7.38868 0.849955 0)
(7.28902 0.864663 0)
(7.18761 0.879771 0)
(7.08439 0.895295 0)
(6.97932 0.911238 0)
(6.87233 0.927598 0)
(6.76337 0.944371 0)
(6.6524 0.961551 0)
(6.53935 0.979129 0)
(6.42418 0.997095 0)
(6.30683 1.01544 0)
(6.18726 1.03414 0)
(6.06541 1.05319 0)
(5.94123 1.07257 0)
(5.81469 1.09226 0)
(5.68574 1.11223 0)
(5.55433 1.13246 0)
(5.42043 1.15292 0)
(5.28401 1.17358 0)
(5.14504 1.19441 0)
(5.00348 1.21536 0)
(4.85932 1.2364 0)
(4.71254 1.25748 0)
(4.56312 1.27856 0)
(4.41106 1.2996 0)
(4.25635 1.32053 0)
(4.09902 1.34131 0)
(3.93906 1.36187 0)
(3.7765 1.38217 0)
(3.61137 1.40213 0)
(3.44372 1.42169 0)
(3.27358 1.4408 0)
(3.10102 1.45938 0)
(2.92611 1.47736 0)
(2.74892 1.49469 0)
(2.56955 1.51128 0)
(2.3881 1.52708 0)
(2.20468 1.542 0)
(2.0194 1.556 0)
(1.83241 1.56899 0)
(1.64385 1.58092 0)
(1.45385 1.59172 0)
(1.26259 1.60133 0)
(1.07021 1.60969 0)
(0.876881 1.61675 0)
(0.682782 1.62246 0)
(0.488063 1.62675 0)
(0.292954 1.62986 0)
(0.0974478 1.62909 0)
(9.95164 0.0112821 0)
(10.032 0.0336725 0)
(9.98774 0.0553012 0)
(9.99261 0.0762549 0)
(9.98732 0.0964399 0)
(9.9752 0.115999 0)
(9.96122 0.13551 0)
(9.94627 0.155167 0)
(9.92985 0.174636 0)
(9.91144 0.193734 0)
(9.89073 0.21268 0)
(9.86778 0.231643 0)
(9.84282 0.250422 0)
(9.816 0.26873 0)
(9.78728 0.286637 0)
(9.75662 0.304569 0)
(9.72402 0.322884 0)
(9.68958 0.341573 0)
(9.6533 0.360359 0)
(9.61511 0.379005 0)
(9.57499 0.397468 0)
(9.53297 0.415813 0)
(9.48914 0.434045 0)
(9.44354 0.452066 0)
(9.39612 0.469792 0)
(9.34682 0.487292 0)
(9.29563 0.504779 0)
(9.24259 0.52243 0)
(9.18774 0.540206 0)
(9.13108 0.557878 0)
(9.07266 0.575273 0)
(9.01254 0.592497 0)
(8.95075 0.609916 0)
(8.88723 0.627857 0)
(8.82178 0.646322 0)
(8.75422 0.664978 0)
(8.68449 0.683436 0)
(8.61262 0.701583 0)
(8.53873 0.719676 0)
(8.46289 0.738154 0)
(8.38507 0.757307 0)
(8.30518 0.777057 0)
(8.22319 0.79698 0)
(8.13911 0.816515 0)
(8.05306 0.835208 0)
(7.9652 0.852864 0)
(7.87565 0.86956 0)
(7.7845 0.885559 0)
(7.69177 0.901188 0)
(7.59748 0.916752 0)
(7.50158 0.932482 0)
(7.40404 0.948527 0)
(7.30481 0.964975 0)
(7.20384 0.981869 0)
(7.10106 0.999229 0)
(6.99643 1.01706 0)
(6.88988 1.03536 0)
(6.78136 1.05413 0)
(6.67082 1.07336 0)
(6.55819 1.09305 0)
(6.44343 1.11317 0)
(6.32647 1.13372 0)
(6.20728 1.15469 0)
(6.08579 1.17605 0)
(5.96195 1.19778 0)
(5.83573 1.21987 0)
(5.70707 1.24229 0)
(5.57593 1.265 0)
(5.44227 1.28799 0)
(5.30605 1.3112 0)
(5.16723 1.33462 0)
(5.0258 1.35818 0)
(4.88172 1.38186 0)
(4.73496 1.40559 0)
(4.58553 1.42934 0)
(4.43339 1.45304 0)
(4.27856 1.47664 0)
(4.12104 1.50008 0)
(3.96084 1.52328 0)
(3.79797 1.54619 0)
(3.63246 1.56873 0)
(3.46436 1.59084 0)
(3.2937 1.61243 0)
(3.12055 1.63343 0)
(2.94497 1.65376 0)
(2.76705 1.67335 0)
(2.58686 1.69211 0)
(2.40452 1.70997 0)
(2.22013 1.72685 0)
(2.03382 1.74266 0)
(1.84571 1.75733 0)
(1.65597 1.77079 0)
(1.46472 1.78297 0)
(1.27215 1.7938 0)
(1.0784 1.80321 0)
(0.883657 1.81115 0)
(0.688099 1.81758 0)
(0.491886 1.8224 0)
(0.295259 1.82588 0)
(0.0982175 1.82503 0)
(9.9497 0.00954559 0)
(10.0304 0.0336321 0)
(9.98518 0.0580327 0)
(9.98983 0.081409 0)
(9.98462 0.104238 0)
(9.97264 0.126864 0)
(9.95884 0.149028 0)
(9.94423 0.170506 0)
(9.9282 0.191523 0)
(9.91004 0.212528 0)
(9.8895 0.233733 0)
(9.8668 0.25497 0)
(9.84222 0.275968 0)
(9.81572 0.296682 0)
(9.78703 0.317279 0)
(9.756 0.33788 0)
(9.72279 0.358413 0)
(9.68772 0.378729 0)
(9.65101 0.398796 0)
(9.61269 0.418745 0)
(9.57264 0.438734 0)
(9.53081 0.458814 0)
(9.48718 0.478891 0)
(9.44178 0.4988 0)
(9.3946 0.518427 0)
(9.34567 0.537823 0)
(9.29508 0.557203 0)
(9.24288 0.576802 0)
(9.18904 0.596647 0)
(9.1334 0.61649 0)
(9.07575 0.636028 0)
(9.01601 0.655226 0)
(8.95428 0.674418 0)
(8.89077 0.69405 0)
(8.82565 0.714291 0)
(8.75896 0.734873 0)
(8.69061 0.755335 0)
(8.62046 0.775434 0)
(8.54834 0.795368 0)
(8.4741 0.815625 0)
(8.39758 0.836599 0)
(8.31869 0.858273 0)
(8.23739 0.880194 0)
(8.15378 0.90171 0)
(8.06804 0.922279 0)
(7.98038 0.941667 0)
(7.89101 0.959968 0)
(7.80007 0.977494 0)
(7.70762 0.99463 0)
(7.61367 1.01172 0)
(7.51817 1.02903 0)
(7.42109 1.04671 0)
(7.32234 1.06486 0)
(7.22186 1.08351 0)
(7.11958 1.1027 0)
(7.01545 1.12242 0)
(6.9094 1.14266 0)
(6.80138 1.16344 0)
(6.69132 1.18473 0)
(6.57916 1.20652 0)
(6.46486 1.22882 0)
(6.34835 1.25159 0)
(6.22959 1.27484 0)
(6.10851 1.29853 0)
(5.98506 1.32264 0)
(5.8592 1.34716 0)
(5.73088 1.37205 0)
(5.60004 1.39728 0)
(5.46665 1.42282 0)
(5.33066 1.44863 0)
(5.19204 1.47467 0)
(5.05075 1.5009 0)
(4.90676 1.52725 0)
(4.76005 1.55369 0)
(4.6106 1.58016 0)
(4.4584 1.60659 0)
(4.30344 1.63291 0)
(4.14571 1.65907 0)
(3.98524 1.68498 0)
(3.82202 1.71058 0)
(3.6561 1.73577 0)
(3.4875 1.76049 0)
(3.31627 1.78464 0)
(3.14246 1.80814 0)
(2.96614 1.83091 0)
(2.78738 1.85284 0)
(2.60629 1.87385 0)
(2.42295 1.89385 0)
(2.23747 1.91274 0)
(2.05 1.93045 0)
(1.86065 1.94688 0)
(1.66957 1.96195 0)
(1.47693 1.97558 0)
(1.28288 1.98768 0)
(1.0876 1.99821 0)
(0.891269 2.00708 0)
(0.694072 2.01426 0)
(0.496182 2.01964 0)
(0.297848 2.02353 0)
(0.0990822 2.0226 0)
(9.94993 0.0131391 0)
(10.0286 0.0398753 0)
(9.98281 0.0647865 0)
(9.98588 0.0895999 0)
(9.97935 0.114534 0)
(9.96683 0.139059 0)
(9.95294 0.162904 0)
(9.93804 0.186241 0)
(9.92126 0.209454 0)
(9.90211 0.232753 0)
(9.88061 0.256045 0)
(9.85706 0.279102 0)
(9.83171 0.301819 0)
(9.80468 0.324299 0)
(9.77606 0.346714 0)
(9.74584 0.369109 0)
(9.71399 0.391399 0)
(9.6804 0.413513 0)
(9.64494 0.435488 0)
(9.60761 0.457413 0)
(9.56847 0.479331 0)
(9.52768 0.50122 0)
(9.48534 0.523011 0)
(9.44142 0.544606 0)
(9.39577 0.565896 0)
(9.34816 0.586862 0)
(9.29845 0.607663 0)
(9.24662 0.628588 0)
(9.1928 0.649836 0)
(9.13716 0.671343 0)
(9.07981 0.692847 0)
(9.02076 0.714163 0)
(8.95991 0.735366 0)
(8.89713 0.756707 0)
(8.83237 0.778343 0)
(8.76568 0.800195 0)
(8.69723 0.822071 0)
(8.62715 0.843945 0)
(8.55548 0.866089 0)
(8.48212 0.888929 0)
(8.40682 0.912707 0)
(8.32931 0.937224 0)
(8.24938 0.961862 0)
(8.167 0.985852 0)
(8.0823 1.0086 0)
(7.99549 1.02989 0)
(7.90683 1.04988 0)
(7.8165 1.06896 0)
(7.72463 1.0876 0)
(7.63123 1.1062 0)
(7.5363 1.12506 0)
(7.43977 1.14437 0)
(7.34158 1.16421 0)
(7.24167 1.18462 0)
(7.13996 1.20563 0)
(7.03639 1.22724 0)
(6.9309 1.24944 0)
(6.82343 1.27222 0)
(6.71391 1.29558 0)
(6.60228 1.3195 0)
(6.4885 1.34398 0)
(6.37249 1.369 0)
(6.25421 1.39454 0)
(6.13359 1.42058 0)
(6.01059 1.4471 0)
(5.88514 1.47407 0)
(5.75719 1.50146 0)
(5.6267 1.52925 0)
(5.49362 1.55738 0)
(5.3579 1.58583 0)
(5.2195 1.61454 0)
(5.07838 1.64348 0)
(4.93452 1.67257 0)
(4.78787 1.70177 0)
(4.63843 1.73101 0)
(4.48616 1.76023 0)
(4.33106 1.78935 0)
(4.17312 1.8183 0)
(4.01236 1.847 0)
(3.84878 1.87536 0)
(3.6824 1.90329 0)
(3.51325 1.9307 0)
(3.34139 1.95751 0)
(3.16685 1.9836 0)
(2.98971 2.00887 0)
(2.81004 2.03324 0)
(2.62793 2.05659 0)
(2.44347 2.07882 0)
(2.2568 2.09983 0)
(2.06802 2.11952 0)
(1.87728 2.13779 0)
(1.68473 2.15454 0)
(1.49052 2.16969 0)
(1.29483 2.18316 0)
(1.09785 2.19485 0)
(0.89974 2.20471 0)
(0.700718 2.21269 0)
(0.50096 2.21866 0)
(0.300728 2.22298 0)
(0.100044 2.222 0)
(9.93895 0.0133087 0)
(10.0162 0.0429327 0)
(9.97061 0.0702011 0)
(9.97551 0.0971611 0)
(9.97041 0.124216 0)
(9.95873 0.150799 0)
(9.94549 0.176726 0)
(9.93145 0.202298 0)
(9.91597 0.227796 0)
(9.89842 0.253261 0)
(9.87855 0.278556 0)
(9.85633 0.303485 0)
(9.83191 0.327938 0)
(9.8055 0.35199 0)
(9.77735 0.375859 0)
(9.74757 0.399746 0)
(9.71613 0.423709 0)
(9.68289 0.44768 0)
(9.64774 0.471556 0)
(9.61071 0.495259 0)
(9.57185 0.518755 0)
(9.53116 0.542062 0)
(9.4886 0.565259 0)
(9.44415 0.588451 0)
(9.39788 0.611721 0)
(9.34989 0.635121 0)
(9.3002 0.658678 0)
(9.24873 0.68236 0)
(9.19538 0.706009 0)
(9.14013 0.729373 0)
(9.08309 0.752313 0)
(9.02439 0.775007 0)
(8.96409 0.797923 0)
(8.90205 0.821471 0)
(8.83809 0.84564 0)
(8.77202 0.869957 0)
(8.70386 0.893865 0)
(8.6338 0.917214 0)
(8.5621 0.940449 0)
(8.48892 0.964339 0)
(8.41424 0.989447 0)
(8.33784 1.01572 0)
(8.25941 1.04248 0)
(8.1787 1.06876 0)
(8.09564 1.09375 0)
(8.01032 1.11709 0)
(7.92293 1.13892 0)
(7.83367 1.15967 0)
(7.7427 1.17988 0)
(7.6501 1.20004 0)
(7.5559 1.22048 0)
(7.46006 1.24141 0)
(7.36254 1.26295 0)
(7.26327 1.28513 0)
(7.1622 1.30797 0)
(7.05926 1.33148 0)
(6.95438 1.35563 0)
(6.84752 1.38043 0)
(6.7386 1.40587 0)
(6.62757 1.43193 0)
(6.51436 1.45861 0)
(6.39891 1.48589 0)
(6.28117 1.51374 0)
(6.16107 1.54215 0)
(6.03855 1.5711 0)
(5.91357 1.60056 0)
(5.78605 1.63049 0)
(5.65596 1.66086 0)
(5.52323 1.69163 0)
(5.38782 1.72276 0)
(5.24968 1.7542 0)
(5.10877 1.78589 0)
(4.96505 1.81778 0)
(4.81849 1.84981 0)
(4.66906 1.8819 0)
(4.51674 1.91398 0)
(4.36151 1.94597 0)
(4.20336 1.97779 0)
(4.04229 2.00936 0)
(3.87832 2.04057 0)
(3.71145 2.07133 0)
(3.54172 2.10153 0)
(3.36917 2.13108 0)
(3.19384 2.15986 0)
(3.0158 2.18775 0)
(2.83512 2.21466 0)
(2.65189 2.24045 0)
(2.46621 2.26501 0)
(2.2782 2.28823 0)
(2.08798 2.31 0)
(1.8957 2.33021 0)
(1.70151 2.34874 0)
(1.50558 2.3655 0)
(1.30807 2.38039 0)
(1.10919 2.39333 0)
(0.90912 2.40424 0)
(0.708077 2.41306 0)
(0.506251 2.41967 0)
(0.303917 2.42444 0)
(0.101109 2.42342 0)
(9.95005 0.0180064 0)
(10.0277 0.046286 0)
(9.98165 0.0747699 0)
(9.98528 0.103497 0)
(9.97919 0.132633 0)
(9.96702 0.161517 0)
(9.95335 0.189349 0)
(9.93832 0.21628 0)
(9.92112 0.243152 0)
(9.90158 0.270568 0)
(9.88007 0.29839 0)
(9.85687 0.326039 0)
(9.832 0.353026 0)
(9.80531 0.379267 0)
(9.77683 0.405022 0)
(9.74682 0.430643 0)
(9.71549 0.456335 0)
(9.6828 0.482089 0)
(9.64847 0.507784 0)
(9.61223 0.533365 0)
(9.574 0.558901 0)
(9.53383 0.584484 0)
(9.49175 0.610063 0)
(9.44772 0.635409 0)
(9.40174 0.660295 0)
(9.35395 0.68474 0)
(9.30456 0.709068 0)
(9.25368 0.733684 0)
(9.20123 0.758719 0)
(9.14699 0.783914 0)
(9.09077 0.808865 0)
(9.03253 0.833448 0)
(8.97239 0.857985 0)
(8.91052 0.882969 0)
(8.84703 0.90861 0)
(8.78184 0.934619 0)
(8.71482 0.960458 0)
(8.64583 0.985855 0)
(8.57485 1.01111 0)
(8.50198 1.03693 0)
(8.42733 1.06393 0)
(8.35097 1.0922 0)
(8.27284 1.12112 0)
(8.19281 1.14971 0)
(8.11073 1.17705 0)
(8.02655 1.20265 0)
(7.94032 1.22656 0)
(7.85216 1.2492 0)
(7.76218 1.27117 0)
(7.67048 1.29301 0)
(7.57709 1.31511 0)
(7.48202 1.33773 0)
(7.38523 1.361 0)
(7.28667 1.38496 0)
(7.1863 1.40965 0)
(7.08405 1.43505 0)
(6.97986 1.46118 0)
(6.87367 1.488 0)
(6.76541 1.51553 0)
(6.65503 1.54375 0)
(6.54245 1.57264 0)
(6.42763 1.60219 0)
(6.31048 1.63239 0)
(6.19096 1.6632 0)
(6.06899 1.6946 0)
(5.94453 1.72658 0)
(5.8175 1.75908 0)
(5.68785 1.79208 0)
(5.55552 1.82553 0)
(5.42047 1.85939 0)
(5.28263 1.89361 0)
(5.14197 1.92812 0)
(4.99843 1.96287 0)
(4.85199 1.99778 0)
(4.70259 2.03279 0)
(4.55023 2.06781 0)
(4.39487 2.10276 0)
(4.23651 2.13754 0)
(4.07513 2.17207 0)
(3.91075 2.20623 0)
(3.74336 2.23992 0)
(3.57301 2.27302 0)
(3.39971 2.30542 0)
(3.22353 2.337 0)
(3.04451 2.36763 0)
(2.86273 2.39718 0)
(2.67829 2.42553 0)
(2.49127 2.45254 0)
(2.3018 2.47809 0)
(2.11 2.50205 0)
(1.91603 2.5243 0)
(1.72003 2.54471 0)
(1.52219 2.56317 0)
(1.32268 2.57958 0)
(1.12171 2.59384 0)
(0.919471 2.60586 0)
(0.716197 2.61558 0)
(0.512089 2.62287 0)
(0.307435 2.62813 0)
(0.102284 2.62707 0)
(9.94548 0.0173242 0)
(10.0255 0.0507494 0)
(9.97985 0.0825014 0)
(9.98461 0.113205 0)
(9.98003 0.143379 0)
(9.96937 0.173443 0)