/*--------------------------------*- C++ -*----------------------------------*\
| =========                 |                                                 |
| \\      /  F ield         | OpenFOAM: The Open Source CFD Toolbox           |
|  \\    /   O peration     | Version:  4.1                                   |
|   \\  /    A nd           | Web:      www.OpenFOAM.org                      |
|    \\/     M anipulation  |                                                 |
\*---------------------------------------------------------------------------*/
FoamFile
{
    version     2.0;
    format      ascii;
    class       volSymmTensorField;
    location    "0.1";
    object      UPrime2Mean;
}
// * * * * * * * * * * * * * * * * * * * * * * * * * * * * * * * * * * * * * //

dimensions      [0 2 -2 0 0 0 0];

internalField   nonuniform List<symmTensor> 
43750
(
(0.0751003 0.00241878 0 0.00991182 0 0)
(0.0339214 0.00309356 0 0.0032378 0 0)
(0.0114473 0.000699507 0 0.00135605 0 0)
(0.00410978 0.000299589 0 0.000746229 0 0)
(0.00319624 7.03379e-05 0 0.000471787 0 0)
(0.00355415 -8.61346e-05 0 0.000362734 0 0)
(0.00418209 -0.000136603 0 0.000345937 0 0)
(0.004791 -0.000160182 0 0.00035219 0 0)
(0.00560252 -0.000213213 0 0.000349473 0 0)
(0.00676974 -0.000278312 0 0.000336713 0 0)
(0.00829519 -0.000323896 0 0.000319089 0 0)
(0.0100958 -0.000342672 0 0.000303037 0 0)
(0.0120956 -0.00034565 0 0.000292918 0 0)
(0.0142593 -0.000343955 0 0.000288093 0 0)
(0.0165592 -0.00034041 0 0.000285789 0 0)
(0.0189463 -0.000331212 0 0.000284705 0 0)
(0.0213847 -0.000312129 0 0.000284866 0 0)
(0.0238851 -0.00027802 0 0.000286183 0 0)
(0.0264585 -0.000221325 0 0.000287375 0 0)
(0.0290697 -0.000135298 0 0.000283699 0 0)
(0.0316496 -1.48662e-05 0 0.000270614 0 0)
(0.0341294 0.000138049 0 0.00025292 0 0)
(0.03647 0.000311611 0 0.000239537 0 0)
(0.0386575 0.000499932 0 0.000231443 0 0)
(0.0406591 0.000711122 0 0.000223357 0 0)
(0.0423992 0.000948559 0 0.000212511 0 0)
(0.0437873 0.00118636 0 0.000205016 0 0)
(0.0447752 0.00137198 0 0.000206741 0 0)
(0.0453831 0.00147508 0 0.000210401 0 0)
(0.0456478 0.00153332 0 0.000211127 0 0)
(0.0455451 0.00162617 0 0.000215815 0 0)
(0.044982 0.00180226 0 0.000224113 0 0)
(0.0438718 0.00202759 0 0.000232388 0 0)
(0.0422269 0.00219812 0 0.000243862 0 0)
(0.0401728 0.00223004 0 0.000251151 0 0)
(0.0378447 0.00214539 0 0.000245135 0 0)
(0.0352692 0.0020507 0 0.000239853 0 0)
(0.0323485 0.00204384 0 0.000250072 0 0)
(0.0289496 0.00214171 0 0.000269196 0 0)
(0.0250389 0.00225897 0 0.000290687 0 0)
(0.0207932 0.00225302 0 0.00031261 0 0)
(0.0165873 0.00203189 0 0.000316284 0 0)
(0.0128269 0.001633 0 0.000278796 0 0)
(0.00975591 0.00118532 0 0.000206312 0 0)
(0.00739494 0.000805416 0 0.000130228 0 0)
(0.00561957 0.000538146 0 7.544e-05 0 0)
(0.00427305 0.000369683 0 4.57738e-05 0 0)
(0.0032324 0.000265818 0 3.29592e-05 0 0)
(0.00242263 0.00019658 0 2.8385e-05 0 0)
(0.00180578 0.000142887 0 2.7125e-05 0 0)
(0.00136586 9.4731e-05 0 2.70671e-05 0 0)
(0.0010976 4.77181e-05 0 2.74099e-05 0 0)
(0.000999776 3.24103e-07 0 2.7855e-05 0 0)
(0.00107214 -4.77671e-05 0 2.82943e-05 0 0)
(0.00131418 -9.64708e-05 0 2.86929e-05 0 0)
(0.00172487 -0.0001456 0 2.90387e-05 0 0)
(0.00230263 -0.00019494 0 2.93245e-05 0 0)
(0.0030453 -0.000244249 0 2.95416e-05 0 0)
(0.00395016 -0.000293252 0 2.96803e-05 0 0)
(0.00501385 -0.000341633 0 2.97299e-05 0 0)
(0.00623231 -0.000389039 0 2.96799e-05 0 0)
(0.00760062 -0.000435076 0 2.95203e-05 0 0)
(0.00911291 -0.00047931 0 2.92417e-05 0 0)
(0.0107621 -0.000521234 0 2.88313e-05 0 0)
(0.0125398 -0.000560203 0 2.82671e-05 0 0)
(0.0144359 -0.000595367 0 2.75141e-05 0 0)
(0.0164391 -0.000625654 0 2.65327e-05 0 0)
(0.0185364 -0.000649764 0 2.52831e-05 0 0)
(0.0207131 -0.000666415 0 2.37558e-05 0 0)
(0.0229522 -0.00067447 0 2.19703e-05 0 0)
(0.0252333 -0.000672717 0 1.99481e-05 0 0)
(0.0275336 -0.000659811 0 1.77116e-05 0 0)
(0.0298269 -0.000634318 0 1.52934e-05 0 0)
(0.0320839 -0.000594776 0 1.27456e-05 0 0)
(0.0342717 -0.000539715 0 1.01436e-05 0 0)
(0.036354 -0.000467715 0 7.5917e-06 0 0)
(0.0382908 -0.00037748 0 5.22859e-06 0 0)
(0.040039 -0.000267967 0 3.23408e-06 0 0)
(0.0415528 -0.000138504 0 1.83413e-06 0 0)
(0.0427842 1.10663e-05 0 1.30422e-06 0 0)
(0.0436847 0.000180244 0 1.97006e-06 0 0)
(0.0442062 0.00036769 0 4.20529e-06 0 0)
(0.0443033 0.00057104 0 8.42359e-06 0 0)
(0.0439358 0.000786726 0 1.50634e-05 0 0)
(0.0430713 0.00100985 0 2.4564e-05 0 0)
(0.0416886 0.00123413 0 3.73331e-05 0 0)
(0.0397808 0.00145192 0 5.37062e-05 0 0)
(0.0373592 0.00165442 0 7.38996e-05 0 0)
(0.0344555 0.0018319 0 9.79611e-05 0 0)
(0.0311246 0.00197415 0 0.000125721 0 0)
(0.0274455 0.00207112 0 0.000156753 0 0)
(0.023521 0.00211357 0 0.00019035 0 0)
(0.0194756 0.00209387 0 0.000225525 0 0)
(0.0154515 0.00200681 0 0.00026104 0 0)
(0.0116024 0.0018502 0 0.000295448 0 0)
(0.00808587 0.00162564 0 0.000327241 0 0)
(0.00505366 0.00133835 0 0.000354856 0 0)
(0.002644 0.000998059 0 0.000377186 0 0)
(0.000967527 0.000616981 0 0.000393892 0 0)
(0.000108997 0.000208719 0 0.000400114 0 0)
(0.0810309 0.000886677 0 0.01312 0 0)
(0.0292974 0.00402857 0 0.00421269 0 0)
(0.0115067 0.000452312 0 0.00176759 0 0)
(0.00410223 0.000525058 0 0.0011792 0 0)
(0.00342333 0.000253992 0 0.00101453 0 0)
(0.00414972 -0.000142983 0 0.000954085 0 0)
(0.00511448 -0.000462675 0 0.000890361 0 0)
(0.00609055 -0.000701921 0 0.00081257 0 0)
(0.00735483 -0.000888206 0 0.000756019 0 0)
(0.00903502 -0.00105742 0 0.000739015 0 0)
(0.0111229 -0.00123494 0 0.000731492 0 0)
(0.0135675 -0.00141583 0 0.000708926 0 0)
(0.0163355 -0.00158362 0 0.000691274 0 0)
(0.019418 -0.00172868 0 0.000681211 0 0)
(0.0228114 -0.00184577 0 0.000647085 0 0)
(0.0264984 -0.00192679 0 0.000598638 0 0)
(0.0304123 -0.00198244 0 0.000572438 0 0)
(0.0344274 -0.0020549 0 0.000563063 0 0)
(0.038466 -0.00215718 0 0.000551044 0 0)
(0.0426113 -0.00224161 0 0.000538919 0 0)
(0.047015 -0.00227261 0 0.000529912 0 0)
(0.0517264 -0.00226655 0 0.00052157 0 0)
(0.0566779 -0.00225003 0 0.00051273 0 0)
(0.06178 -0.00222496 0 0.000503083 0 0)
(0.0670008 -0.0021649 0 0.000493835 0 0)
(0.0723706 -0.00203827 0 0.000483054 0 0)
(0.0778985 -0.00183602 0 0.000464895 0 0)
(0.0835007 -0.00156546 0 0.000437515 0 0)
(0.0890189 -0.00123075 0 0.000404349 0 0)
(0.0943156 -0.000833737 0 0.0003694 0 0)
(0.0993878 -0.000387677 0 0.000336294 0 0)
(0.10437 7.98613e-05 0 0.000309152 0 0)
(0.109369 0.000545849 0 0.000290486 0 0)
(0.114314 0.00101291 0 0.000278904 0 0)
(0.118971 0.00151193 0 0.000270104 0 0)
(0.123088 0.00208756 0 0.000258672 0 0)
(0.126603 0.00276623 0 0.000240664 0 0)
(0.12972 0.00352177 0 0.000218973 0 0)
(0.132742 0.00427901 0 0.000204521 0 0)
(0.135788 0.00495472 0 0.000207477 0 0)
(0.138668 0.00548564 0 0.000226845 0 0)
(0.14095 0.00582658 0 0.000249667 0 0)
(0.142119 0.00595104 0 0.000260939 0 0)
(0.141766 0.0058699 0 0.000254964 0 0)
(0.139745 0.00564174 0 0.000237348 0 0)
(0.136226 0.00535128 0 0.000217668 0 0)
(0.131604 0.00507125 0 0.000202198 0 0)
(0.126333 0.00483877 0 0.000192367 0 0)
(0.12079 0.00465735 0 0.00018691 0 0)
(0.11523 0.00451289 0 0.000184046 0 0)
(0.109792 0.00438868 0 0.000182406 0 0)
(0.104538 0.00427267 0 0.000181155 0 0)
(0.0994902 0.00415858 0 0.000179868 0 0)
(0.0946506 0.00404423 0 0.000178382 0 0)
(0.0900152 0.00392943 0 0.000176672 0 0)
(0.0855781 0.0038147 0 0.000174758 0 0)
(0.0813327 0.00370056 0 0.00017267 0 0)
(0.0772724 0.00358736 0 0.000170427 0 0)
(0.0733903 0.00347529 0 0.000168041 0 0)
(0.0696794 0.00336437 0 0.000165511 0 0)
(0.0661326 0.00325458 0 0.000162833 0 0)
(0.0627427 0.0031458 0 0.000159998 0 0)
(0.0595025 0.00303785 0 0.000156991 0 0)
(0.0564043 0.0029304 0 0.000153785 0 0)
(0.0534404 0.00282293 0 0.000150331 0 0)
(0.0506033 0.00271476 0 0.000146564 0 0)
(0.0478854 0.00260519 0 0.00014241 0 0)
(0.0452801 0.00249355 0 0.000137798 0 0)
(0.0427813 0.00237955 0 0.000132696 0 0)
(0.0403824 0.00226311 0 0.000127099 0 0)
(0.0380763 0.00214386 0 0.000120983 0 0)
(0.0358564 0.00202125 0 0.000114305 0 0)
(0.0337165 0.00189467 0 0.000107021 0 0)
(0.0316508 0.00176357 0 9.91017e-05 0 0)
(0.0296539 0.00162747 0 9.05408e-05 0 0)
(0.0277207 0.001486 0 8.13608e-05 0 0)
(0.0258471 0.0013389 0 7.16276e-05 0 0)
(0.0240291 0.00118614 0 6.14642e-05 0 0)
(0.0222636 0.00102791 0 5.10668e-05 0 0)
(0.0205485 0.000864733 0 4.07191e-05 0 0)
(0.018882 0.000697446 0 3.08064e-05 0 0)
(0.0172635 0.000527292 0 2.1827e-05 0 0)
(0.0156932 0.000355946 0 1.43983e-05 0 0)
(0.0141723 0.000185554 0 9.25439e-06 0 0)
(0.0127026 1.87425e-05 0 7.22887e-06 0 0)
(0.0112872 -0.0001414 0 9.21951e-06 0 0)
(0.00992986 -0.000291397 0 1.61312e-05 0 0)
(0.00863498 -0.000427488 0 2.87969e-05 0 0)
(0.00740775 -0.000545786 0 4.78794e-05 0 0)
(0.00625385 -0.00064246 0 7.37579e-05 0 0)
(0.0051793 -0.00071397 0 0.000106412 0 0)
(0.0041903 -0.000757316 0 0.000145316 0 0)
(0.00329304 -0.000770296 0 0.000189368 0 0)
(0.00249356 -0.000751768 0 0.00023687 0 0)
(0.00179738 -0.000701807 0 0.000285567 0 0)
(0.00120974 -0.00062196 0 0.000332803 0 0)
(0.00073459 -0.000514934 0 0.000375537 0 0)
(0.000375876 -0.000385413 0 0.000411189 0 0)
(0.000135372 -0.000238093 0 0.000435835 0 0)
(1.41256e-05 -7.82229e-05 0 0.000451788 0 0)
(0.079784 7.40666e-05 0 0.0159317 0 0)
(0.0312539 0.00472864 0 0.00640662 0 0)
(0.0123781 0.000452187 0 0.00316624 0 0)
(0.00480052 0.000720608 0 0.00213576 0 0)
(0.00392078 0.000327018 0 0.00174971 0 0)
(0.00431072 -0.000397567 0 0.00161434 0 0)
(0.00500355 -0.000954269 0 0.00160423 0 0)
(0.00577386 -0.00131964 0 0.00164402 0 0)
(0.00681766 -0.00162561 0 0.00168657 0 0)
(0.00825149 -0.00196369 0 0.00172311 0 0)
(0.0100729 -0.00234398 0 0.00175019 0 0)
(0.0122024 -0.00272875 0 0.00177172 0 0)
(0.0145651 -0.00308148 0 0.00179467 0 0)
(0.0171633 -0.00339123 0 0.00181662 0 0)
(0.0200371 -0.00366439 0 0.00181863 0 0)
(0.0231797 -0.00391338 0 0.00175949 0 0)
(0.026549 -0.00412755 0 0.00161277 0 0)
(0.0300867 -0.00426872 0 0.00143956 0 0)
(0.0337029 -0.00434421 0 0.00133438 0 0)
(0.037313 -0.00441711 0 0.00130069 0 0)
(0.040884 -0.00450543 0 0.00128713 0 0)
(0.0444099 -0.00454692 0 0.00126864 0 0)
(0.0478607 -0.00448023 0 0.00123126 0 0)
(0.0511775 -0.00431385 0 0.00117644 0 0)
(0.0543245 -0.0041092 0 0.00112799 0 0)
(0.0573455 -0.00390478 0 0.00109397 0 0)
(0.0603583 -0.00367451 0 0.00106124 0 0)
(0.0634787 -0.00338067 0 0.00101473 0 0)
(0.0667454 -0.0030374 0 0.000952964 0 0)
(0.0701053 -0.00269506 0 0.000894619 0 0)
(0.0734445 -0.00238589 0 0.000854091 0 0)
(0.0766214 -0.00209399 0 0.000825494 0 0)
(0.079493 -0.00175923 0 0.000796194 0 0)
(0.0819512 -0.00131845 0 0.000754667 0 0)
(0.0839707 -0.000771189 0 0.000699928 0 0)
(0.0856352 -0.000205129 0 0.000651158 0 0)
(0.0871035 0.000268347 0 0.000624477 0 0)
(0.0885214 0.000613322 0 0.000611765 0 0)
(0.089935 0.000898991 0 0.000601022 0 0)
(0.0912585 0.001242 0 0.000589912 0 0)
(0.092299 0.00173348 0 0.000570228 0 0)
(0.0928053 0.00239893 0 0.000530728 0 0)
(0.0925316 0.0031896 0 0.000477997 0 0)
(0.0913133 0.00400079 0 0.000434272 0 0)
(0.0891313 0.00471321 0 0.000415682 0 0)
(0.0861242 0.0052386 0 0.000420807 0 0)
(0.0825362 0.00554548 0 0.000436959 0 0)
(0.0786332 0.00565525 0 0.000451726 0 0)
(0.0746366 0.00561878 0 0.000459059 0 0)
(0.0706962 0.00549123 0 0.000458712 0 0)
(0.0668957 0.0053164 0 0.000453025 0 0)
(0.0632724 0.00512232 0 0.000444416 0 0)
(0.0598374 0.00492402 0 0.000434468 0 0)
(0.0565899 0.0047283 0 0.00042397 0 0)
(0.0535248 0.00453776 0 0.000413244 0 0)
(0.0506358 0.00435324 0 0.000402401 0 0)
(0.0479168 0.00417502 0 0.000391479 0 0)
(0.0453619 0.00400322 0 0.000380499 0 0)
(0.0429651 0.00383794 0 0.00036948 0 0)
(0.0407205 0.00367925 0 0.000358444 0 0)
(0.0386222 0.00352716 0 0.000347405 0 0)
(0.036664 0.00338164 0 0.000336374 0 0)
(0.0348397 0.00324253 0 0.000325351 0 0)
(0.0331429 0.00310968 0 0.000314332 0 0)
(0.0315672 0.0029829 0 0.000303319 0 0)
(0.0301061 0.00286207 0 0.000292325 0 0)
(0.0287534 0.00274703 0 0.00028137 0 0)
(0.0275025 0.00263761 0 0.000270474 0 0)
(0.0263469 0.00253333 0 0.000259622 0 0)
(0.0252795 0.00243353 0 0.000248765 0 0)
(0.0242928 0.00233746 0 0.000237849 0 0)
(0.0233792 0.00224441 0 0.000226827 0 0)
(0.0225311 0.00215363 0 0.000215651 0 0)
(0.0217404 0.00206429 0 0.000204274 0 0)
(0.0209987 0.00197551 0 0.000192644 0 0)
(0.0202969 0.00188633 0 0.000180712 0 0)
(0.0196258 0.00179575 0 0.000168436 0 0)
(0.0189753 0.00170278 0 0.000155787 0 0)
(0.0183351 0.00160644 0 0.000142759 0 0)
(0.0176942 0.00150585 0 0.000129376 0 0)
(0.0170413 0.00140028 0 0.000115697 0 0)
(0.0163653 0.00128919 0 0.000101829 0 0)
(0.0156548 0.00117236 0 8.79272e-05 0 0)
(0.0148994 0.00104992 0 7.42062e-05 0 0)
(0.0140897 0.000922531 0 6.09355e-05 0 0)
(0.013218 0.00079136 0 4.84335e-05 0 0)
(0.0122796 0.000658194 0 3.7052e-05 0 0)
(0.0112727 0.000525416 0 2.71507e-05 0 0)
(0.0102004 0.000395954 0 1.90651e-05 0 0)
(0.00907061 0.000273181 0 1.30705e-05 0 0)
(0.00789695 0.00016073 0 9.34208e-06 0 0)
(0.00669918 6.22429e-05 0 7.91977e-06 0 0)
(0.00550301 -1.89375e-05 0 8.68221e-06 0 0)
(0.00433937 -8.00911e-05 0 1.13364e-05 0 0)
(0.00324338 -0.000119504 0 1.5429e-05 0 0)
(0.00225224 -0.000136707 0 2.03805e-05 0 0)
(0.00140363 -0.000132608 0 2.55192e-05 0 0)
(0.0007318 -0.000109876 0 3.02236e-05 0 0)
(0.000267106 -7.1267e-05 0 3.31401e-05 0 0)
(2.86039e-05 -2.48324e-05 0 3.73829e-05 0 0)
(0.0788789 -0.00236956 0 0.0149677 0 0)
(0.0305255 0.00442949 0 0.0065382 0 0)
(0.0105611 -0.000656316 0 0.00345699 0 0)
(0.00413759 0.000302738 0 0.00264825 0 0)
(0.00365499 0.000120264 0 0.00252933 0 0)
(0.00424876 -0.000601311 0 0.00256746 0 0)
(0.00499938 -0.00125517 0 0.00259111 0 0)
(0.00572856 -0.00175049 0 0.00260374 0 0)
(0.00671382 -0.00219064 0 0.00265632 0 0)
(0.0080674 -0.0026445 0 0.00273663 0 0)
(0.00974004 -0.00311553 0 0.00280716 0 0)
(0.0116373 -0.00358292 0 0.00285727 0 0)
(0.0136981 -0.00403649 0 0.00289607 0 0)
(0.0159072 -0.00446964 0 0.00292849 0 0)
(0.0182839 -0.00484945 0 0.00295279 0 0)
(0.0208698 -0.00513574 0 0.00295494 0 0)
(0.0237006 -0.00533096 0 0.00291239 0 0)
(0.0267747 -0.00547382 0 0.00283007 0 0)
(0.0300503 -0.00559095 0 0.00273795 0 0)
(0.0334632 -0.00568092 0 0.00265537 0 0)
(0.0369462 -0.0057319 0 0.00258376 0 0)
(0.0404467 -0.00573631 0 0.00251888 0 0)
(0.0439312 -0.00569262 0 0.00245733 0 0)
(0.0473689 -0.00560334 0 0.00239786 0 0)
(0.0507228 -0.00547895 0 0.00234218 0 0)
(0.0539718 -0.00534172 0 0.00229304 0 0)
(0.0571384 -0.00521191 0 0.00224932 0 0)
(0.0602707 -0.00508067 0 0.00220672 0 0)
(0.0633835 -0.00490392 0 0.00216136 0 0)
(0.0664268 -0.00462456 0 0.00210113 0 0)
(0.0693088 -0.00419669 0 0.00200055 0 0)
(0.0719424 -0.00360578 0 0.00184347 0 0)
(0.0742814 -0.00288426 0 0.00164875 0 0)
(0.0763149 -0.0021022 0 0.00146108 0 0)
(0.0780289 -0.0013331 0 0.00131725 0 0)
(0.0793727 -0.00062217 0 0.00122511 0 0)
(0.0802665 2.82151e-05 0 0.0011695 0 0)
(0.0806394 0.000658615 0 0.00112995 0 0)
(0.0804693 0.0013351 0 0.0010895 0 0)
(0.0797892 0.00211297 0 0.0010348 0 0)
(0.0786514 0.00300082 0 0.000960891 0 0)
(0.0770806 0.00395072 0 0.000879049 0 0)
(0.0750655 0.00487606 0 0.000812819 0 0)
(0.0725917 0.00568103 0 0.000781229 0 0)
(0.0696845 0.00628941 0 0.00078548 0 0)
(0.0664258 0.00666529 0 0.000810713 0 0)
(0.0629362 0.00681782 0 0.000838083 0 0)
(0.0593426 0.00678918 0 0.000855134 0 0)
(0.0557511 0.00663439 0 0.000858356 0 0)
(0.0522367 0.00640395 0 0.000850041 0 0)
(0.0488454 0.00613513 0 0.000834186 0 0)
(0.0456022 0.00585119 0 0.000814109 0 0)
(0.0425192 0.00556481 0 0.000791856 0 0)
(0.0396006 0.0052821 0 0.000768465 0 0)
(0.0368467 0.0050058 0 0.000744394 0 0)
(0.0342552 0.00473714 0 0.000719836 0 0)
(0.0318228 0.00447674 0 0.000694885 0 0)
(0.0295449 0.00422502 0 0.000669602 0 0)
(0.0274169 0.00398229 0 0.000644041 0 0)
(0.0254335 0.0037488 0 0.000618255 0 0)
(0.0235892 0.00352476 0 0.000592294 0 0)
(0.0218784 0.00331033 0 0.000566209 0 0)
(0.0202954 0.0031056 0 0.000540052 0 0)
(0.0188343 0.00291067 0 0.000513879 0 0)
(0.0174893 0.00272558 0 0.000487753 0 0)
(0.0162542 0.00255034 0 0.000461741 0 0)
(0.0151232 0.00238489 0 0.00043591 0 0)
(0.0140903 0.00222907 0 0.000410317 0 0)
(0.0131495 0.00208262 0 0.000385007 0 0)
(0.0122946 0.00194524 0 0.000360024 0 0)
(0.0115196 0.00181661 0 0.000335429 0 0)
(0.0108185 0.00169642 0 0.0003113 0 0)
(0.0101853 0.00158428 0 0.000287718 0 0)
(0.00961387 0.00147974 0 0.00026477 0 0)
(0.00909829 0.00138229 0 0.000242543 0 0)
(0.00863246 0.00129136 0 0.00022113 0 0)
(0.00821033 0.00120634 0 0.000200621 0 0)
(0.00782576 0.00112659 0 0.000181103 0 0)
(0.00747252 0.00105141 0 0.000162658 0 0)
(0.00714423 0.000980149 0 0.000145363 0 0)
(0.00683435 0.000912138 0 0.000129289 0 0)
(0.00653618 0.000846772 0 0.000114501 0 0)
(0.00624286 0.000783516 0 0.000101051 0 0)
(0.00594751 0.000721937 0 8.89819e-05 0 0)
(0.00564333 0.000661733 0 7.83197e-05 0 0)
(0.00532388 0.00060275 0 6.90725e-05 0 0)
(0.00498341 0.000544985 0 6.12264e-05 0 0)
(0.00461733 0.000488592 0 5.47423e-05 0 0)
(0.00422273 0.000433847 0 4.95533e-05 0 0)
(0.00379897 0.00038112 0 4.55646e-05 0 0)
(0.00334828 0.000330822 0 4.2655e-05 0 0)
(0.00287622 0.000283356 0 4.06825e-05 0 0)
(0.00239207 0.000239048 0 3.94883e-05 0 0)
(0.00190869 0.000198107 0 3.89068e-05 0 0)
(0.00144233 0.000160574 0 3.87706e-05 0 0)
(0.00101129 0.000126275 0 3.89187e-05 0 0)
(0.000635467 9.49341e-05 0 3.92168e-05 0 0)
(0.000333132 6.58174e-05 0 3.95091e-05 0 0)
(0.000122142 3.9335e-05 0 3.97681e-05 0 0)
(1.29991e-05 1.23929e-05 0 4.16315e-05 0 0)
(0.0793631 -0.00234727 0 0.0152384 0 0)
(0.0292218 0.00531339 0 0.00683371 0 0)
(0.0107861 -0.0012631 0 0.00410628 0 0)
(0.00357494 0.000181964 0 0.00346357 0 0)
(0.00308861 -6.45911e-05 0 0.00336282 0 0)
(0.00371424 -0.00107405 0 0.00341764 0 0)
(0.0044981 -0.00193591 0 0.00352577 0 0)
(0.00527358 -0.00256521 0 0.00365103 0 0)
(0.00628753 -0.00310742 0 0.00379991 0 0)
(0.007697 -0.00366914 0 0.00395022 0 0)
(0.00949291 -0.00428109 0 0.00405445 0 0)
(0.0115895 -0.00490623 0 0.00409777 0 0)
(0.0139259 -0.00549059 0 0.00410997 0 0)
(0.0164775 -0.00600701 0 0.00412619 0 0)
(0.0192356 -0.00645852 0 0.00414428 0 0)
(0.0222038 -0.00685045 0 0.00413386 0 0)
(0.0253867 -0.007183 0 0.00406964 0 0)
(0.0287707 -0.0074633 0 0.00396399 0 0)
(0.032326 -0.00770241 0 0.00386281 0 0)
(0.0360186 -0.00790361 0 0.0037901 0 0)
(0.0398105 -0.00805462 0 0.00372903 0 0)
(0.0436485 -0.00812537 0 0.00364917 0 0)
(0.0474562 -0.0080781 0 0.00352398 0 0)
(0.0511404 -0.00789947 0 0.00335909 0 0)
(0.0546147 -0.00762918 0 0.00320258 0 0)
(0.0578238 -0.00733374 0 0.00309041 0 0)
(0.0607519 -0.00703915 0 0.00301182 0 0)
(0.0634168 -0.00670508 0 0.00293876 0 0)
(0.0658614 -0.00627538 0 0.00284948 0 0)
(0.0681407 -0.00574259 0 0.00273655 0 0)
(0.0702961 -0.00514883 0 0.00261337 0 0)
(0.0723279 -0.00452792 0 0.00249547 0 0)
(0.0741824 -0.00386208 0 0.0023792 0 0)
(0.0757615 -0.00309844 0 0.00224671 0 0)
(0.0769494 -0.00220564 0 0.00208811 0 0)
(0.0776523 -0.00122182 0 0.00192386 0 0)
(0.07784 -0.00024719 0 0.00179429 0 0)
(0.0775656 0.000628683 0 0.00171764 0 0)
(0.076938 0.00140477 0 0.00167718 0 0)
(0.0760527 0.0021718 0 0.00164474 0 0)
(0.0749316 0.00303862 0 0.0015941 0 0)
(0.073515 0.00405323 0 0.00150792 0 0)
(0.0717044 0.00517098 0 0.00139775 0 0)
(0.0694214 0.006272 0 0.00130533 0 0)
(0.0666541 0.00721148 0 0.00126779 0 0)
(0.0634699 0.00787889 0 0.00128608 0 0)
(0.0599952 0.00823562 0 0.00133095 0 0)
(0.0563749 0.0083133 0 0.00137051 0 0)
(0.0527367 0.00818317 0 0.00138841 0 0)
(0.0491727 0.0079217 0 0.00138374 0 0)
(0.0457384 0.00758951 0 0.00136265 0 0)
(0.0424617 0.00722601 0 0.00133174 0 0)
(0.0393533 0.00685318 0 0.00129554 0 0)
(0.0364148 0.00648193 0 0.00125653 0 0)
(0.0336439 0.00611725 0 0.00121588 0 0)
(0.0310367 0.00576146 0 0.00117415 0 0)
(0.0285886 0.00541573 0 0.00113162 0 0)
(0.0262946 0.0050808 0 0.00108846 0 0)
(0.0241497 0.00475723 0 0.0010448 0 0)
(0.0221486 0.00444542 0 0.00100076 0 0)
(0.0202861 0.00414572 0 0.000956449 0 0)
(0.0185565 0.00385838 0 0.000911957 0 0)
(0.0169544 0.00358363 0 0.000867384 0 0)
(0.015474 0.00332162 0 0.000822832 0 0)
(0.0141097 0.00307249 0 0.000778407 0 0)
(0.0128557 0.00283631 0 0.000734223 0 0)
(0.0117061 0.00261311 0 0.000690394 0 0)
(0.0106551 0.00240285 0 0.000647044 0 0)
(0.00969687 0.00220546 0 0.000604296 0 0)
(0.00882551 0.00202081 0 0.000562284 0 0)
(0.00803518 0.00184872 0 0.000521154 0 0)
(0.00732006 0.00168898 0 0.000481061 0 0)
(0.0066744 0.00154129 0 0.000442166 0 0)
(0.00609252 0.00140532 0 0.000404637 0 0)
(0.00556886 0.00128068 0 0.000368652 0 0)
(0.00509797 0.00116692 0 0.000334395 0 0)
(0.0046745 0.00106356 0 0.000302047 0 0)
(0.00429328 0.000970025 0 0.000271778 0 0)
(0.00394933 0.000885719 0 0.000243744 0 0)
(0.00363784 0.000809991 0 0.000218085 0 0)
(0.00335421 0.000742164 0 0.000194913 0 0)
(0.00309409 0.000681543 0 0.000174313 0 0)
(0.00285334 0.000627429 0 0.000156336 0 0)
(0.0026281 0.000579123 0 0.000140996 0 0)
(0.00241477 0.000535941 0 0.000128267 0 0)
(0.00221012 0.00049721 0 0.000118081 0 0)
(0.00201129 0.000462259 0 0.000110327 0 0)
(0.00181591 0.000430411 0 0.000104857 0 0)
(0.00162223 0.000400964 0 0.000101489 0 0)
(0.00142921 0.00037317 0 0.000100012 0 0)
(0.00123671 0.000346225 0 0.000100189 0 0)
(0.00104563 0.00031927 0 0.000101762 0 0)
(0.000858005 0.000291416 0 0.00010445 0 0)
(0.000676997 0.000261791 0 0.000107946 0 0)
(0.000506945 0.000229646 0 0.000111926 0 0)
(0.000352862 0.000194392 0 0.000116025 0 0)
(0.000220534 0.000155876 0 0.000119942 0 0)
(0.000115103 0.00011391 0 0.000123069 0 0)
(4.21509e-05 6.98744e-05 0 0.000126183 0 0)
(4.44408e-06 2.27222e-05 0 0.000126402 0 0)
(0.0774581 -0.00363219 0 0.0164731 0 0)
(0.0296826 0.00461776 0 0.0077539 0 0)
(0.0106772 -0.00239212 0 0.00507019 0 0)
(0.00347986 -0.000552378 0 0.00451221 0 0)
(0.00293317 -0.000558658 0 0.00452172 0 0)
(0.00363848 -0.00151883 0 0.00480891 0 0)
(0.00446768 -0.00246034 0 0.00516326 0 0)
(0.00524089 -0.00323704 0 0.00547498 0 0)
(0.00627135 -0.00393675 0 0.0057354 0 0)
(0.00770037 -0.00463124 0 0.00595303 0 0)
(0.00950555 -0.00535014 0 0.0061285 0 0)
(0.0116037 -0.0060885 0 0.00626154 0 0)
(0.0139342 -0.00681989 0 0.00636272 0 0)
(0.0164925 -0.00751151 0 0.00644252 0 0)
(0.0192886 -0.00813797 0 0.00649898 0 0)
(0.0222847 -0.00868024 0 0.00652077 0 0)
(0.025422 -0.00912464 0 0.00649779 0 0)
(0.0286829 -0.00947797 0 0.00643266 0 0)
(0.032065 -0.009757 0 0.00633883 0 0)
(0.0355246 -0.00995644 0 0.00622303 0 0)
(0.0389767 -0.0100429 0 0.00607684 0 0)
(0.0423509 -0.00998044 0 0.00588537 0 0)
(0.0456633 -0.00976862 0 0.00564518 0 0)
(0.0490087 -0.00945711 0 0.00537842 0 0)
(0.0524503 -0.00911104 0 0.00512666 0 0)
(0.055944 -0.0087694 0 0.00492459 0 0)
(0.0593655 -0.00844228 0 0.00477727 0 0)
(0.0625782 -0.00812377 0 0.00466423 0 0)
(0.0654987 -0.00778308 0 0.00456152 0 0)
(0.0681289 -0.00735595 0 0.00444933 0 0)
(0.0705112 -0.00676874 0 0.004301 0 0)
(0.0726425 -0.00597195 0 0.00408387 0 0)
(0.0744379 -0.00495338 0 0.00378472 0 0)
(0.0757775 -0.00374503 0 0.00343265 0 0)
(0.0766001 -0.00243276 0 0.00309084 0 0)
(0.076968 -0.00113922 0 0.00281956 0 0)
(0.077036 3.44955e-05 0 0.0026409 0 0)
(0.0769397 0.00106679 0 0.00253515 0 0)
(0.0767054 0.00202221 0 0.00246507 0 0)
(0.0762426 0.00300796 0 0.0023956 0 0)
(0.0753994 0.00411542 0 0.00229847 0 0)
(0.0740332 0.00537054 0 0.00216432 0 0)
(0.0720694 0.00670747 0 0.00202036 0 0)
(0.0695275 0.0079846 0 0.00191862 0 0)
(0.0665071 0.00904281 0 0.00189414 0 0)
(0.0631486 0.00977106 0 0.00193746 0 0)
(0.0595938 0.0101398 0 0.00200745 0 0)
(0.0559624 0.0101918 0 0.00206372 0 0)
(0.0523451 0.0100082 0 0.00208664 0 0)
(0.0488058 0.00967436 0 0.00207637 0 0)
(0.0453863 0.00925861 0 0.00204225 0 0)
(0.0421118 0.00880645 0 0.00199401 0 0)
(0.0389957 0.0083439 0 0.00193831 0 0)
(0.0360435 0.00788409 0 0.00187881 0 0)
(0.0332557 0.00743303 0 0.00181722 0 0)
(0.0306301 0.00699336 0 0.00175426 0 0)
(0.0281629 0.00656633 0 0.00169029 0 0)
(0.0258495 0.00615268 0 0.00162549 0 0)
(0.0236848 0.00575292 0 0.00156001 0 0)
(0.0216634 0.00536746 0 0.00149401 0 0)
(0.01978 0.00499665 0 0.00142762 0 0)
(0.0180291 0.00464077 0 0.00136096 0 0)
(0.0164049 0.00430006 0 0.00129418 0 0)
(0.014902 0.00397471 0 0.00122743 0 0)
(0.0135145 0.00366485 0 0.00116086 0 0)
(0.0122368 0.00337058 0 0.00109463 0 0)
(0.011063 0.00309196 0 0.00102893 0 0)
(0.00998758 0.002829 0 0.000963933 0 0)
(0.00900465 0.00258166 0 0.000899851 0 0)
(0.00810856 0.00234984 0 0.000836897 0 0)
(0.00729364 0.00213342 0 0.0007753 0 0)
(0.00655428 0.00193218 0 0.000715301 0 0)
(0.00588497 0.00174588 0 0.000657153 0 0)
(0.00528029 0.00157419 0 0.000601115 0 0)
(0.00473497 0.00141674 0 0.000547451 0 0)
(0.00424387 0.00127308 0 0.000496419 0 0)
(0.00380203 0.0011427 0 0.000448276 0 0)
(0.00340468 0.00102504 0 0.000403268 0 0)
(0.00304729 0.00091946 0 0.000361625 0 0)
(0.00272558 0.000825288 0 0.000323553 0 0)
(0.00243553 0.000741789 0 0.00028923 0 0)
(0.00217342 0.000668187 0 0.00025879 0 0)
(0.00193584 0.00060366 0 0.000232321 0 0)
(0.0017197 0.000547348 0 0.000209857 0 0)
(0.00152225 0.000498356 0 0.00019137 0 0)
(0.00134108 0.000455758 0 0.000176771 0 0)
(0.00117414 0.0004186 0 0.000165909 0 0)
(0.00101975 0.000385904 0 0.000158576 0 0)
(0.000876572 0.00035667 0 0.000154514 0 0)
(0.000743664 0.000329887 0 0.00015342 0 0)
(0.000620441 0.000304545 0 0.000154953 0 0)
(0.000506674 0.000279655 0 0.00015873 0 0)
(0.000402492 0.000254289 0 0.000164322 0 0)
(0.000308316 0.000227605 0 0.000171243 0 0)
(0.000224886 0.000198949 0 0.000178954 0 0)
(0.000153052 0.000167824 0 0.000186825 0 0)
(9.39444e-05 0.000134154 0 0.000194322 0 0)
(4.83962e-05 9.77853e-05 0 0.000200359 0 0)
(1.76121e-05 5.97885e-05 0 0.00020606 0 0)
(1.88842e-06 1.9495e-05 0 0.000206308 0 0)
(0.0748011 -0.00489685 0 0.0152363 0 0)
(0.0304753 0.00696009 0 0.00796282 0 0)
(0.0100534 -0.00201596 0 0.00609799 0 0)
(0.00309073 -6.05926e-06 0 0.00594363 0 0)
(0.00254846 -0.000203997 0 0.00630119 0 0)
(0.00316341 -0.00149745 0 0.00680074 0 0)
(0.0040494 -0.00264123 0 0.00725799 0 0)
(0.00494287 -0.0035033 0 0.00763989 0 0)
(0.00602513 -0.00426678 0 0.00798627 0 0)
(0.00743329 -0.00507103 0 0.00831359 0 0)
(0.00917852 -0.00594366 0 0.00859463 0 0)
(0.011206 -0.00683649 0 0.00881501 0 0)
(0.0134791 -0.00768481 0 0.0089803 0 0)
(0.0159841 -0.00844684 0 0.00905987 0 0)
(0.0187027 -0.00910045 0 0.00899978 0 0)
(0.0216019 -0.00963241 0 0.00881113 0 0)
(0.0246488 -0.0100541 0 0.00858036 0 0)
(0.0278302 -0.0103961 0 0.00837643 0 0)
(0.0311452 -0.010671 0 0.00819894 0 0)
(0.0345745 -0.0108622 0 0.0080112 0 0)
(0.0380673 -0.0109484 0 0.00778573 0 0)
(0.041554 -0.0109251 0 0.00753244 0 0)
(0.0449706 -0.0108126 0 0.0072923 0 0)
(0.0482862 -0.0106416 0 0.00709353 0 0)
(0.0515163 -0.0104202 0 0.00692728 0 0)
(0.0546977 -0.0101204 0 0.0067641 0 0)
(0.0578352 -0.0097037 0 0.00657163 0 0)
(0.0608677 -0.00915092 0 0.0063291 0 0)
(0.0636802 -0.00847055 0 0.00604833 0 0)
(0.0661599 -0.00769255 0 0.00576623 0 0)
(0.0682712 -0.00684225 0 0.00550342 0 0)
(0.0700819 -0.0059035 0 0.00524155 0 0)
(0.0716921 -0.0048287 0 0.00494006 0 0)
(0.0731339 -0.00360059 0 0.00457853 0 0)
(0.0743495 -0.00227698 0 0.00420269 0 0)
(0.075256 -0.000978996 0 0.00390453 0 0)
(0.075824 0.000175944 0 0.00373119 0 0)
(0.0760958 0.00116435 0 0.00364903 0 0)
(0.0761273 0.00208868 0 0.0035992 0 0)
(0.0759112 0.00311282 0 0.00353106 0 0)
(0.07535 0.00436378 0 0.00339219 0 0)
(0.0742894 0.00586563 0 0.00315984 0 0)
(0.0725881 0.00751733 0 0.00289044 0 0)
(0.0701908 0.00911991 0 0.00268967 0 0)
(0.0671656 0.0104552 0 0.00262286 0 0)
(0.0636821 0.0113761 0 0.00267162 0 0)
(0.0599463 0.0118492 0 0.00276798 0 0)
(0.0561385 0.0119358 0 0.00285 0 0)
(0.0523835 0.0117399 0 0.00288842 0 0)
(0.0487522 0.0113649 0 0.00288191 0 0)
(0.0452785 0.0108901 0 0.00284169 0 0)
(0.0419751 0.0103681 0 0.00278013 0 0)
(0.0388446 0.00982923 0 0.00270624 0 0)
(0.0358857 0.00928991 0 0.00262542 0 0)
(0.0330948 0.00875847 0 0.00254058 0 0)
(0.030468 0.00823907 0 0.0024532 0 0)
(0.0280004 0.00773393 0 0.00236407 0 0)
(0.025687 0.00724432 0 0.00227367 0 0)
(0.0235226 0.00677107 0 0.0021823 0 0)
(0.0215016 0.00631476 0 0.0020902 0 0)
(0.0196187 0.0058758 0 0.00199759 0 0)
(0.0178681 0.00545455 0 0.00190466 0 0)
(0.0162441 0.00505125 0 0.0018116 0 0)
(0.014741 0.00466612 0 0.00171861 0 0)
(0.0133531 0.0042993 0 0.00162591 0 0)
(0.0120746 0.0039509 0 0.00153372 0 0)
(0.0108996 0.00362096 0 0.00144229 0 0)
(0.00982234 0.00330949 0 0.00135188 0 0)
(0.00883711 0.00301643 0 0.00126277 0 0)
(0.00793815 0.00274167 0 0.00117526 0 0)
(0.00711979 0.00248502 0 0.00108965 0 0)
(0.00637642 0.00224624 0 0.00100629 0 0)
(0.00570256 0.00202504 0 0.00092551 0 0)
(0.00509284 0.00182102 0 0.000847658 0 0)
(0.00454208 0.00163375 0 0.000773086 0 0)
(0.00404524 0.0014627 0 0.000702144 0 0)
(0.00359751 0.00130729 0 0.000635175 0 0)
(0.00319432 0.00116686 0 0.000572507 0 0)
(0.00283137 0.0010407 0 0.000514449 0 0)
(0.00250462 0.000928036 0 0.000461278 0 0)
(0.00221037 0.000828023 0 0.000413227 0 0)
(0.00194519 0.000739769 0 0.000370476 0 0)
(0.00170601 0.000662326 0 0.000333142 0 0)
(0.00149009 0.000594692 0 0.000301267 0 0)
(0.00129497 0.000535821 0 0.000274814 0 0)
(0.00111855 0.000484626 0 0.000253664 0 0)
(0.000959009 0.000439987 0 0.000237612 0 0)
(0.000814813 0.000400767 0 0.000226376 0 0)
(0.000684686 0.000365824 0 0.0002196 0 0)
(0.000567584 0.000334039 0 0.000216864 0 0)
(0.000462675 0.000304339 0 0.000217689 0 0)
(0.000369304 0.000275732 0 0.000221539 0 0)
(0.000286984 0.000247344 0 0.000227823 0 0)
(0.000215343 0.000218441 0 0.000235882 0 0)
(0.000154154 0.000188497 0 0.000245002 0 0)
(0.000103223 0.000157126 0 0.00025437 0 0)
(6.25291e-05 0.000124307 0 0.000263331 0 0)
(3.1935e-05 8.98734e-05 0 0.000270503 0 0)
(1.1575e-05 5.46005e-05 0 0.000277345 0 0)
(1.29172e-06 1.78918e-05 0 0.000277983 0 0)
(0.0812062 -0.0058564 0 0.0158592 0 0)
(0.0291775 0.00674284 0 0.00878545 0 0)
(0.0118626 -0.00378767 0 0.00700046 0 0)
(0.00464265 -0.00127452 0 0.00706767 0 0)
(0.0038412 -0.00133998 0 0.00768608 0 0)