/*--------------------------------*- C++ -*----------------------------------*\
| =========                 |                                                 |
| \\      /  F ield         | OpenFOAM: The Open Source CFD Toolbox           |
|  \\    /   O peration     | Version:  4.1                                   |
|   \\  /    A nd           | Web:      www.OpenFOAM.org                      |
|    \\/     M anipulation  |                                                 |
\*---------------------------------------------------------------------------*/
FoamFile
{
    version     2.0;
    format      ascii;
    class       volVectorField;
    location    "100";
    object      U;
}
// * * * * * * * * * * * * * * * * * * * * * * * * * * * * * * * * * * * * * //

dimensions      [0 1 -1 0 0 0 0];

internalField   nonuniform List<vector> 
43750
(
(0.00959493 0.000329556 0)
(0.00900778 0.000647268 0)
(0.00825142 0.00068718 0)
(0.00733125 0.000613002 0)
(0.00643765 0.000505767 0)
(0.00566386 0.000390426 0)
(0.00500564 0.000280916 0)
(0.00444368 0.000188257 0)
(0.00397093 0.000117118 0)
(0.00358145 6.64127e-05 0)
(0.00326388 3.24989e-05 0)
(0.00300488 1.1305e-05 0)
(0.00279261 -8.45759e-07 0)
(0.00261726 -6.92439e-06 0)
(0.00247065 -9.12976e-06 0)
(0.00234601 -9.00056e-06 0)
(0.002238 -7.58411e-06 0)
(0.00214255 -5.5681e-06 0)
(0.00205657 -3.38065e-06 0)
(0.00197783 -1.27236e-06 0)
(0.00190471 6.22809e-07 0)
(0.00183608 2.24536e-06 0)
(0.00177115 3.58122e-06 0)
(0.00170941 4.64136e-06 0)
(0.00165053 5.4479e-06 0)
(0.00159431 6.0256e-06 0)
(0.00154061 6.3978e-06 0)
(0.00148938 6.58571e-06 0)
(0.00144057 6.60986e-06 0)
(0.00139412 6.49262e-06 0)
(0.00134997 6.26026e-06 0)
(0.00130798 5.94424e-06 0)
(0.00126797 5.58089e-06 0)
(0.00122971 5.2092e-06 0)
(0.00119293 4.86685e-06 0)
(0.00115733 4.58515e-06 0)
(0.00112265 4.38417e-06 0)
(0.00108863 4.26928e-06 0)
(0.00105513 4.23031e-06 0)
(0.00102201 4.24397e-06 0)
(0.000989247 4.2792e-06 0)
(0.000956855 4.30419e-06 0)
(0.000924885 4.29289e-06 0)
(0.000893411 4.22952e-06 0)
(0.000862501 4.10998e-06 0)
(0.000832205 3.94045e-06 0)
(0.000802543 3.73436e-06 0)
(0.000773501 3.50874e-06 0)
(0.000745028 3.28093e-06 0)
(0.000717047 3.06608e-06 0)
(0.000689456 2.87557e-06 0)
(0.000662146 2.71616e-06 0)
(0.000635007 2.58978e-06 0)
(0.000607945 2.49389e-06 0)
(0.000580883 2.42238e-06 0)
(0.000553777 2.367e-06 0)
(0.000526605 2.31888e-06 0)
(0.000499374 2.27002e-06 0)
(0.000472109 2.21409e-06 0)
(0.000444848 2.14676e-06 0)
(0.000417641 2.06544e-06 0)
(0.000390541 1.96885e-06 0)
(0.000363606 1.8565e-06 0)
(0.000336893 1.72832e-06 0)
(0.000310464 1.58441e-06 0)
(0.000284379 1.42492e-06 0)
(0.0002587 1.24998e-06 0)
(0.000233492 1.0597e-06 0)
(0.000208819 8.54162e-07 0)
(0.000184746 6.33419e-07 0)
(0.000161341 3.97516e-07 0)
(0.00013867 1.46486e-07 0)
(0.000116803 -1.19634e-07 0)
(9.58072e-05 -4.00803e-07 0)
(7.57524e-05 -6.96968e-07 0)
(5.67069e-05 -1.00807e-06 0)
(3.87382e-05 -1.3341e-06 0)
(2.1913e-05 -1.67525e-06 0)
(6.28865e-06 -2.03256e-06 0)
(-8.07595e-06 -2.40131e-06 0)
(-2.11136e-05 -2.77705e-06 0)
(-3.27552e-05 -3.16047e-06 0)
(-4.29724e-05 -3.56456e-06 0)
(-5.17347e-05 -3.97378e-06 0)
(-5.89995e-05 -4.39307e-06 0)
(-6.47553e-05 -4.81756e-06 0)
(-6.89878e-05 -5.24196e-06 0)
(-7.17053e-05 -5.66851e-06 0)
(-7.2951e-05 -6.09084e-06 0)
(-7.27701e-05 -6.47432e-06 0)
(-7.11918e-05 -6.79974e-06 0)
(-6.83247e-05 -7.09033e-06 0)
(-6.43531e-05 -7.33056e-06 0)
(-5.95178e-05 -7.48769e-06 0)
(-5.41604e-05 -7.51761e-06 0)
(-4.86653e-05 -7.40171e-06 0)
(-4.30847e-05 -7.27195e-06 0)
(-3.61907e-05 -7.59237e-06 0)
(-2.51797e-05 -8.73727e-06 0)
(-8.12989e-06 -8.43665e-06 0)
(0.0101182 0.000392879 0)
(0.0104668 0.000847354 0)
(0.0107361 0.00102743 0)
(0.010824 0.00108741 0)
(0.0107483 0.00108863 0)
(0.0105573 0.00104243 0)
(0.0102843 0.000960554 0)
(0.0099537 0.000859554 0)
(0.00958907 0.000752995 0)
(0.00921129 0.000649459 0)
(0.0088352 0.000554132 0)
(0.0084701 0.000469948 0)
(0.00812151 0.000398035 0)
(0.00779242 0.000338177 0)
(0.00748402 0.000289348 0)
(0.0071962 0.000250119 0)
(0.0069281 0.000218937 0)
(0.00667843 0.000194285 0)
(0.00644575 0.00017478 0)
(0.00622858 0.000159238 0)
(0.00602552 0.000146685 0)
(0.00583529 0.00013635 0)
(0.00565672 0.000127636 0)
(0.00548884 0.000120092 0)
(0.00533078 0.000113385 0)
(0.00518178 0.000107278 0)
(0.00504121 0.000101611 0)
(0.00490847 9.62876e-05 0)
(0.00478301 9.12726e-05 0)
(0.00466425 8.65785e-05 0)
(0.00455161 8.22557e-05 0)
(0.00444445 7.83744e-05 0)
(0.00434207 7.50032e-05 0)
(0.00424373 7.21858e-05 0)
(0.00414868 6.99251e-05 0)
(0.00405619 6.81757e-05 0)
(0.00396562 6.68482e-05 0)
(0.00387643 6.58243e-05 0)
(0.00378828 6.49768e-05 0)
(0.003701 6.41907e-05 0)
(0.00361459 6.33796e-05 0)
(0.00352921 6.24936e-05 0)
(0.00344506 6.1519e-05 0)
(0.00336239 6.04712e-05 0)
(0.0032814 5.9384e-05 0)
(0.00320217 5.83006e-05 0)
(0.00312467 5.72667e-05 0)
(0.00304875 5.63268e-05 0)
(0.00297416 5.55212e-05 0)
(0.00290058 5.48823e-05 0)
(0.00282765 5.443e-05 0)
(0.00275504 5.41676e-05 0)
(0.00268245 5.40795e-05 0)
(0.00260966 5.41327e-05 0)
(0.0025365 5.42827e-05 0)
(0.00246289 5.44804e-05 0)
(0.00238878 5.46796e-05 0)
(0.00231418 5.48422e-05 0)
(0.00223915 5.49398e-05 0)
(0.00216374 5.49537e-05 0)
(0.00208802 5.48727e-05 0)
(0.00201208 5.46901e-05 0)
(0.00193602 5.44018e-05 0)
(0.00185992 5.40049e-05 0)
(0.00178387 5.34968e-05 0)
(0.00170799 5.2875e-05 0)
(0.00163238 5.21369e-05 0)
(0.00155715 5.12799e-05 0)
(0.00148241 5.03016e-05 0)
(0.00140829 4.91996e-05 0)
(0.00133491 4.7972e-05 0)
(0.0012624 4.6617e-05 0)
(0.00119088 4.51335e-05 0)
(0.00112049 4.35211e-05 0)
(0.00105137 4.17799e-05 0)
(0.000983646 3.99111e-05 0)
(0.000917454 3.79167e-05 0)
(0.000852923 3.57996e-05 0)
(0.000790182 3.3564e-05 0)
(0.000729351 3.12217e-05 0)
(0.00067055 2.8783e-05 0)
(0.000613886 2.62571e-05 0)
(0.000559451 2.36422e-05 0)
(0.000507321 2.09665e-05 0)
(0.000457562 1.8243e-05 0)
(0.000410213 1.54941e-05 0)
(0.000365295 1.27478e-05 0)
(0.000322806 1.00298e-05 0)
(0.000282716 7.37707e-06 0)
(0.000244952 4.84987e-06 0)
(0.000209376 2.51139e-06 0)
(0.000175825 4.08513e-07 0)
(0.000144084 -1.36095e-06 0)
(0.000113846 -2.6605e-06 0)
(8.47114e-05 -3.38015e-06 0)
(5.62937e-05 -3.73592e-06 0)
(2.87974e-05 -5.0211e-06 0)
(4.61833e-06 -1.02279e-05 0)
(-1.01023e-05 -2.12284e-05 0)
(-6.77671e-06 -2.49404e-05 0)
(0.0100098 0.000123081 0)
(0.0101314 0.000352738 0)
(0.0103504 0.000537473 0)
(0.0105961 0.000683954 0)
(0.010818 0.000795996 0)
(0.0109962 0.000867206 0)
(0.0111196 0.000897181 0)
(0.0111819 0.000894023 0)
(0.011184 0.000867793 0)
(0.0111332 0.000826887 0)
(0.0110388 0.000777829 0)
(0.0109097 0.000725617 0)
(0.0107542 0.000673782 0)
(0.0105794 0.000624515 0)
(0.0103913 0.000578965 0)
(0.0101946 0.000537579 0)
(0.00999296 0.000500362 0)
(0.00978912 0.000467048 0)
(0.00958519 0.000437233 0)
(0.00938271 0.00041046 0)
(0.00918286 0.00038628 0)
(0.00898649 0.00036428 0)
(0.00879424 0.0003441 0)
(0.00860657 0.000325436 0)
(0.00842384 0.000308041 0)
(0.00824629 0.000291729 0)
(0.00807405 0.000276371 0)
(0.00790718 0.000261898 0)
(0.00774567 0.000248306 0)
(0.00758937 0.000235649 0)
(0.0074381 0.000224031 0)
(0.00729155 0.000213593 0)
(0.00714935 0.000204476 0)
(0.00701102 0.000196795 0)
(0.00687604 0.000190594 0)
(0.0067438 0.000185823 0)
(0.00661368 0.000182318 0)
(0.00648506 0.000179807 0)
(0.00635737 0.000177934 0)
(0.00623018 0.000176309 0)
(0.00610322 0.000174561 0)
(0.00597647 0.000172404 0)
(0.00585012 0.000169686 0)
(0.00572461 0.000166412 0)
(0.0056005 0.000162739 0)
(0.00547843 0.000158927 0)
(0.00535897 0.000155278 0)
(0.00524245 0.000152068 0)
(0.00512896 0.000149493 0)
(0.00501826 0.000147653 0)
(0.00490986 0.000146551 0)
(0.00480309 0.000146116 0)
(0.00469726 0.000146229 0)
(0.00459171 0.000146748 0)
(0.00448594 0.000147531 0)
(0.00437962 0.00014845 0)
(0.00427254 0.000149396 0)
(0.00416461 0.00015029 0)
(0.00405582 0.000151073 0)
(0.0039462 0.000151709 0)
(0.0038358 0.000152175 0)
(0.00372465 0.000152457 0)
(0.00361283 0.000152546 0)
(0.0035004 0.000152432 0)
(0.00338744 0.000152107 0)
(0.00327402 0.000151562 0)
(0.00316025 0.000150789 0)
(0.00304621 0.000149777 0)
(0.00293202 0.000148519 0)
(0.00281779 0.000147007 0)
(0.00270364 0.000145232 0)
(0.0025897 0.000143189 0)
(0.0024761 0.000140872 0)
(0.00236299 0.000138277 0)
(0.00225052 0.000135402 0)
(0.00213882 0.000132248 0)
(0.00202805 0.000128818 0)
(0.00191837 0.000125118 0)
(0.00180992 0.000121156 0)
(0.00170285 0.000116949 0)
(0.0015973 0.000112512 0)
(0.00149341 0.000107866 0)
(0.00139129 0.000103036 0)
(0.00129106 9.80546e-05 0)
(0.00119281 9.29606e-05 0)
(0.00109661 8.77984e-05 0)
(0.00100252 8.26213e-05 0)
(0.000910549 7.74894e-05 0)
(0.000820701 7.24725e-05 0)
(0.00073293 6.76434e-05 0)
(0.000647151 6.31003e-05 0)
(0.000563242 5.89758e-05 0)
(0.000481037 5.54321e-05 0)
(0.000400329 5.26602e-05 0)
(0.000320871 5.07593e-05 0)
(0.000242457 4.91853e-05 0)
(0.000165368 4.52759e-05 0)
(9.20997e-05 3.25186e-05 0)
(3.13387e-05 4.1929e-06 0)
(-1.19117e-06 -2.34731e-05 0)
(0.0100081 0.000107796 0)
(0.0100669 0.000306914 0)
(0.0101718 0.000463053 0)
(0.0103028 0.000574737 0)
(0.0104433 0.000655183 0)
(0.010588 0.000712506 0)
(0.0107314 0.000749592 0)
(0.0108646 0.000769393 0)
(0.010979 0.000775524 0)
(0.0110696 0.000771183 0)
(0.0111345 0.000759008 0)
(0.0111735 0.000741348 0)
(0.0111877 0.000720263 0)
(0.0111792 0.000697395 0)
(0.0111504 0.000673928 0)
(0.0111036 0.000650646 0)
(0.0110414 0.000628015 0)
(0.0109658 0.000606264 0)
(0.0108788 0.000585453 0)
(0.0107821 0.000565534 0)
(0.0106771 0.000546399 0)
(0.0105652 0.000527916 0)
(0.0104474 0.000509954 0)
(0.0103248 0.0004924 0)
(0.0101983 0.000475177 0)
(0.0100686 0.000458247 0)
(0.00993635 0.00044162 0)
(0.00980219 0.000425363 0)
(0.00966662 0.000409595 0)
(0.00953006 0.000394491 0)
(0.00939284 0.000380268 0)
(0.00925525 0.000367169 0)
(0.00911748 0.000355437 0)
(0.00897966 0.00034528 0)
(0.00884185 0.000336843 0)
(0.00870401 0.000330174 0)
(0.00856602 0.000325205 0)
(0.00842767 0.000321742 0)
(0.00828866 0.000319474 0)
(0.00814861 0.000317987 0)
(0.00800713 0.000316802 0)
(0.00786386 0.000315412 0)
(0.00771852 0.000313345 0)
(0.0075711 0.000310225 0)
(0.00742188 0.000305848 0)
(0.00727155 0.000300239 0)
(0.00712117 0.000293684 0)
(0.00697205 0.000286697 0)
(0.0068255 0.000279928 0)
(0.00668256 0.000274019 0)
(0.00654377 0.000269463 0)
(0.00640903 0.000266506 0)
(0.00627773 0.000265124 0)
(0.00614892 0.000265078 0)
(0.00602152 0.00026601 0)
(0.00589461 0.000267547 0)
(0.00576747 0.000269374 0)
(0.00563967 0.000271262 0)
(0.00551095 0.000273072 0)
(0.0053812 0.000274728 0)
(0.00525039 0.000276193 0)
(0.00511848 0.000277444 0)
(0.00498548 0.000278464 0)
(0.00485139 0.000279238 0)
(0.00471621 0.000279747 0)
(0.00457997 0.000279973 0)
(0.0044427 0.000279898 0)
(0.00430445 0.000279501 0)
(0.00416527 0.000278767 0)
(0.00402523 0.000277676 0)
(0.0038844 0.000276213 0)
(0.00374287 0.000274362 0)
(0.00360075 0.000272111 0)
(0.00345813 0.000269448 0)
(0.00331514 0.000266367 0)
(0.00317189 0.000262861 0)
(0.00302851 0.000258932 0)
(0.00288513 0.000254582 0)
(0.0027419 0.000249822 0)
(0.00259894 0.000244666 0)
(0.00245641 0.000239137 0)
(0.00231443 0.000233263 0)
(0.00217314 0.000227078 0)
(0.00203267 0.000220629 0)
(0.00189312 0.000213968 0)
(0.00175459 0.00020716 0)
(0.00161718 0.000200279 0)
(0.00148096 0.000193412 0)
(0.00134595 0.000186655 0)
(0.00121218 0.000180122 0)
(0.00107965 0.000173947 0)
(0.000948316 0.000168289 0)
(0.000818126 0.000163339 0)
(0.000689016 0.0001593 0)
(0.000560922 0.000156233 0)
(0.000433813 0.000153325 0)
(0.000307942 0.000146698 0)
(0.000185459 0.000125889 0)
(7.68559e-05 7.58027e-05 0)
(5.08932e-06 4.0889e-06 0)
(0.0100043 8.09742e-05 0)
(0.0100396 0.00023331 0)
(0.0101059 0.000361905 0)
(0.0101913 0.000461861 0)
(0.0102829 0.000537582 0)
(0.0103756 0.000593909 0)
(0.0104682 0.000633372 0)
(0.0105588 0.000658453 0)
(0.0106445 0.000672387 0)
(0.0107233 0.000678264 0)
(0.0107939 0.000678479 0)
(0.0108552 0.000674839 0)
(0.0109067 0.000668742 0)
(0.010948 0.000661225 0)
(0.0109789 0.000652995 0)
(0.0109996 0.00064448 0)
(0.0110103 0.00063591 0)
(0.0110114 0.000627372 0)
(0.0110031 0.00061886 0)
(0.010986 0.000610309 0)
(0.0109602 0.000601624 0)
(0.0109263 0.000592705 0)
(0.0108845 0.000583462 0)
(0.0108351 0.00057383 0)
(0.0107786 0.000563778 0)
(0.0107153 0.000553316 0)
(0.0106455 0.000542504 0)
(0.0105695 0.000531452 0)
(0.0104878 0.000520326 0)
(0.0104005 0.000509343 0)
(0.0103082 0.000498758 0)
(0.0102112 0.000488856 0)
(0.0101098 0.000479919 0)
(0.0100044 0.000472211 0)
(0.00989525 0.000465938 0)
(0.00978273 0.000461232 0)
(0.00966702 0.000458125 0)
(0.00954824 0.000456542 0)
(0.00942642 0.0004563 0)
(0.00930141 0.000457118 0)
(0.00917294 0.000458631 0)
(0.00904061 0.000460402 0)
(0.00890387 0.00046193 0)
(0.00876219 0.000462661 0)
(0.00861513 0.000462017 0)
(0.00846261 0.000459481 0)
(0.0083051 0.000454723 0)
(0.00814377 0.000447757 0)
(0.00798048 0.000439036 0)
(0.00781743 0.000429434 0)
(0.00765682 0.000420075 0)
(0.00750027 0.000412048 0)
(0.00734857 0.00040614 0)
(0.00720157 0.000402666 0)
(0.00705842 0.000401473 0)
(0.0069179 0.000402081 0)
(0.00677876 0.000403888 0)
(0.00663999 0.000406346 0)
(0.00650091 0.000409053 0)
(0.00636108 0.000411772 0)
(0.00622027 0.000414385 0)
(0.00607833 0.000416838 0)
(0.00593516 0.000419104 0)
(0.00579069 0.000421158 0)
(0.00564483 0.000422971 0)
(0.00549753 0.000424511 0)
(0.00534875 0.000425745 0)
(0.00519846 0.000426643 0)
(0.00504665 0.000427173 0)
(0.00489332 0.000427306 0)
(0.00473848 0.000427014 0)
(0.00458216 0.000426272 0)
(0.0044244 0.000425055 0)
(0.00426523 0.000423343 0)
(0.00410473 0.000421118 0)
(0.00394295 0.000418366 0)
(0.00377998 0.000415079 0)
(0.00361591 0.000411255 0)
(0.00345083 0.000406897 0)
(0.00328484 0.000402016 0)
(0.00311806 0.000396633 0)
(0.0029506 0.000390775 0)
(0.00278257 0.00038448 0)
(0.0026141 0.000377798 0)
(0.0024453 0.000370789 0)
(0.00227628 0.000363528 0)
(0.00210715 0.000356102 0)
(0.00193802 0.000348611 0)
(0.00176896 0.000341172 0)
(0.00160006 0.000333917 0)
(0.00143138 0.000326999 0)
(0.00126298 0.000320589 0)
(0.00109493 0.000314881 0)
(0.00092727 0.000310065 0)
(0.000760105 0.000306159 0)
(0.000593543 0.000302145 0)
(0.000427855 0.000293068 0)
(0.000264917 0.000264214 0)
(0.000116578 0.000189195 0)
(1.11468e-05 5.68968e-05 0)
(0.0100027 6.39511e-05 0)
(0.0100258 0.00018725 0)
(0.0100718 0.000297402 0)
(0.0101342 0.000389062 0)
(0.0102035 0.00046225 0)
(0.0102735 0.000519029 0)
(0.0103418 0.000561134 0)
(0.0104067 0.000590384 0)
(0.0104669 0.000609207 0)
(0.0105214 0.000620202 0)
(0.0105701 0.000625614 0)
(0.0106132 0.00062722 0)
(0.0106511 0.000626413 0)
(0.0106839 0.000624243 0)
(0.010712 0.000621446 0)
(0.0107355 0.000618483 0)
(0.0107546 0.000615608 0)
(0.0107693 0.000612929 0)
(0.0107797 0.000610448 0)
(0.0107855 0.000608099 0)
(0.0107868 0.000605782 0)
(0.0107833 0.000603378 0)
(0.0107749 0.000600775 0)
(0.0107615 0.000597876 0)
(0.0107427 0.000594616 0)
(0.0107185 0.000590965 0)
(0.0106887 0.000586938 0)
(0.0106532 0.0005826 0)
(0.010612 0.000578068 0)
(0.0105649 0.000573505 0)
(0.0105121 0.00056912 0)
(0.0104536 0.000565146 0)
(0.0103895 0.000561831 0)
(0.0103202 0.000559413 0)
(0.0102457 0.000558097 0)
(0.0101664 0.000558039 0)
(0.0100824 0.000559323 0)
(0.00999397 0.000561961 0)
(0.00990113 0.000565887 0)
(0.00980388 0.000570969 0)
(0.00970206 0.000577024 0)
(0.0095953 0.000583813 0)
(0.00948303 0.000591019 0)
(0.00936444 0.000598188 0)
(0.00923856 0.000604667 0)
(0.00910448 0.000609585 0)
(0.00896163 0.000611954 0)
(0.00881016 0.000610902 0)
(0.00865123 0.000605998 0)
(0.00848697 0.000597527 0)
(0.00832027 0.000586556 0)
(0.00815411 0.000574717 0)
(0.00799096 0.000563777 0)
(0.00783228 0.000555151 0)
(0.00767839 0.000549579 0)
(0.00752869 0.000547072 0)
(0.00738202 0.000547102 0)
(0.00723711 0.000548905 0)
(0.00709291 0.000551755 0)
(0.00694863 0.000555118 0)
(0.00680377 0.000558672 0)
(0.00665801 0.000562257 0)
(0.00651112 0.000565797 0)
(0.00636295 0.000569244 0)
(0.00621333 0.000572554 0)
(0.00606214 0.000575679 0)
(0.00590928 0.000578571 0)
(0.00575464 0.000581182 0)
(0.00559815 0.000583466 0)
(0.00543975 0.000585381 0)
(0.00527938 0.000586887 0)
(0.00511701 0.000587944 0)
(0.00495261 0.000588516 0)
(0.00478617 0.000588572 0)
(0.00461768 0.000588082 0)
(0.00444717 0.000587021 0)
(0.00427463 0.00058537 0)
(0.00410012 0.000583116 0)
(0.00392367 0.000580253 0)
(0.00374533 0.000576782 0)
(0.00356518 0.000572716 0)
(0.00338327 0.000568075 0)
(0.00319971 0.000562892 0)
(0.00301457 0.000557212 0)
(0.00282795 0.000551094 0)
(0.00263997 0.00054461 0)
(0.00245072 0.000537849 0)
(0.00226033 0.000530915 0)
(0.00206889 0.000523928 0)
(0.00187654 0.000517024 0)
(0.00168339 0.000510358 0)
(0.00148957 0.000504098 0)
(0.00129522 0.000498427 0)
(0.00110049 0.000493511 0)
(0.000905583 0.000489321 0)
(0.00071071 0.000484666 0)
(0.000516208 0.000473551 0)
(0.000323822 0.000436726 0)
(0.000146395 0.000334384 0)
(1.594e-05 0.000129118 0)
(0.0100019 5.30125e-05 0)
(0.0100182 0.000156477 0)
(0.0100511 0.00025181 0)
(0.0100974 0.000334453 0)
(0.0101504 0.000403134 0)
(0.0102055 0.000458701 0)
(0.0102601 0.000502389 0)
(0.0103124 0.000535468 0)
(0.0103607 0.000559504 0)
(0.010404 0.000576272 0)
(0.0104418 0.000587457 0)
(0.0104741 0.000594509 0)
(0.0105013 0.000598642 0)
(0.0105238 0.000600843 0)
(0.010542 0.000601878 0)
(0.0105564 0.0006023 0)
(0.0105674 0.000602483 0)
(0.0105754 0.000602658 0)
(0.0105806 0.000602947 0)
(0.0105831 0.000603394 0)
(0.0105831 0.000603985 0)
(0.0105805 0.000604678 0)
(0.0105752 0.000605412 0)
(0.010567 0.000606128 0)
(0.0105558 0.000606778 0)
(0.0105413 0.000607336 0)
(0.0105233 0.000607804 0)
(0.0105015 0.00060822 0)
(0.0104757 0.000608658 0)
(0.0104458 0.000609229 0)
(0.0104116 0.000610079 0)
(0.0103729 0.000611376 0)
(0.0103297 0.000613303 0)
(0.010282 0.000616042 0)
(0.0102298 0.000619758 0)
(0.0101733 0.000624586 0)
(0.0101124 0.000630619 0)
(0.0100473 0.000637904 0)
(0.00997809 0.000646444 0)
(0.00990461 0.000656216 0)
(0.00982678 0.000667191 0)
(0.00974428 0.000679344 0)
(0.00965659 0.000692625 0)
(0.00956285 0.000706861 0)
(0.0094619 0.000721596 0)
(0.00935236 0.000735937 0)
(0.00923286 0.000748502 0)
(0.00910249 0.000757615 0)
(0.00896124 0.000761727 0)
(0.0088103 0.00075998 0)
(0.00865204 0.000752639 0)
(0.00848964 0.000741165 0)
(0.00832639 0.000727853 0)
(0.00816499 0.000715158 0)
(0.00800708 0.000705013 0)
(0.00785312 0.00069842 0)
(0.00770265 0.000695423 0)
(0.00755473 0.0006954 0)
(0.00740827 0.000697476 0)
(0.00726237 0.000700845 0)
(0.00711633 0.00070493 0)
(0.0069697 0.000709395 0)
(0.00682213 0.000714061 0)
(0.0066734 0.000718833 0)
(0.00652328 0.000723639 0)
(0.00637161 0.000728411 0)
(0.00621822 0.000733082 0)
(0.00606296 0.000737586 0)
(0.00590573 0.000741863 0)
(0.0057464 0.000745856 0)
(0.00558488 0.00074951 0)
(0.00542108 0.000752775 0)
(0.00525493 0.000755603 0)
(0.00508637 0.000757951 0)
(0.00491535 0.000759777 0)
(0.00474182 0.000761045 0)
(0.00456575 0.000761725 0)
(0.00438714 0.000761792 0)
(0.00420596 0.000761227 0)
(0.00402223 0.000760021 0)
(0.00383596 0.000758173 0)
(0.00364718 0.000755694 0)
(0.00345594 0.000752604 0)
(0.00326228 0.000748937 0)
(0.00306627 0.000744743 0)
(0.00286801 0.000740084 0)
(0.00266757 0.000735039 0)
(0.00246506 0.000729704 0)
(0.0022606 0.000724189 0)
(0.00205433 0.000718623 0)
(0.0018464 0.000713147 0)
(0.00163695 0.000707916 0)
(0.0014262 0.000703089 0)
(0.00121434 0.000698802 0)
(0.00100162 0.000694982 0)
(0.000788342 0.000690263 0)
(0.000574917 0.000677588 0)
(0.000363072 0.000632914 0)
(0.00016636 0.000501671 0)
(1.91851e-05 0.000215275 0)
(0.0100014 4.52684e-05 0)
(0.0100132 0.000134073 0)
(0.0100374 0.000217412 0)
(0.0100719 0.000291884 0)
(0.0101127 0.000356025 0)
(0.0101562 0.00040995 0)
(0.0102001 0.000454332 0)
(0.0102427 0.000489986 0)
(0.0102827 0.000517934 0)
(0.0103189 0.0005394 0)
(0.0103507 0.000555637 0)
(0.0103778 0.000567787 0)
(0.0104003 0.000576839 0)
(0.0104183 0.000583631 0)
(0.010432 0.000588845 0)
(0.0104418 0.000593011 0)
(0.010448 0.000596523 0)
(0.010451 0.000599662 0)
(0.0104511 0.000602616 0)
(0.0104485 0.000605504 0)
(0.0104433 0.000608394 0)
(0.0104358 0.000611319 0)
(0.010426 0.000614293 0)
(0.0104139 0.000617319 0)
(0.0103995 0.000620402 0)
(0.0103826 0.000623557 0)
(0.0103632 0.000626815 0)
(0.0103412 0.000630226 0)
(0.0103164 0.000633865 0)
(0.0102886 0.000637827 0)
(0.0102578 0.000642231 0)
(0.0102237 0.000647208 0)
(0.0101864 0.000652901 0)
(0.0101459 0.000659451 0)
(0.0101019 0.000666989 0)
(0.0100547 0.000675626 0)
(0.0100041 0.000685449 0)
(0.00995029 0.000696513 0)
(0.00989313 0.000708858 0)
(0.00983263 0.000722526 0)
(0.00976866 0.000737603 0)
(0.009701 0.000754246 0)
(0.00962918 0.000772675 0)
(0.00955247 0.000793053 0)
(0.00946976 0.000815269 0)
(0.0093796 0.000838645 0)
(0.00928033 0.000861726 0)
(0.00917044 0.000882319 0)
(0.00904903 0.000897915 0)
(0.00891622 0.000906417 0)
(0.00877337 0.000906908 0)
(0.00862296 0.000900104 0)
(0.00846808 0.000888224 0)
(0.00831177 0.000874324 0)
(0.00815636 0.000861364 0)
(0.00800323 0.000851441 0)
(0.00785273 0.000845457 0)
(0.0077045 0.000843266 0)
(0.0075578 0.000844104 0)
(0.00741187 0.000847052 0)
(0.00726603 0.000851339 0)
(0.00711976 0.00085645 0)
(0.00697269 0.000862087 0)
(0.00682454 0.00086808 0)
(0.00667506 0.000874321 0)
(0.00652406 0.000880716 0)
(0.00637134 0.000887179 0)
(0.00621675 0.000893625 0)
(0.00606014 0.000899979 0)
(0.00590137 0.000906168 0)
(0.00574031 0.000912128 0)
(0.00557686 0.000917796 0)
(0.00541091 0.000923115 0)
(0.00524236 0.000928029 0)
(0.00507115 0.000932489 0)
(0.00489718 0.000936447 0)
(0.0047204 0.000939862 0)
(0.00454075 0.000942698 0)
(0.00435819 0.000944926 0)
(0.00417268 0.000946523 0)
(0.00398421 0.000947476 0)
(0.00379277 0.000947782 0)
(0.00359836 0.000947448 0)
(0.003401 0.000946493 0)
(0.00320074 0.000944952 0)
(0.00299761 0.000942872 0)
(0.0027917 0.000940315 0)
(0.0025831 0.000937359 0)
(0.0023719 0.000934099 0)
(0.00215825 0.000930643 0)
(0.00194229 0.000927111 0)
(0.0017242 0.000923633 0)
(0.00150419 0.000920339 0)
(0.0012825 0.000917333 0)
(0.0010594 0.000914496 0)
(0.000835205 0.000910274 0)
(0.000610422 0.000896492 0)
(0.00038682 0.000844092 0)
(0.000178418 0.000682921 0)
(2.112e-05 0.000310377 0)
(0.010001 3.95865e-05 0)
(0.0100098 0.000117514 0)
(0.0100279 0.000191616 0)
(0.0100541 0.000259392 0)
(0.0100857 0.000319468 0)
(0.01012 0.000371555 0)
(0.0101551 0.000415914 0)
(0.0101897 0.000453041 0)
(0.0102225 0.000483625 0)
(0.0102526 0.000508532 0)
(0.0102794 0.000528699 0)
(0.0103024 0.000545018 0)
(0.0103215 0.000558293 0)
(0.0103367 0.000569219 0)
(0.0103481 0.000578383 0)
(0.0103558 0.000586261 0)
(0.0103601 0.000593227 0)
(0.0103611 0.000599561 0)
(0.0103591 0.000605474 0)
(0.0103542 0.000611116 0)
(0.0103466 0.000616592 0)
(0.0103364 0.000621977 0)
(0.0103238 0.000627326 0)
(0.0103087 0.000632683 0)
(0.0102912 0.000638091 0)
(0.0102713 0.000643597 0)
(0.010249 0.000649255 0)
(0.0102242 0.000655137 0)
(0.0101969 0.000661324 0)
(0.0101671 0.000667915 0)
(0.0101347 0.000675022 0)
(0.0100997 0.000682763 0)
(0.010062 0.000691264 0)
(0.0100217 0.000700647 0)
(0.00997865 0.000711027 0)
(0.009933 0.000722505 0)
(0.00988472 0.000735163 0)
(0.00983384 0.000749066 0)
(0.00978036 0.000764271 0)
(0.00972427 0.000780869 0)
(0.0096655 0.000799029 0)
(0.00960386 0.000819059 0)
(0.00953901 0.000841407 0)
(0.00947037 0.000866553 0)
(0.00939701 0.000894748 0)
(0.00931766 0.000925629 0)
(0.00923078 0.000957863 0)
(0.00913481 0.000989034 0)
(0.00902848 0.00101598 0)
(0.00891124 0.00103559 0)
(0.00878355 0.00104578 0)
(0.00864694 0.00104631 0)
(0.00850374 0.00103891 0)
(0.00835658 0.00102676 0)
(0.00820783 0.00101345 0)
(0.00805922 0.00100199 0)
(0.00791165 0.000994119 0)
(0.00776533 0.000990305 0)
(0.00761998 0.000990092 0)
(0.00747512 0.000992624 0)
(0.00733024 0.000997054 0)
(0.00718488 0.00100275 0)
(0.00703871 0.0010093 0)
(0.00689143 0.00101648 0)
(0.00674282 0.00102414 0)
(0.00659267 0.00103215 0)
(0.00644079 0.0010404 0)
(0.00628701 0.0010488 0)
(0.00613118 0.00105726 0)
(0.00597316 0.00106569 0)
(0.00581281 0.00107402 0)
(0.00565001 0.00108218 0)
(0.00548464 0.00109009 0)
(0.0053166 0.00109769 0)
(0.00514579 0.00110493 0)
(0.00497211 0.00111175 0)
(0.00479549 0.0011181 0)
(0.00461585 0.00112394 0)
(0.00443313 0.00112922 0)
(0.00424726 0.0011339 0)
(0.00405822 0.00113798 0)
(0.00386595 0.00114142 0)
(0.00367046 0.00114422 0)
(0.00347173 0.00114639 0)
(0.00326978 0.00114793 0)
(0.00306464 0.00114889 0)
(0.00285636 0.00114931 0)
(0.00264501 0.00114923 0)
(0.00243069 0.00114874 0)
(0.00221351 0.0011479 0)
(0.00199363 0.00114683 0)
(0.00177122 0.00114561 0)
(0.0015465 0.00114435 0)
(0.00131969 0.00114312 0)
(0.00109108 0.00114175 0)
(0.000860998 0.00113847 0)
(0.000629998 0.00112395 0)
(0.000399909 0.00106392 0)
(0.000185021 0.000872192 0)
(2.21396e-05 0.000410662 0)
(0.0100008 3.53367e-05 0)
(0.0100074 0.000105076 0)
(0.0100212 0.000172029 0)
(0.0100413 0.000234327 0)
(0.0100659 0.000290789 0)
(0.0100929 0.000340975 0)
(0.010121 0.00038491 0)
(0.010149 0.000422868 0)
(0.0101758 0.0004553 0)
(0.0102006 0.000482811 0)
(0.0102228 0.000506083 0)
(0.010242 0.000525806 0)
(0.010258 0.000542623 0)
(0.0102706 0.00055711 0)
(0.01028 0.000569772 0)
(0.010286 0.000581032 0)
(0.0102889 0.000591236 0)
(0.0102888 0.000600659 0)
(0.0102857 0.000609516 0)
(0.0102798 0.00061797 0)
(0.0102712 0.000626147 0)
(0.01026 0.000634145 0)
(0.0102462 0.00064204 0)
(0.0102299 0.000649898 0)
(0.0102111 0.000657783 0)
(0.0101898 0.000665756 0)
(0.0101661 0.000673886 0)
(0.0101398 0.000682251 0)
(0.0101111 0.000690937 0)
(0.0100798 0.000700042 0)
(0.010046 0.000709671 0)
(0.0100097 0.000719936 0)
(0.00997094 0.00073095 0)
(0.00992966 0.000742825 0)
(0.00988592 0.00075567 0)
(0.00983978 0.000769579 0)
(0.00979126 0.000784635 0)
(0.00974041 0.000800907 0)
(0.00968725 0.000818474 0)
(0.00963181 0.000837458 0)
(0.00957403 0.000858102 0)
(0.00951381 0.000880836 0)
(0.00945086 0.000906298 0)
(0.00938472 0.000935229 0)
(0.00931464 0.000968185 0)
(0.00923961 0.00100509 0)
(0.0091584 0.0010448 0)
(0.00906967 0.00108483 0)
(0.00897225 0.00112165 0)
(0.00886539 0.00115144 0)
(0.00874905 0.00117124 0)
(0.00862401 0.0011799 0)
(0.00849177 0.00117855 0)
(0.00835426 0.00117019 0)
(0.00821345 0.00115868 0)
(0.00807099 0.00114759 0)
(0.00792797 0.00113932 0)
(0.00778495 0.00113492 0)
(0.00764201 0.00113431 0)
(0.00749897 0.0011368 0)
(0.00735555 0.00114159 0)
(0.00721142 0.00114799 0)
(0.00706631 0.00115555 0)
(0.00691998 0.00116399 0)
(0.00677221 0.00117311 0)
(0.00662283 0.00118277 0)
(0.00647165 0.00119286 0)
(0.00631852 0.00120326 0)
(0.00616328 0.00121386 0)
(0.00600581 0.00122457 0)
(0.00584595 0.00123531 0)
(0.0056836 0.00124599 0)
(0.00551864 0.00125655 0)
(0.00535095 0.0012669 0)
(0.00518044 0.001277 0)
(0.005007 0.00128676 0)
(0.00483055 0.00129613 0)
(0.00465101 0.00130507 0)
(0.0044683 0.00131351 0)
(0.00428236 0.00132143 0)
(0.00409314 0.00132877 0)
(0.0039006 0.00133551 0)
(0.0037047 0.00134163 0)
(0.00350543 0.00134712 0)
(0.0033028 0.00135198 0)
(0.00309681 0.00135622 0)
(0.00288752 0.00135985 0)
(0.00267499 0.00136292 0)
(0.00245929 0.00136547 0)
(0.00224054 0.00136755 0)
(0.00201888 0.00136923 0)
(0.00179448 0.00137057 0)
(0.00156754 0.00137165 0)
(0.0013383 0.0013725 0)
(0.00110703 0.0013729 0)
(0.000874036 0.00137089 0)
(0.000639934 0.00135587 0)
(0.00040658 0.0012883 0)
(0.000188373 0.00106565 0)
(2.26252e-05 0.000513675 0)
(0.0100006 3.2108e-05 0)
(0.0100057 9.5593e-05 0)
(0.0100163 0.000156975 0)
(0.0100318 0.000214838 0)
(0.010051 0.000268211 0)
(0.0100724 0.000316629 0)
(0.0100948 0.000359987 0)
(0.0101173 0.000398403 0)
(0.0101391 0.000432157 0)
(0.0101594 0.000461661 0)
(0.0101776 0.000487412 0)
(0.0101934 0.000509932 0)
(0.0102065 0.000529733 0)
(0.0102167 0.00054729 0)
(0.010224 0.00056303 0)
(0.0102284 0.000577326 0)
(0.01023 0.000590492 0)
(0.0102287 0.000602789 0)
(0.0102247 0.000614431 0)
(0.010218 0.000625587 0)
(0.0102088 0.000636397 0)
(0.0101969 0.000646971 0)
(0.0101826 0.000657402 0)
(0.0101658 0.000667771 0)
(0.0101465 0.000678154 0)
(0.0101247 0.000688623 0)
(0.0101005 0.000699253 0)
(0.0100738 0.000710125 0)
(0.0100447 0.000721325 0)
(0.010013 0.000732946 0)
(0.00997882 0.000745086 0)
(0.00994217 0.000757847 0)
(0.00990305 0.000771334 0)
(0.00986149 0.00078565 0)
(0.00981752 0.000800894 0)
(0.00977117 0.000817157 0)
(0.0097225 0.000834521 0)
(0.00967154 0.000853059 0)
(0.00961833 0.000872861 0)
(0.00956289 0.000894085 0)
(0.0095052 0.000917034 0)
(0.00944514 0.00094225 0)
(0.00938249 0.000970532 0)
(0.00931682 0.00100283 0)
(0.00924752 0.00103993 0)
(0.00917376 0.00108198 0)
(0.00909456 0.00112794 0)
(0.00900893 0.00117533 0)
(0.00891595 0.0012204 0)
(0.008815 0.00125889 0)
(0.0087059 0.00128723 0)
(0.00858901 0.00130363 0)
(0.00846523 0.00130868 0)
(0.00833586 0.00130509 0)
(0.00820234 0.00129673 0)
(0.00806601 0.00128748 0)
(0.00792791 0.00128016 0)
(0.0077887 0.00127627 0)
(0.00764868 0.00127607 0)
(0.0075079 0.00127909 0)
(0.00736626 0.00128461 0)
(0.00722357 0.00129199 0)
(0.00707965 0.00130075 0)
(0.00693432 0.00131059 0)
(0.0067874 0.0013213 0)
(0.00663873 0.00133272 0)
(0.00648815 0.00134473 0)
(0.00633553 0.00135719 0)
(0.00618073 0.00137 0)
(0.00602361 0.00138305 0)
(0.00586405 0.00139625 0)
(0.00570192 0.00140951 0)
(0.00553713 0.00142276 0)
(0.00536956 0.00143592 0)
(0.0051991 0.00144891 0)
(0.00502567 0.00146167 0)
(0.00484918 0.00147412 0)
(0.00466955 0.00148621 0)
(0.00448669 0.00149788 0)
(0.00430056 0.00150908 0)
(0.00411109 0.00151976 0)
(0.00391825 0.00152987 0)
(0.00372199 0.00153939 0)
(0.00352232 0.00154829 0)
(0.00331921 0.00155655 0)
(0.0031127 0.00156416 0)
(0.00290282 0.00157112 0)
(0.00268962 0.00157745 0)
(0.00247319 0.00158315 0)
(0.00225364 0.00158827 0)
(0.0020311 0.00159283 0)
(0.00180574 0.00159688 0)
(0.00157776 0.00160044 0)
(0.00134737 0.00160353 0)
(0.00111484 0.00160588 0)
(0.000880482 0.00160529 0)
(0.000644915 0.00158992 0)