# vtk DataFile Version 2.0
sampleSurface
ASCII
DATASET POLYDATA
POINTS 652 double
0 0 0
0.02 0 0
0.02 0 0.1
0 0 0.1
0.04 0 0
0.04 0 0.1
0.06 0 0
0.06 0 0.1
0.08 0 0
0.08 0 0.1
0.1 0 0
0.1 0 0.1
0.12 0 0
0.12 0 0.1
0.14 0 0
0.14 0 0.1
0.16 0 0
0.16 0 0.1
0.18 0 0
0.18 0 0.1
0.2 0 0
0.2 0 0.1
0.22 0 0
0.22 0 0.1
0.24 0 0
0.24 0 0.1
0.26 0 0
0.26 0 0.1
0.28 0 0
0.28 0 0.1
0.3 0 0
0.3 0 0.1
0.32 0 0
0.32 0 0.1
0.34 0 0
0.34 0 0.1
0.36 0 0
0.36 0 0.1
0.38 0 0
0.38 0 0.1
0.4 0 0
0.4 0 0.1
0.42 0 0
0.42 0 0.1
0.44 0 0
0.44 0 0.1
0.46 0 0
0.46 0 0.1
0.48 0 0
0.48 0 0.1
0.5 0 0
0.5 0 0.1
0.52 0 0
0.52 0 0.1
0.54 0 0
0.54 0 0.1
0.56 0 0
0.56 0 0.1
0.58 0 0
0.58 0 0.1
0.6 0 0
0.6 0 0.1
0.62 0 0
0.62 0 0.1
0.64 0 0
0.64 0 0.1
0.66 0 0
0.66 0 0.1
0.68 0 0
0.68 0 0.1
0.7 0 0
0.7 0 0.1
0.72 0 0
0.72 0 0.1
0.74 0 0
0.74 0 0.1
0.76 0 0
0.76 0 0.1
0.78 0 0
0.78 0 0.1
0.8 0 0
0.8 0 0.1
0.82 0 0
0.82 0 0.1
0.84 0 0
0.84 0 0.1
0.86 0 0
0.86 0 0.1
0.88 0 0
0.88 0 0.1
0.9 0 0
0.9 0 0.1
0.92 0 0
0.92 0 0.1
0.94 0 0
0.94 0 0.1
0.96 0 0
0.96 0 0.1
0.98 0 0
0.98 0 0.1
1 0 0
1 0 0.1
1.02 0 0
1.02 0 0.1
1.04 0 0
1.04 0 0.1
1.06 0 0
1.06 0 0.1
1.08 0 0
1.08 0 0.1
1.1 0 0
1.1 0 0.1
1.12 0 0
1.12 0 0.1
1.14 0 0
1.14 0 0.1
1.16 0 0
1.16 0 0.1
1.18 0 0
1.18 0 0.1
1.2 0 0
1.2 0 0.1
1.22 0 0
1.22 0 0.1
1.24 0 0
1.24 0 0.1
1.26 0 0
1.26 0 0.1
1.28 0 0
1.28 0 0.1
1.3 0 0
1.3 0 0.1
1.32 0 0
1.32 0 0.1
1.34 0 0
1.34 0 0.1
1.36 0 0
1.36 0 0.1
1.38 0 0
1.38 0 0.1
1.4 0 0
1.4 0 0.1
1.42 0 0
1.42 0 0.1
1.44 0 0
1.44 0 0.1
1.46 0 0
1.46 0 0.1
1.48 0 0
1.48 0 0.1
1.5 0 0
1.5 0 0.1
1.52 0 0
1.52 0 0.1
1.54 0 0
1.54 0 0.1
1.56 0 0
1.56 0 0.1
1.58 0 0
1.58 0 0.1
1.6 0 0
1.6 0 0.1
1.62 0 0
1.62 0 0.1
1.64 0 0
1.64 0 0.1
1.66 0 0
1.66 0 0.1
1.68 0 0
1.68 0 0.1
1.7 0 0
1.7 0 0.1
1.72 0 0
1.72 0 0.1
1.74 0 0
1.74 0 0.1
1.76 0 0
1.76 0 0.1
1.78 0 0
1.78 0 0.1
1.8 0 0
1.8 0 0.1
1.82 0 0
1.82 0 0.1
1.84 0 0
1.84 0 0.1
1.86 0 0
1.86 0 0.1
1.88 0 0
1.88 0 0.1
1.9 0 0
1.9 0 0.1
1.92 0 0
1.92 0 0.1
1.94 0 0
1.94 0 0.1
1.96 0 0
1.96 0 0.1
1.98 0 0
1.98 0 0.1
2 0 0
2 0 0.1
2 0.02 0
2 0.02 0.1
2 0.04 0
2 0.04 0.1
2 0.06 0
2 0.06 0.1
2 0.08 0
2 0.08 0.1
2 0.1 0
2 0.1 0.1
2 0.12 0
2 0.12 0.1
2 0.14 0
2 0.14 0.1
2 0.16 0
2 0.16 0.1
2 0.18 0
2 0.18 0.1
2 0.2 0
2 0.2 0.1
2 0.22 0
2 0.22 0.1
2 0.24 0
2 0.24 0.1
2 0.26 0
2 0.26 0.1
2 0.28 0
2 0.28 0.1
2 0.3 0
2 0.3 0.1
2 0.32 0
2 0.32 0.1
2 0.34 0
2 0.34 0.1
2 0.36 0
2 0.36 0.1
2 0.38 0
2 0.38 0.1
2 0.4 0
2 0.4 0.1
2 0.42 0
2 0.42 0.1
2 0.44 0
2 0.44 0.1
2 0.46 0
2 0.46 0.1
2 0.48 0
2 0.48 0.1
2 0.5 0
2 0.5 0.1
2 0.52 0
2 0.52 0.1
2 0.54 0
2 0.54 0.1
2 0.56 0
2 0.56 0.1
2 0.58 0
2 0.58 0.1
2 0.6 0
2 0.6 0.1
2 0.62 0
2 0.62 0.1
2 0.64 0
2 0.64 0.1
2 0.66 0
2 0.66 0.1
2 0.68 0
2 0.68 0.1
2 0.7 0
2 0.7 0.1
2 0.72 0
2 0.72 0.1
2 0.74 0
2 0.74 0.1
2 0.76 0
2 0.76 0.1
2 0.78 0
2 0.78 0.1
2 0.8 0
2 0.8 0.1
2 0.82 0
2 0.82 0.1
2 0.84 0
2 0.84 0.1
2 0.86 0
2 0.86 0.1
2 0.88 0
2 0.88 0.1
2 0.9 0
2 0.9 0.1
2 0.92 0
2 0.92 0.1
2 0.94 0
2 0.94 0.1
2 0.96 0
2 0.96 0.1
2 0.98 0
2 0.98 0.1
2 1 0
2 1 0.1
2.02 1 0
2.02 1 0.1
2.04 1 0
2.04 1 0.1
2.06 1 0
2.06 1 0.1
2.08 1 0
2.08 1 0.1
2.1 1 0
2.1 1 0.1
2.12 1 0
2.12 1 0.1
2.14 1 0
2.14 1 0.1
2.16 1 0
2.16 1 0.1
2.18 1 0
2.18 1 0.1
2.2 1 0
2.2 1 0.1
2.22 1 0
2.22 1 0.1
2.24 1 0
2.24 1 0.1
2.26 1 0
2.26 1 0.1
2.28 1 0
2.28 1 0.1
2.3 1 0
2.3 1 0.1
2.32 1 0
2.32 1 0.1
2.34 1 0
2.34 1 0.1
2.36 1 0
2.36 1 0.1
2.38 1 0
2.38 1 0.1
2.4 1 0
2.4 1 0.1
2.42 1 0
2.42 1 0.1
2.44 1 0
2.44 1 0.1
2.46 1 0
2.46 1 0.1
2.48 1 0
2.48 1 0.1
2.5 1 0
2.5 1 0.1
2.5 0 0
2.5 0 0.1
2.5 0.02 0.1
2.5 0.02 0
2.5 0.04 0.1
2.5 0.04 0
2.5 0.06 0.1
2.5 0.06 0
2.5 0.08 0.1
2.5 0.08 0
2.5 0.1 0.1
2.5 0.1 0
2.5 0.12 0.1
2.5 0.12 0
2.5 0.14 0.1
2.5 0.14 0
2.5 0.16 0.1
2.5 0.16 0
2.5 0.18 0.1
2.5 0.18 0
2.5 0.2 0.1
2.5 0.2 0
2.5 0.22 0.1
2.5 0.22 0
2.5 0.24 0.1
2.5 0.24 0
2.5 0.26 0.1
2.5 0.26 0
2.5 0.28 0.1
2.5 0.28 0
2.5 0.3 0.1
2.5 0.3 0
2.5 0.32 0.1
2.5 0.32 0
2.5 0.34 0.1
2.5 0.34 0
2.5 0.36 0.1
2.5 0.36 0
2.5 0.38 0.1
2.5 0.38 0
2.5 0.4 0.1
2.5 0.4 0
2.5 0.42 0.1
2.5 0.42 0
2.5 0.44 0.1
2.5 0.44 0
2.5 0.46 0.1
2.5 0.46 0
2.5 0.48 0.1
2.5 0.48 0
2.5 0.5 0.1
2.5 0.5 0
2.5 0.52 0.1
2.5 0.52 0
2.5 0.54 0.1
2.5 0.54 0
2.5 0.56 0.1
2.5 0.56 0
2.5 0.58 0.1
2.5 0.58 0
2.5 0.6 0.1
2.5 0.6 0
2.5 0.62 0.1
2.5 0.62 0
2.5 0.64 0.1
2.5 0.64 0
2.5 0.66 0.1
2.5 0.66 0
2.5 0.68 0.1
2.5 0.68 0
2.5 0.7 0.1
2.5 0.7 0
2.5 0.72 0.1
2.5 0.72 0
2.5 0.74 0.1
2.5 0.74 0
2.5 0.76 0.1
2.5 0.76 0
2.5 0.78 0.1
2.5 0.78 0
2.5 0.8 0.1
2.5 0.8 0
2.5 0.82 0.1
2.5 0.82 0
2.5 0.84 0.1
2.5 0.84 0
2.5 0.86 0.1
2.5 0.86 0
2.5 0.88 0.1
2.5 0.88 0
2.5 0.9 0.1
2.5 0.9 0
2.5 0.92 0.1
2.5 0.92 0
2.5 0.94 0.1
2.5 0.94 0
2.5 0.96 0.1
2.5 0.96 0
2.5 0.98 0.1
2.5 0.98 0
2.52 0 0
2.52 0 0.1
2.54 0 0
2.54 0 0.1
2.56 0 0
2.56 0 0.1
2.58 0 0
2.58 0 0.1
2.6 0 0
2.6 0 0.1
2.62 0 0
2.62 0 0.1
2.64 0 0
2.64 0 0.1
2.66 0 0
2.66 0 0.1
2.68 0 0
2.68 0 0.1
2.7 0 0
2.7 0 0.1
2.72 0 0
2.72 0 0.1
2.74 0 0
2.74 0 0.1
2.76 0 0
2.76 0 0.1
2.78 0 0
2.78 0 0.1
2.8 0 0
2.8 0 0.1
2.82 0 0
2.82 0 0.1
2.84 0 0
2.84 0 0.1
2.86 0 0
2.86 0 0.1
2.88 0 0
2.88 0 0.1
2.9 0 0
2.9 0 0.1
2.92 0 0
2.92 0 0.1
2.94 0 0
2.94 0 0.1
2.96 0 0
2.96 0 0.1
2.98 0 0
2.98 0 0.1
3 0 0
3 0 0.1
3.02 0 0
3.02 0 0.1
3.04 0 0
3.04 0 0.1
3.06 0 0
3.06 0 0.1
3.08 0 0
3.08 0 0.1
3.1 0 0
3.1 0 0.1
3.12 0 0
3.12 0 0.1
3.14 0 0
3.14 0 0.1
3.16 0 0
3.16 0 0.1
3.18 0 0
3.18 0 0.1
3.2 0 0
3.2 0 0.1
3.22 0 0
3.22 0 0.1
3.24 0 0
3.24 0 0.1
3.26 0 0
3.26 0 0.1
3.28 0 0
3.28 0 0.1
3.3 0 0
3.3 0 0.1
3.32 0 0
3.32 0 0.1
3.34 0 0
3.34 0 0.1
3.36 0 0
3.36 0 0.1
3.38 0 0
3.38 0 0.1
3.4 0 0
3.4 0 0.1
3.42 0 0
3.42 0 0.1
3.44 0 0
3.44 0 0.1
3.46 0 0
3.46 0 0.1
3.48 0 0
3.48 0 0.1
3.5 0 0
3.5 0 0.1
3.52 0 0
3.52 0 0.1
3.54 0 0
3.54 0 0.1
3.56 0 0
3.56 0 0.1
3.58 0 0
3.58 0 0.1
3.6 0 0
3.6 0 0.1
3.62 0 0
3.62 0 0.1
3.64 0 0
3.64 0 0.1
3.66 0 0
3.66 0 0.1
3.68 0 0
3.68 0 0.1
3.7 0 0
3.7 0 0.1
3.72 0 0
3.72 0 0.1
3.74 0 0
3.74 0 0.1
3.76 0 0
3.76 0 0.1
3.78 0 0
3.78 0 0.1
3.8 0 0
3.8 0 0.1
3.82 0 0
3.82 0 0.1
3.84 0 0
3.84 0 0.1
3.86 0 0
3.86 0 0.1
3.88 0 0
3.88 0 0.1
3.9 0 0
3.9 0 0.1
3.92 0 0
3.92 0 0.1
3.94 0 0
3.94 0 0.1
3.96 0 0
3.96 0 0.1
3.98 0 0
3.98 0 0.1
4 0 0
4 0 0.1
4.02 0 0
4.02 0 0.1
4.04 0 0
4.04 0 0.1
4.06 0 0
4.06 0 0.1
4.08 0 0
4.08 0 0.1
4.1 0 0
4.1 0 0.1
4.12 0 0
4.12 0 0.1
4.14 0 0
4.14 0 0.1
4.16 0 0
4.16 0 0.1
4.18 0 0
4.18 0 0.1
4.2 0 0
4.2 0 0.1
4.22 0 0
4.22 0 0.1
4.24 0 0
4.24 0 0.1
4.26 0 0
4.26 0 0.1
4.28 0 0
4.28 0 0.1
4.3 0 0
4.3 0 0.1
4.32 0 0
4.32 0 0.1
4.34 0 0
4.34 0 0.1
4.36 0 0
4.36 0 0.1
4.38 0 0
4.38 0 0.1
4.4 0 0
4.4 0 0.1
4.42 0 0
4.42 0 0.1
4.44 0 0
4.44 0 0.1
4.46 0 0
4.46 0 0.1
4.48 0 0
4.48 0 0.1
4.5 0 0
4.5 0 0.1

POLYGONS 325 1625
4 0 1 2 3
4 1 4 5 2
4 4 6 7 5
4 6 8 9 7
4 8 10 11 9
4 10 12 13 11
4 12 14 15 13
4 14 16 17 15
4 16 18 19 17
4 18 20 21 19
4 20 22 23 21
4 22 24 25 23
4 24 26 27 25
4 26 28 29 27
4 28 30 31 29
4 30 32 33 31
4 32 34 35 33
4 34 36 37 35
4 36 38 39 37
4 38 40 41 39
4 40 42 43 41
4 42 44 45 43
4 44 46 47 45
4 46 48 49 47
4 48 50 51 49
4 50 52 53 51
4 52 54 55 53
4 54 56 57 55
4 56 58 59 57
4 58 60 61 59
4 60 62 63 61
4 62 64 65 63
4 64 66 67 65
4 66 68 69 67
4 68 70 71 69
4 70 72 73 71
4 72 74 75 73
4 74 76 77 75
4 76 78 79 77
4 78 80 81 79
4 80 82 83 81
4 82 84 85 83
4 84 86 87 85
4 86 88 89 87
4 88 90 91 89
4 90 92 93 91
4 92 94 95 93
4 94 96 97 95
4 96 98 99 97
4 98 100 101 99
4 100 102 103 101
4 102 104 105 103
4 104 106 107 105
4 106 108 109 107
4 108 110 111 109
4 110 112 113 111
4 112 114 115 113
4 114 116 117 115
4 116 118 119 117
4 118 120 121 119
4 120 122 123 121
4 122 124 125 123
4 124 126 127 125
4 126 128 129 127
4 128 130 131 129
4 130 132 133 131
4 132 134 135 133
4 134 136 137 135
4 136 138 139 137
4 138 140 141 139
4 140 142 143 141
4 142 144 145 143
4 144 146 147 145
4 146 148 149 147
4 148 150 151 149
4 150 152 153 151
4 152 154 155 153
4 154 156 157 155
4 156 158 159 157
4 158 160 161 159
4 160 162 163 161
4 162 164 165 163
4 164 166 167 165
4 166 168 169 167
4 168 170 171 169
4 170 172 173 171
4 172 174 175 173
4 174 176 177 175
4 176 178 179 177
4 178 180 181 179
4 180 182 183 181
4 182 184 185 183
4 184 186 187 185
4 186 188 189 187
4 188 190 191 189
4 190 192 193 191
4 192 194 195 193
4 194 196 197 195
4 196 198 199 197
4 198 200 201 199
4 200 202 203 201
4 202 204 205 203
4 204 206 207 205
4 206 208 209 207
4 208 210 211 209
4 210 212 213 211
4 212 214 215 213
4 214 216 217 215
4 216 218 219 217
4 218 220 221 219
4 220 222 223 221
4 222 224 225 223
4 224 226 227 225
4 226 228 229 227
4 228 230 231 229
4 230 232 233 231
4 232 234 235 233
4 234 236 237 235
4 236 238 239 237
4 238 240 241 239
4 240 242 243 241
4 242 244 245 243
4 244 246 247 245
4 246 248 249 247
4 248 250 251 249
4 250 252 253 251
4 252 254 255 253
4 254 256 257 255
4 256 258 259 257
4 258 260 261 259
4 260 262 263 261
4 262 264 265 263
4 264 266 267 265
4 266 268 269 267
4 268 270 271 269
4 270 272 273 271
4 272 274 275 273
4 274 276 277 275
4 276 278 279 277
4 278 280 281 279
4 280 282 283 281
4 282 284 285 283
4 284 286 287 285
4 286 288 289 287
4 288 290 291 289
4 290 292 293 291
4 292 294 295 293
4 294 296 297 295
4 296 298 299 297
4 298 300 301 299
4 300 302 303 301
4 302 304 305 303
4 304 306 307 305
4 306 308 309 307
4 308 310 311 309
4 310 312 313 311
4 312 314 315 313
4 314 316 317 315
4 316 318 319 317
4 318 320 321 319
4 320 322 323 321
4 322 324 325 323
4 324 326 327 325
4 326 328 329 327
4 328 330 331 329
4 330 332 333 331
4 332 334 335 333
4 334 336 337 335
4 336 338 339 337
4 338 340 341 339
4 340 342 343 341
4 342 344 345 343
4 344 346 347 345
4 346 348 349 347
4 348 350 351 349
4 352 353 354 355
4 355 354 356 357
4 357 356 358 359
4 359 358 360 361
4 361 360 362 363
4 363 362 364 365
4 365 364 366 367
4 367 366 368 369
4 369 368 370 371
4 371 370 372 373
4 373 372 374 375
4 375 374 376 377
4 377 376 378 379
4 379 378 380 381
4 381 380 382 383
4 383 382 384 385
4 385 384 386 387
4 387 386 388 389
4 389 388 390 391
4 391 390 392 393
4 393 392 394 395
4 395 394 396 397
4 397 396 398 399
4 399 398 400 401
4 401 400 402 403
4 403 402 404 405
4 405 404 406 407
4 407 406 408 409
4 409 408 410 411
4 411 410 412 413
4 413 412 414 415
4 415 414 416 417
4 417 416 418 419
4 419 418 420 421
4 421 420 422 423
4 423 422 424 425
4 425 424 426 427
4 427 426 428 429
4 429 428 430 431
4 431 430 432 433
4 433 432 434 435
4 435 434 436 437
4 437 436 438 439
4 439 438 440 441
4 441 440 442 443
4 443 442 444 445
4 445 444 446 447
4 447 446 448 449
4 449 448 450 451
4 451 450 351 350
4 352 452 453 353
4 452 454 455 453
4 454 456 457 455
4 456 458 459 457
4 458 460 461 459
4 460 462 463 461
4 462 464 465 463
4 464 466 467 465
4 466 468 469 467
4 468 470 471 469
4 470 472 473 471
4 472 474 475 473
4 474 476 477 475
4 476 478 479 477
4 478 480 481 479
4 480 482 483 481
4 482 484 485 483
4 484 486 487 485
4 486 488 489 487
4 488 490 491 489
4 490 492 493 491
4 492 494 495 493
4 494 496 497 495
4 496 498 499 497
4 498 500 501 499
4 500 502 503 501
4 502 504 505 503
4 504 506 507 505
4 506 508 509 507
4 508 510 511 509
4 510 512 513 511
4 512 514 515 513
4 514 516 517 515
4 516 518 519 517
4 518 520 521 519
4 520 522 523 521
4 522 524 525 523
4 524 526 527 525
4 526 528 529 527
4 528 530 531 529
4 530 532 533 531
4 532 534 535 533
4 534 536 537 535
4 536 538 539 537
4 538 540 541 539
4 540 542 543 541
4 542 544 545 543
4 544 546 547 545
4 546 548 549 547
4 548 550 551 549
4 550 552 553 551
4 552 554 555 553
4 554 556 557 555
4 556 558 559 557
4 558 560 561 559
4 560 562 563 561
4 562 564 565 563
4 564 566 567 565
4 566 568 569 567
4 568 570 571 569
4 570 572 573 571
4 572 574 575 573
4 574 576 577 575
4 576 578 579 577
4 578 580 581 579
4 580 582 583 581
4 582 584 585 583
4 584 586 587 585
4 586 588 589 587
4 588 590 591 589
4 590 592 593 591
4 592 594 595 593
4 594 596 597 595
4 596 598 599 597
4 598 600 601 599
4 600 602 603 601
4 602 604 605 603
4 604 606 607 605
4 606 608 609 607
4 608 610 611 609
4 610 612 613 611
4 612 614 615 613
4 614 616 617 615
4 616 618 619 617
4 618 620 621 619
4 620 622 623 621
4 622 624 625 623
4 624 626 627 625
4 626 628 629 627
4 628 630 631 629
4 630 632 633 631
4 632 634 635 633
4 634 636 637 635
4 636 638 639 637
4 638 640 641 639
4 640 642 643 641
4 642 644 645 643
4 644 646 647 645
4 646 648 649 647
4 648 650 651 649
POINT_DATA 652
FIELD attributes 1
U 3 652 float
2.54693 0.0116654 0.0106156
1.27397 0.00583252 0.00530779
1.27397 0.00583252 0.00530779
2.54693 0.0116654 0.0106156
0.00100441 -5.28803e-07 0
0.00100441 -5.28803e-07 0
0.00100208 -1.36027e-06 0
0.00100208 -1.36027e-06 0
0.00100034 -2.56116e-06 0
0.00100034 -2.56116e-06 0
0.000999647 -2.8342e-06 0
0.000999647 -2.8342e-06 0
0.000999641 -1.3366e-06 0
0.000999641 -1.3366e-06 0
0.000998544 1.50011e-06 0
0.000998544 1.50011e-06 0
0.000994999 4.06629e-06 0
0.000994999 4.06629e-06 0
0.000989578 4.8333e-06 0
0.000989578 4.8333e-06 0
0.000984131 3.64099e-06 0
0.000984131 3.64099e-06 0
0.000980161 1.71288e-06 0
0.000980161 1.71288e-06 0
0.000978005 4.76896e-07 0
0.000978005 4.76896e-07 0
0.00097719 5.13233e-07 0
0.00097719 5.13233e-07 0
0.000976994 1.44476e-06 0
0.000976994 1.44476e-06 0
0.000976632 2.45065e-06 0
0.000976632 2.45065e-06 0
0.000975337 2.8416e-06 0
0.000975337 2.8416e-06 0
0.00097261 2.41535e-06 0
0.00097261 2.41535e-06 0
0.000968584 1.48307e-06 0
0.000968584 1.48307e-06 0
0.000964096 6.27628e-07 0
0.000964096 6.27628e-07 0
0.000960133 3.92935e-07 0
0.000960133 3.92935e-07 0
0.000957057 1.0348e-06 0
0.000957057 1.0348e-06 0
0.000954295 2.32491e-06 0
0.000954295 2.32491e-06 0
0.000950843 3.57299e-06 0
0.000950843 3.57299e-06 0
0.000946152 4.04293e-06 0
0.000946152 4.04293e-06 0
0.000940564 3.50604e-06 0
0.000940564 3.50604e-06 0
0.000934877 2.42691e-06 0
0.000934877 2.42691e-06 0
0.000929546 1.56106e-06 0
0.000929546 1.56106e-06 0
0.000924392 1.29656e-06 0
0.000924392 1.29656e-06 0
0.000919018 1.38018e-06 0
0.000919018 1.38018e-06 0
0.000913366 1.32469e-06 0
0.000913366 1.32469e-06 0
0.000907753 1.06838e-06 0
0.000907753 1.06838e-06 0
0.000902408 1.14207e-06 0
0.000902408 1.14207e-06 0
0.000897113 2.09713e-06 0
0.000897113 2.09713e-06 0
0.000891368 3.79959e-06 0
0.000891368 3.79959e-06 0
0.000884919 5.38954e-06 0
0.000884919 5.38954e-06 0
0.000878027 6.01342e-06 0
0.000878027 6.01342e-06 0
0.000871152 5.63059e-06 0
0.000871152 5.63059e-06 0
0.000864385 5.07561e-06 0
0.000864385 5.07561e-06 0
0.000857254 5.28162e-06 0
0.000857254 5.28162e-06 0
0.000849135 6.41069e-06 0
0.000849135 6.41069e-06 0
0.000839897 7.71798e-06 0
0.000839897 7.71798e-06 0
0.000830109 8.25932e-06 0
0.000830109 8.25932e-06 0
0.000820594 7.77206e-06 0
0.000820594 7.77206e-06 0
0.000811706 6.92379e-06 0
0.000811706 6.92379e-06 0
0.000802933 6.74572e-06 0
0.000802933 6.74572e-06 0
0.000793142 7.79448e-06 0
0.000793142 7.79448e-06 0
0.000781258 9.73206e-06 0
0.000781258 9.73206e-06 0
0.000766929 1.16056e-05 0
0.000766929 1.16056e-05 0
0.00075072 1.25351e-05 0
0.00075072 1.25351e-05 0
0.000733742 1.22368e-05 0
0.000733742 1.22368e-05 0
0.000717079 1.10448e-05 0
0.000717079 1.10448e-05 0
0.000701375 9.56044e-06 0
0.000701375 9.56044e-06 0
0.000686762 8.27848e-06 0
0.000686762 8.27848e-06 0
0.000673016 7.42229e-06 0
0.000673016 7.42229e-06 0
0.000659777 6.98411e-06 0
0.000659777 6.98411e-06 0
0.000646711 6.84507e-06 0
0.000646711 6.84507e-06 0
0.000633585 6.87576e-06 0
0.000633585 6.87576e-06 0
0.000620268 6.98366e-06 0
0.000620268 6.98366e-06 0
0.000606703 7.11935e-06 0
0.000606703 7.11935e-06 0
0.000592869 7.26271e-06 0
0.000592869 7.26271e-06 0
0.000578765 7.40658e-06 0
0.000578765 7.40658e-06 0
0.000564391 7.54857e-06 0
0.000564391 7.54857e-06 0
0.000549748 7.68808e-06 0
0.000549748 7.68808e-06 0
0.00053484 7.82405e-06 0
0.00053484 7.82405e-06 0
0.000519668 7.9552e-06 0
0.000519668 7.9552e-06 0
0.000504236 8.08094e-06 0
0.000504236 8.08094e-06 0
0.000488547 8.20035e-06 0
0.000488547 8.20035e-06 0
0.000472607 8.311e-06 0
0.000472607 8.311e-06 0
0.000456422 8.41041e-06 0
0.000456422 8.41041e-06 0
0.000440002 8.49738e-06 0
0.000440002 8.49738e-06 0
0.000423362 8.57034e-06 0
0.000423362 8.57034e-06 0
0.000406513 8.62681e-06 0
0.000406513 8.62681e-06 0
0.000389474 8.66358e-06 0
0.000389474 8.66358e-06 0
0.000372266 8.67767e-06 0
0.000372266 8.67767e-06 0
0.000354915 8.66713e-06 0
0.000354915 8.66713e-06 0
0.000337449 8.62894e-06 0
0.000337449 8.62894e-06 0
0.000319902 8.55913e-06 0
0.000319902 8.55913e-06 0
0.000302313 8.45433e-06 0
0.000302313 8.45433e-06 0
0.000284725 8.31162e-06 0
0.000284725 8.31162e-06 0
0.000267187 8.12828e-06 0
0.000267187 8.12828e-06 0
0.00024975 7.9021e-06 0
0.00024975 7.9021e-06 0
0.000232473 7.63128e-06 0
0.000232473 7.63128e-06 0
0.000215414 7.3146e-06 0
0.000215414 7.3146e-06 0
0.000198638 6.95226e-06 0
0.000198638 6.95226e-06 0
0.000182207 6.54602e-06 0
0.000182207 6.54602e-06 0
0.000166185 6.099e-06 0
0.000166185 6.099e-06 0
0.000150634 5.61605e-06 0
0.000150634 5.61605e-06 0
0.000135606 5.10372e-06 0
0.000135606 5.10372e-06 0
0.000121152 4.57042e-06 0
0.000121152 4.57042e-06 0
0.000107309 4.02636e-06 0
0.000107309 4.02636e-06 0
9.41025e-05 3.48306e-06 0
9.41025e-05 3.48306e-06 0
8.15438e-05 2.95281e-06 0
8.15438e-05 2.95281e-06 0
6.96274e-05 2.44844e-06 0
6.96274e-05 2.44844e-06 0
5.83296e-05 1.98294e-06 0
5.83296e-05 1.98294e-06 0
4.76084e-05 1.56828e-06 0
4.76084e-05 1.56828e-06 0
3.74041e-05 1.215e-06 0
3.74041e-05 1.215e-06 0
2.76372e-05 9.30427e-07 0
2.76372e-05 9.30427e-07 0
1.822e-05 7.14254e-07 0
1.822e-05 7.14254e-07 0
9.04298e-06 5.86217e-07 0
9.04298e-06 5.86217e-07 0
4.49768e-06 5.49824e-07 0
4.49768e-06 5.49824e-07 0
7.6163e-06 9.13681e-06 0
7.6163e-06 9.13681e-06 0
1.14049e-05 3.04909e-05 0
1.14049e-05 3.04909e-05 0
1.18688e-05 5.48889e-05 0
1.18688e-05 5.48889e-05 0
1.13149e-05 7.80103e-05 0
1.13149e-05 7.80103e-05 0
1.07014e-05 0.000100149 0
1.07014e-05 0.000100149 0
1.02862e-05 0.000121056 0
1.02862e-05 0.000121056 0
1.00778e-05 0.000141405 0
1.00778e-05 0.000141405 0
1.00168e-05 0.000161539 0
1.00168e-05 0.000161539 0
1.00437e-05 0.000181652 0
1.00437e-05 0.000181652 0
1.01177e-05 0.00020187 0
1.01177e-05 0.00020187 0
1.02156e-05 0.000222265 0
1.02156e-05 0.000222265 0
1.03258e-05 0.000242871 0
1.03258e-05 0.000242871 0
1.04438e-05 0.000263706 0
1.04438e-05 0.000263706 0
1.05688e-05 0.000284783 0
1.05688e-05 0.000284783 0
1.07015e-05 0.000306116 0
1.07015e-05 0.000306116 0
1.08434e-05 0.000327722 0
1.08434e-05 0.000327722 0
1.09955e-05 0.000349622 0
1.09955e-05 0.000349622 0
1.11594e-05 0.000371835 0
1.11594e-05 0.000371835 0
1.13367e-05 0.000394389 0
1.13367e-05 0.000394389 0
1.15292e-05 0.000417312 0
1.15292e-05 0.000417312 0
1.17382e-05 0.000440635 0
1.17382e-05 0.000440635 0
1.19654e-05 0.000464392 0
1.19654e-05 0.000464392 0
1.22124e-05 0.000488621 0
1.22124e-05 0.000488621 0
1.24825e-05 0.000513366 0
1.24825e-05 0.000513366 0
1.27767e-05 0.000538673 0
1.27767e-05 0.000538673 0
1.30996e-05 0.000564595 0
1.30996e-05 0.000564595 0
1.34523e-05 0.000591189 0
1.34523e-05 0.000591189 0
1.3843e-05 0.000618526 0
1.3843e-05 0.000618526 0
1.42692e-05 0.000646671 0
1.42692e-05 0.000646671 0
1.47468e-05 0.000675724 0
1.47468e-05 0.000675724 0
1.52668e-05 0.000705758 0
1.52668e-05 0.000705758 0
1.58638e-05 0.000736922 0
1.58638e-05 0.000736922 0
1.65021e-05 0.000769286 0
1.65021e-05 0.000769286 0
1.72708e-05 0.000803091 0
1.72708e-05 0.000803091 0
1.80589e-05 0.00083838 0
1.80589e-05 0.00083838 0
1.90942e-05 0.000875568 0
1.90942e-05 0.000875568 0
2.00646e-05 0.000914608 0
2.00646e-05 0.000914608 0
2.15474e-05 0.000956258 0
2.15474e-05 0.000956258 0
2.27141e-05 0.00100025 0
2.27141e-05 0.00100025 0
2.50249e-05 0.00104802 0
2.50249e-05 0.00104802 0
2.63511e-05 0.00109883 0
2.63511e-05 0.00109883 0
3.03185e-05 0.00115544 0
3.03185e-05 0.00115544 0
3.16522e-05 0.00121622 0
3.16522e-05 0.00121622 0
3.92299e-05 0.00128664 0
3.92299e-05 0.00128664 0
4.04964e-05 0.00136403 0
4.04964e-05 0.00136403 0
5.73057e-05 0.0014588 0
5.73057e-05 0.0014588 0
6.04508e-05 0.00157025 0
6.04508e-05 0.00157025 0
0.00010693 0.00171689 0
0.00010693 0.00171689 0
0.000129015 0.00191265 0
0.000129015 0.00191265 0
9.46791e-05 0.00121082 0
9.46791e-05 0.00121082 0
-0.000389514 0.000216207 0
-0.000389514 0.000216207 0
-0.000634532 -2.68289e-05 0
-0.000634532 -2.68289e-05 0
-0.000575283 -0.00025388 0
-0.000575283 -0.00025388 0
-0.000257378 -0.000554962 0
-0.000257378 -0.000554962 0
0.000535869 -0.000543668 0
0.000535869 -0.000543668 0
0.00103464 -0.000296123 0
0.00103464 -0.000296123 0
0.00120796 -8.42883e-05 0
0.00120796 -8.42883e-05 0
0.000987793 8.65606e-05 0
0.000987793 8.65606e-05 0
0.000663861 9.49062e-05 0
0.000663861 9.49062e-05 0
0.000350299 0.000110745 0
0.000350299 0.000110745 0
-0.000228703 0.000332564 0
-0.000228703 0.000332564 0
-0.00102028 0.000471518 0
-0.00102028 0.000471518 0
-0.00171749 0.000435938 0
-0.00171749 0.000435938 0
-0.00229381 0.00037282 0
-0.00229381 0.00037282 0
-0.00274408 0.000303508 0
-0.00274408 0.000303508 0
-0.0030644 0.000233752 0
-0.0030644 0.000233752 0
-0.00325481 0.000168173 0
-0.00325481 0.000168173 0
-0.00331962 0.000111282 0
-0.00331962 0.000111282 0
-0.00327248 6.74714e-05 0
-0.00327248 6.74714e-05 0
-0.00313382 4.04323e-05 0
-0.00313382 4.04323e-05 0
-0.00292241 3.75481e-05 0
-0.00292241 3.75481e-05 0
-0.00264508 7.07655e-05 0
-0.00264508 7.07655e-05 0
-0.00233468 0.000142505 0
-0.00233468 0.000142505 0
-0.0022368 0.000252478 0
-0.0022368 0.000252478 0
-0.00125286 0.00074991 0
-0.00125286 0.00074991 0
-8.2192e-06 7.44704e-06 0
-8.2192e-06 7.44704e-06 0
-8.45278e-06 1.53508e-05 0
-8.45278e-06 1.53508e-05 0
-8.62441e-06 3.13552e-05 0
-8.62441e-06 3.13552e-05 0
-8.57637e-06 4.73901e-05 0
-8.57637e-06 4.73901e-05 0
-8.63245e-06 6.33829e-05 0
-8.63245e-06 6.33829e-05 0
-8.72826e-06 7.96162e-05 0
-8.72826e-06 7.96162e-05 0
-8.84454e-06 9.61025e-05 0
-8.84454e-06 9.61025e-05 0
-8.97731e-06 0.000112885 0
-8.97731e-06 0.000112885 0
-9.12429e-06 0.000130003 0
-9.12429e-06 0.000130003 0
-9.28279e-06 0.000147489 0
-9.28279e-06 0.000147489 0
-9.44868e-06 0.000165369 0
-9.44868e-06 0.000165369 0
-9.61732e-06 0.000183657 0
-9.61732e-06 0.000183657 0
-9.7832e-06 0.00020236 0
-9.7832e-06 0.00020236 0
-9.9394e-06 0.000221469 0
-9.9394e-06 0.000221469 0
-1.00777e-05 0.000240961 0
-1.00777e-05 0.000240961 0
-1.01895e-05 0.000260794 0
-1.01895e-05 0.000260794 0
-1.02624e-05 0.000280908 0
-1.02624e-05 0.000280908 0
-1.02855e-05 0.000301214 0
-1.02855e-05 0.000301214 0
-1.02439e-05 0.000321602 0
-1.02439e-05 0.000321602 0
-1.01218e-05 0.000341928 0
-1.01218e-05 0.000341928 0
-9.90602e-06 0.000362016 0
-9.90602e-06 0.000362016 0
-9.57717e-06 0.000381661 0
-9.57717e-06 0.000381661 0
-9.11835e-06 0.000400613 0
-9.11835e-06 0.000400613 0
-8.51875e-06 0.000418582 0
-8.51875e-06 0.000418582 0
-7.76216e-06 0.000435263 0
-7.76216e-06 0.000435263 0
-6.82649e-06 0.000450302 0
-6.82649e-06 0.000450302 0
-5.70171e-06 0.000463321 0
-5.70171e-06 0.000463321 0
-4.38948e-06 0.000473918 0
-4.38948e-06 0.000473918 0
-2.87822e-06 0.000481709 0
-2.87822e-06 0.000481709 0
-1.13227e-06 0.000486282 0
-1.13227e-06 0.000486282 0
9.03839e-07 0.000487228 0
9.03839e-07 0.000487228 0
3.23761e-06 0.000484047 0
3.23761e-06 0.000484047 0
5.81171e-06 0.00047637 0
5.81171e-06 0.00047637 0
8.58843e-06 0.000463948 0
8.58843e-06 0.000463948 0
1.15666e-05 0.000446436 0
1.15666e-05 0.000446436 0
1.46726e-05 0.000423785 0
1.46726e-05 0.000423785 0
1.78919e-05 0.000395444 0
1.78919e-05 0.000395444 0
2.11657e-05 0.000362422 0
2.11657e-05 0.000362422 0
2.47507e-05 0.000321869 0
2.47507e-05 0.000321869 0
2.86663e-05 0.000279388 0
2.86663e-05 0.000279388 0
3.30424e-05 0.000224402 0
3.30424e-05 0.000224402 0
3.88106e-05 0.000171167 0
3.88106e-05 0.000171167 0
4.57819e-05 9.78882e-05 0
4.57819e-05 9.78882e-05 0
5.26664e-05 2.79762e-05 0
5.26664e-05 2.79762e-05 0
3.66272e-05 -6.62408e-05 0
3.66272e-05 -6.62408e-05 0
-1.87813e-05 -0.000103341 0
-1.87813e-05 -0.000103341 0
-0.00013597 -0.00014102 0
-0.00013597 -0.00014102 0
-0.00019013 5.16985e-05 0
-0.00019013 5.16985e-05 0
-0.000317833 9.4628e-05 0
-0.000317833 9.4628e-05 0
-0.000342054 0.000523057 0
-0.000342054 0.000523057 0
-1.53268e-05 7.24966e-06 0
-1.53268e-05 7.24966e-06 0
-2.9753e-05 7.1278e-06 0
-2.9753e-05 7.1278e-06 0
-4.45405e-05 7.19721e-06 0
-4.45405e-05 7.19721e-06 0
-5.92372e-05 7.1612e-06 0
-5.92372e-05 7.1612e-06 0
-7.37125e-05 7.08992e-06 0
-7.37125e-05 7.08992e-06 0
-8.79708e-05 6.99149e-06 0
-8.79708e-05 6.99149e-06 0
-0.000101899 6.85826e-06 0
-0.000101899 6.85826e-06 0
-0.000115469 6.68375e-06 0
-0.000115469 6.68375e-06 0
-0.000128566 6.46382e-06 0
-0.000128566 6.46382e-06 0
-0.000141138 6.19761e-06 0
-0.000141138 6.19761e-06 0
-0.000153068 5.88295e-06 0
-0.000153068 5.88295e-06 0
-0.000164273 5.5149e-06 0
-0.000164273 5.5149e-06 0
-0.000174642 5.08977e-06 0
-0.000174642 5.08977e-06 0
-0.00018408 4.60596e-06 0
-0.00018408 4.60596e-06 0
-0.000192482 4.0633e-06 0
-0.000192482 4.0633e-06 0
-0.000199749 3.46342e-06 0
-0.000199749 3.46342e-06 0
-0.000205789 2.81046e-06 0
-0.000205789 2.81046e-06 0
-0.000210514 2.11091e-06 0
-0.000210514 2.11091e-06 0
-0.000213849 1.37368e-06 0
-0.000213849 1.37368e-06 0
-0.000215727 6.10668e-07 0
-0.000215727 6.10668e-07 0
-0.000216095 -1.64676e-07 0
-0.000216095 -1.64676e-07 0
-0.000214934 -9.39814e-07 0
-0.000214934 -9.39814e-07 0
-0.000212236 -1.71163e-06 0
-0.000212236 -1.71163e-06 0
-0.00020799 -2.48162e-06 0
-0.00020799 -2.48162e-06 0
-0.000202204 -3.24519e-06 0
-0.000202204 -3.24519e-06 0
-0.000194895 -3.99554e-06 0
-0.000194895 -3.99554e-06 0
-0.000186099 -4.72572e-06 0
-0.000186099 -4.72572e-06 0
-0.000175862 -5.42904e-06 0
-0.000175862 -5.42904e-06 0
-0.000164247 -6.09924e-06 0
-0.000164247 -6.09924e-06 0
-0.000151324 -6.73085e-06 0
-0.000151324 -6.73085e-06 0
-0.000137178 -7.31916e-06 0
-0.000137178 -7.31916e-06 0
-0.000121899 -7.86029e-06 0
-0.000121899 -7.86029e-06 0
-0.000105586 -8.35172e-06 0
-0.000105586 -8.35172e-06 0
-8.83397e-05 -8.79121e-06 0
-8.83397e-05 -8.79121e-06 0
-7.02685e-05 -9.17793e-06 0
-7.02685e-05 -9.17793e-06 0
-5.14801e-05 -9.51203e-06 0
-5.14801e-05 -9.51203e-06 0
-3.20787e-05 -9.79328e-06 0
-3.20787e-05 -9.79328e-06 0
-1.21527e-05 -1.00238e-05 0
-1.21527e-05 -1.00238e-05 0
8.2019e-06 -1.02058e-05 0
8.2019e-06 -1.02058e-05 0
2.88641e-05 -1.03409e-05 0
2.88641e-05 -1.03409e-05 0
4.9736e-05 -1.04322e-05 0
4.9736e-05 -1.04322e-05 0
7.07437e-05 -1.04827e-05 0
7.07437e-05 -1.04827e-05 0
9.18128e-05 -1.04954e-05 0
9.18128e-05 -1.04954e-05 0
0.000112873 -1.04735e-05 0
0.000112873 -1.04735e-05 0
0.000133858 -1.04205e-05 0
0.000133858 -1.04205e-05 0
0.000154707 -1.03395e-05 0
0.000154707 -1.03395e-05 0
0.000175368 -1.02338e-05 0
0.000175368 -1.02338e-05 0
0.000195794 -1.01063e-05 0
0.000195794 -1.01063e-05 0
0.000215945 -9.9603e-06 0
0.000215945 -9.9603e-06 0
0.000235787 -9.79835e-06 0
0.000235787 -9.79835e-06 0
0.00025529 -9.62285e-06 0
0.00025529 -9.62285e-06 0
0.000274429 -9.43612e-06 0
0.000274429 -9.43612e-06 0
0.000293184 -9.24057e-06 0
0.000293184 -9.24057e-06 0
0.00031154 -9.03822e-06 0
0.00031154 -9.03822e-06 0
0.000329485 -8.83071e-06 0
0.000329485 -8.83071e-06 0
0.00034701 -8.61945e-06 0
0.00034701 -8.61945e-06 0
0.000364109 -8.40596e-06 0
0.000364109 -8.40596e-06 0
0.000380779 -8.19165e-06 0
0.000380779 -8.19165e-06 0
0.000397019 -7.97736e-06 0
0.000397019 -7.97736e-06 0
0.00041283 -7.76411e-06 0
0.00041283 -7.76411e-06 0
0.000428216 -7.55277e-06 0
0.000428216 -7.55277e-06 0
0.000443181 -7.34403e-06 0
0.000443181 -7.34403e-06 0
0.00045773 -7.13832e-06 0
0.00045773 -7.13832e-06 0
0.000471869 -6.9358e-06 0
0.000471869 -6.9358e-06 0
0.000485608 -6.73727e-06 0
0.000485608 -6.73727e-06 0
0.000498953 -6.54341e-06 0
0.000498953 -6.54341e-06 0
0.000511914 -6.35423e-06 0
0.000511914 -6.35423e-06 0
0.000524501 -6.16968e-06 0
0.000524501 -6.16968e-06 0
0.000536722 -5.98994e-06 0
0.000536722 -5.98994e-06 0
0.000548587 -5.81491e-06 0
0.000548587 -5.81491e-06 0
0.000560106 -5.64477e-06 0
0.000560106 -5.64477e-06 0
0.00057129 -5.48002e-06 0
0.00057129 -5.48002e-06 0
0.000582149 -5.32048e-06 0
0.000582149 -5.32048e-06 0
0.000592692 -5.16581e-06 0
0.000592692 -5.16581e-06 0
0.00060293 -5.01604e-06 0
0.00060293 -5.01604e-06 0
0.000612873 -4.87121e-06 0
0.000612873 -4.87121e-06 0
0.00062253 -4.73118e-06 0
0.00062253 -4.73118e-06 0
0.000631911 -4.59591e-06 0
0.000631911 -4.59591e-06 0
0.000641026 -4.46512e-06 0
0.000641026 -4.46512e-06 0
0.000649883 -4.33896e-06 0
0.000649883 -4.33896e-06 0
0.000658492 -4.21752e-06 0
0.000658492 -4.21752e-06 0
0.00066686 -4.10047e-06 0
0.00066686 -4.10047e-06 0
0.000674999 -3.98743e-06 0
0.000674999 -3.98743e-06 0
0.000682913 -3.87838e-06 0
0.000682913 -3.87838e-06 0
0.000690615 -3.77339e-06 0
0.000690615 -3.77339e-06 0
0.000698106 -3.67246e-06 0
0.000698106 -3.67246e-06 0
0.000705406 -3.57529e-06 0
0.000705406 -3.57529e-06 0
0.000712502 -3.48182e-06 0
0.000712502 -3.48182e-06 0
0.000719431 -3.39164e-06 0
0.000719431 -3.39164e-06 0
0.000726157 -3.30519e-06 0
0.000726157 -3.30519e-06 0
0.000732753 -3.22176e-06 0
0.000732753 -3.22176e-06 0
0.000739122 -3.14256e-06 0
0.000739122 -3.14256e-06 0
0.000745431 -3.0652e-06 0
0.000745431 -3.0652e-06 0
0.000751437 -2.99209e-06 0
0.000751437 -2.99209e-06 0
0.000757531 -2.91953e-06 0
0.000757531 -2.91953e-06 0
0.000763127 -2.85394e-06 0
0.000763127 -2.85394e-06 0
0.000769135 -2.78551e-06 0
0.000769135 -2.78551e-06 0
0.000774172 -2.72826e-06 0
0.000774172 -2.72826e-06 0
0.982172 -0.00326192 0
0.982172 -0.00326192 0
1.96357 -0.00652113 0
1.96357 -0.00652113 0
