/*--------------------------------*- C++ -*----------------------------------*\
| =========                 |                                                 |
| \\      /  F ield         | OpenFOAM: The Open Source CFD Toolbox           |
|  \\    /   O peration     | Version:  4.1                                   |
|   \\  /    A nd           | Web:      www.OpenFOAM.org                      |
|    \\/     M anipulation  |                                                 |
\*---------------------------------------------------------------------------*/
FoamFile
{
    version     2.0;
    format      ascii;
    class       volScalarField;
    location    "97";
    object      p;
}
// * * * * * * * * * * * * * * * * * * * * * * * * * * * * * * * * * * * * * //

dimensions      [0 2 -2 0 0 0 0];

internalField   nonuniform List<scalar> 
43750
(
0.000102255
9.35492e-05
8.74366e-05
8.45338e-05
8.2434e-05
8.03694e-05
7.85785e-05
7.72275e-05
7.62633e-05
7.5591e-05
7.51484e-05
7.48899e-05
7.47723e-05
7.47571e-05
7.48139e-05
7.49211e-05
7.50635e-05
7.52314e-05
7.54185e-05
7.56218e-05
7.58398e-05
7.60726e-05
7.63209e-05
7.65859e-05
7.68689e-05
7.71713e-05
7.74945e-05
7.78394e-05
7.82069e-05
7.85971e-05
7.90096e-05
7.94435e-05
7.98972e-05
8.03688e-05
8.08562e-05
8.13573e-05
8.18701e-05
8.23933e-05
8.29258e-05
8.34672e-05
8.40174e-05
8.45766e-05
8.51453e-05
8.57239e-05
8.63126e-05
8.69114e-05
8.75199e-05
8.81376e-05
8.87635e-05
8.93963e-05
9.00347e-05
9.06775e-05
9.13235e-05
9.19717e-05
9.26214e-05
9.32721e-05
9.39233e-05
9.4575e-05
9.52269e-05
9.58789e-05
9.65308e-05
9.71824e-05
9.78334e-05
9.84835e-05
9.91322e-05
9.97792e-05
0.000100424
0.000101066
0.000101704
0.000102338
0.000102967
0.000103591
0.000104208
0.000104818
0.00010542
0.000106013
0.000106595
0.000107167
0.000107725
0.000108271
0.000108802
0.000109317
0.000109815
0.000110294
0.000110753
0.000111192
0.000111607
0.000111999
0.000112365
0.000112705
0.000113016
0.000113298
0.00011355
0.000113769
0.000113956
0.000114111
0.000114233
0.000114325
0.000114385
0.000114412
8.93406e-05
8.77592e-05
8.55043e-05
8.36285e-05
8.19787e-05
8.03183e-05
7.87845e-05
7.75443e-05
7.66164e-05
7.59489e-05
7.54922e-05
7.52072e-05
7.5057e-05
7.50073e-05
7.50306e-05
7.51067e-05
7.52215e-05
7.53655e-05
7.55324e-05
7.57188e-05
7.59227e-05
7.61438e-05
7.63824e-05
7.66392e-05
7.69152e-05
7.72118e-05
7.753e-05
7.78708e-05
7.82349e-05
7.86225e-05
7.90333e-05
7.94662e-05
7.99196e-05
8.03916e-05
8.08797e-05
8.13816e-05
8.18952e-05
8.24188e-05
8.29513e-05
8.34922e-05
8.40416e-05
8.45998e-05
8.51676e-05
8.57454e-05
8.63337e-05
8.69325e-05
8.75414e-05
8.81597e-05
8.87864e-05
8.94202e-05
9.00598e-05
9.07036e-05
9.13506e-05
9.19996e-05
9.265e-05
9.33011e-05
9.39528e-05
9.46048e-05
9.52569e-05
9.59092e-05
9.65613e-05
9.72131e-05
9.78644e-05
9.85147e-05
9.91636e-05
9.98108e-05
0.000100456
0.000101098
0.000101736
0.00010237
0.000103
0.000103624
0.000104241
0.000104851
0.000105453
0.000106046
0.000106628
0.000107199
0.000107758
0.000108304
0.000108835
0.000109349
0.000109847
0.000110326
0.000110786
0.000111224
0.000111639
0.000112031
0.000112397
0.000112737
0.000113048
0.000113329
0.000113581
0.0001138
0.000113987
0.000114141
0.000114262
0.000114351
0.00011441
0.000114439
8.73167e-05
8.65789e-05
8.49405e-05
8.3154e-05
8.16202e-05
8.02634e-05
7.90313e-05
7.79759e-05
7.71288e-05
7.64746e-05
7.59864e-05
7.56421e-05
7.54212e-05
7.53017e-05
7.52628e-05
7.5287e-05
7.53603e-05
7.54724e-05
7.56157e-05
7.57847e-05
7.59762e-05
7.61883e-05
7.64202e-05
7.66719e-05
7.69438e-05
7.72368e-05
7.75519e-05
7.78898e-05
7.82511e-05
7.86362e-05
7.90447e-05
7.94755e-05
7.99273e-05
8.03979e-05
8.08851e-05
8.13865e-05
8.19001e-05
8.24239e-05
8.2957e-05
8.34985e-05
8.40485e-05
8.4607e-05
8.51748e-05
8.57523e-05
8.634e-05
8.69382e-05
8.75468e-05
8.81652e-05
8.87925e-05
8.94273e-05
9.00681e-05
9.07133e-05
9.13615e-05
9.20117e-05
9.26629e-05
9.33148e-05
9.39671e-05
9.46196e-05
9.52724e-05
9.59253e-05
9.65782e-05
9.72308e-05
9.7883e-05
9.85342e-05
9.91842e-05
9.98325e-05
0.000100479
0.000101122
0.000101762
0.000102397
0.000103028
0.000103653
0.000104272
0.000104884
0.000105487
0.000106081
0.000106665
0.000107238
0.000107799
0.000108346
0.000108878
0.000109394
0.000109894
0.000110375
0.000110835
0.000111275
0.000111692
0.000112085
0.000112453
0.000112793
0.000113106
0.000113388
0.00011364
0.000113861
0.000114048
0.000114201
0.00011432
0.000114407
0.000114466
0.000114502
8.48533e-05
8.43365e-05
8.32923e-05
8.20599e-05
8.09113e-05
7.9866e-05
7.88915e-05
7.80174e-05
7.72833e-05
7.6696e-05
7.62423e-05
7.59072e-05
7.56767e-05
7.5536e-05
7.547e-05
7.5465e-05
7.55097e-05
7.55955e-05
7.57155e-05
7.58648e-05
7.604e-05
7.62389e-05
7.64602e-05
7.67033e-05
7.69684e-05
7.72557e-05
7.75657e-05
7.78988e-05
7.82555e-05
7.86358e-05
7.90393e-05
7.94651e-05
7.99119e-05
8.0378e-05
8.08613e-05
8.13597e-05
8.18713e-05
8.23943e-05
8.29276e-05
8.34703e-05
8.40221e-05
8.4583e-05
8.51532e-05
8.57331e-05
8.63227e-05
8.69222e-05
8.75314e-05
8.81498e-05
8.87768e-05
8.94113e-05
9.00519e-05
9.06973e-05
9.13459e-05
9.19966e-05
9.26485e-05
9.3301e-05
9.3954e-05
9.46073e-05
9.5261e-05
9.59149e-05
9.65689e-05
9.72229e-05
9.78766e-05
9.85296e-05
9.91814e-05
9.98318e-05
0.00010048
0.000101126
0.000101768
0.000102406
0.00010304
0.000103668
0.00010429
0.000104905
0.000105511
0.000106109
0.000106697
0.000107273
0.000107837
0.000108387
0.000108923
0.000109443
0.000109946
0.00011043
0.000110895
0.000111338
0.000111758
0.000112154
0.000112525
0.000112868
0.000113183
0.000113468
0.000113721
0.000113943
0.00011413
0.000114283
0.000114401
0.000114486
0.000114546
0.000114588
8.30559e-05
8.27615e-05
8.21055e-05
8.12381e-05
8.03437e-05
7.94919e-05
7.86893e-05
7.79562e-05
7.7322e-05
7.67995e-05
7.63844e-05
7.60673e-05
7.58388e-05
7.56889e-05
7.56068e-05
7.55825e-05
7.56071e-05
7.56736e-05
7.57762e-05
7.59103e-05
7.60728e-05
7.62612e-05
7.6474e-05
7.67103e-05
7.69696e-05
7.72518e-05
7.75569e-05
7.78851e-05
7.82364e-05
7.86107e-05
7.90075e-05
7.94261e-05
7.98653e-05
8.03239e-05
8.08002e-05
8.12925e-05
8.17992e-05
8.2319e-05
8.28507e-05
8.33936e-05
8.39473e-05
8.45115e-05
8.50861e-05
8.56708e-05
8.62652e-05
8.6869e-05
8.74815e-05
8.8102e-05
8.87299e-05
8.93643e-05
9.00041e-05
9.06484e-05
9.12961e-05
9.1946e-05
9.25975e-05
9.32499e-05
9.39031e-05
9.45568e-05
9.52112e-05
9.5866e-05
9.65213e-05
9.71768e-05
9.78322e-05
9.84873e-05
9.91415e-05
9.97944e-05
0.000100445
0.000101094
0.00010174
0.000102382
0.000103019
0.000103652
0.000104278
0.000104897
0.000105508
0.000106111
0.000106703
0.000107284
0.000107854
0.00010841
0.000108951
0.000109476
0.000109984
0.000110474
0.000110943
0.000111391
0.000111816
0.000112217
0.000112591
0.000112938
0.000113257
0.000113545
0.000113801
0.000114024
0.000114213
0.000114367
0.000114484
0.000114568
0.000114627
0.000114673
8.16663e-05
8.14779e-05
8.10305e-05
8.03971e-05
7.97033e-05
7.9021e-05
7.83711e-05
7.77685e-05
7.72337e-05
7.67803e-05
7.64105e-05
7.61203e-05
7.59044e-05
7.57566e-05
7.56696e-05
7.56362e-05
7.56498e-05
7.57044e-05
7.57954e-05
7.59189e-05
7.60717e-05
7.62517e-05
7.64571e-05
7.66869e-05
7.69404e-05
7.72171e-05
7.75169e-05
7.78394e-05
7.81847e-05
7.85522e-05
7.89417e-05
7.93523e-05
7.97832e-05
8.02332e-05
8.07011e-05
8.11856e-05
8.16856e-05
8.21999e-05
8.27277e-05
8.32684e-05
8.38216e-05
8.4387e-05
8.49645e-05
8.55537e-05
8.61537e-05
8.67636e-05
8.73822e-05
8.8008e-05
8.86398e-05
8.92764e-05
8.99169e-05
9.05608e-05
9.12072e-05
9.18558e-05
9.2506e-05
9.31575e-05
9.38101e-05
9.44637e-05
9.51183e-05
9.57737e-05
9.64299e-05
9.70866e-05
9.77436e-05
9.84005e-05
9.9057e-05
9.97124e-05
0.000100366
0.000101018
0.000101667
0.000102313
0.000102955
0.000103592
0.000104223
0.000104847
0.000105463
0.000106071
0.00010667
0.000107257
0.000107832
0.000108394
0.000108942
0.000109473
0.000109988
0.000110484
0.000110959
0.000111413
0.000111844
0.00011225
0.00011263
0.000112983
0.000113305
0.000113598
0.000113857
0.000114083
0.000114274
0.000114429
0.000114547
0.000114631
0.00011469
0.000114736
8.05264e-05
8.03935e-05
8.00741e-05
7.96082e-05
7.90773e-05
7.85379e-05
7.80137e-05
7.75193e-05
7.7071e-05
7.66819e-05
7.63577e-05
7.60982e-05
7.5901e-05
7.57624e-05
7.56778e-05
7.56422e-05
7.56505e-05
7.56982e-05
7.57815e-05
7.58971e-05
7.60423e-05
7.6215e-05
7.64137e-05
7.66373e-05
7.68848e-05
7.71557e-05
7.74496e-05
7.7766e-05
7.81048e-05
7.84653e-05
7.88472e-05
7.92498e-05
7.96722e-05
8.01135e-05
8.05728e-05
8.10491e-05
8.15414e-05
8.20488e-05
8.25708e-05
8.31069e-05
8.36567e-05
8.42202e-05
8.47973e-05
8.53876e-05
8.59905e-05
8.66049e-05
8.7229e-05
8.78609e-05
8.84983e-05
8.91395e-05
8.97831e-05
9.04284e-05
9.1075e-05
9.17228e-05
9.23719e-05
9.30223e-05
9.36741e-05
9.43271e-05
9.49815e-05
9.56371e-05
9.62938e-05
9.69513e-05
9.76095e-05
9.82679e-05
9.89261e-05
9.95837e-05
0.00010024
0.000100895
0.000101547
0.000102197
0.000102842
0.000103483
0.000104119
0.000104748
0.00010537
0.000105983
0.000106587
0.00010718
0.000107762
0.000108331
0.000108885
0.000109423
0.000109944
0.000110447
0.000110929
0.000111389
0.000111827
0.000112239
0.000112625
0.000112982
0.00011331
0.000113607
0.000113871
0.0001141
0.000114294
0.000114451
0.000114571
0.000114654
0.000114713
0.000114759
7.95628e-05
7.94661e-05
7.9233e-05
7.88863e-05
7.84788e-05
7.80523e-05
7.76291e-05
7.72238e-05
7.68505e-05
7.65208e-05
7.62414e-05
7.60144e-05
7.58394e-05
7.57145e-05
7.56371e-05
7.56038e-05
7.56112e-05
7.56559e-05
7.57347e-05
7.58451e-05
7.59849e-05
7.6152e-05
7.63452e-05
7.65633e-05
7.68053e-05
7.70707e-05
7.73589e-05
7.76694e-05
7.80017e-05
7.83554e-05
7.873e-05
7.91248e-05
7.95391e-05
7.99721e-05
8.04231e-05
8.08912e-05
8.13757e-05
8.18758e-05
8.23911e-05
8.29212e-05
8.34658e-05
8.4025e-05
8.45986e-05
8.51866e-05
8.57886e-05
8.64037e-05
8.70301e-05
8.76656e-05
8.83075e-05
8.89532e-05
8.96006e-05
9.02486e-05
9.08966e-05
9.1545e-05
9.21939e-05
9.28437e-05
9.34948e-05
9.41473e-05
9.48013e-05
9.54568e-05
9.61137e-05
9.67716e-05
9.74305e-05
9.80899e-05
9.87494e-05
9.94086e-05
0.000100067
0.000100724
0.000101379
0.000102031
0.00010268
0.000103325
0.000103964
0.000104598
0.000105224
0.000105843
0.000106452
0.000107051
0.000107639
0.000108213
0.000108773
0.000109318
0.000109846
0.000110354
0.000110843
0.00011131
0.000111753
0.000112172
0.000112563
0.000112926
0.000113259
0.00011356
0.000113828
0.000114061
0.000114259
0.000114418
0.00011454
0.000114625
0.000114683
0.00011473
7.87281e-05
7.86562e-05
7.84823e-05
7.82199e-05
7.79049e-05
7.75676e-05
7.72269e-05
7.68964e-05
7.65881e-05
7.6312e-05
7.6075e-05
7.58801e-05
7.57286e-05
7.56199e-05
7.55528e-05
7.55253e-05
7.55351e-05
7.55797e-05
7.56567e-05
7.57642e-05
7.59003e-05
7.60634e-05
7.62522e-05
7.64656e-05
7.67028e-05
7.69631e-05
7.72459e-05
7.75507e-05
7.7877e-05
7.82242e-05
7.85919e-05
7.89795e-05
7.93862e-05
7.98116e-05
8.02548e-05
8.07151e-05
8.11921e-05
8.1685e-05
8.21934e-05
8.2717e-05
8.32557e-05
8.38093e-05
8.43779e-05
8.49614e-05
8.55598e-05
8.61722e-05
8.67973e-05
8.74328e-05
8.80759e-05
8.87236e-05
8.93735e-05
9.00236e-05
9.06734e-05
9.13227e-05
9.1972e-05
9.26219e-05
9.32727e-05
9.39248e-05
9.45785e-05
9.52338e-05
9.58905e-05
9.65485e-05
9.72077e-05
9.78676e-05
9.85279e-05
9.91882e-05
9.9848e-05
0.000100507
0.000101164
0.000101818
0.00010247
0.000103117
0.00010376
0.000104397
0.000105028
0.00010565
0.000106264
0.000106868
0.00010746
0.00010804
0.000108606
0.000109156
0.000109689
0.000110204
0.000110698
0.000111171
0.00011162
0.000112044
0.00011244
0.000112808
0.000113146
0.000113452
0.000113723
0.00011396
0.00011416
0.000114323
0.000114447
0.000114532
0.000114592
0.000114638
7.79893e-05
7.79348e-05
7.78028e-05
7.76019e-05
7.73572e-05
7.70906e-05
7.68174e-05
7.65492e-05
7.62962e-05
7.60673e-05
7.58689e-05
7.57047e-05
7.55766e-05
7.54853e-05
7.54304e-05
7.54108e-05
7.54252e-05
7.54718e-05
7.55491e-05
7.56555e-05
7.57893e-05
7.59495e-05
7.61348e-05
7.63443e-05
7.65773e-05
7.6833e-05
7.71108e-05
7.74102e-05
7.77308e-05
7.80719e-05
7.84332e-05
7.8814e-05
7.92137e-05
7.96318e-05
8.00677e-05
8.05207e-05
8.09905e-05
8.14764e-05
8.19781e-05
8.24952e-05
8.30276e-05
8.35753e-05
8.41382e-05
8.47163e-05
8.53096e-05
8.59173e-05
8.65384e-05
8.71707e-05
8.78118e-05
8.84585e-05
8.91082e-05
8.97588e-05
9.04091e-05
9.10589e-05
9.17085e-05
9.23583e-05
9.30089e-05
9.36607e-05
9.4314e-05
9.49688e-05
9.56251e-05
9.62829e-05
9.69419e-05
9.76019e-05
9.82625e-05
9.89232e-05
9.95837e-05
0.000100243
0.000100902
0.000101558
0.000102211
0.000102861
0.000103506
0.000104146
0.00010478
0.000105406
0.000106023
0.000106631
0.000107227
0.000107811
0.000108381
0.000108936
0.000109474
0.000109994
0.000110493
0.000110971
0.000111424
0.000111853
0.000112254
0.000112626
0.000112968
0.000113277
0.000113553
0.000113792
0.000113995
0.00011416
0.000114286
0.000114373
0.000114433
0.000114479
7.7323e-05
7.72813e-05
7.71799e-05
7.70249e-05
7.6834e-05
7.66234e-05
7.64049e-05
7.61882e-05
7.59822e-05
7.57945e-05
7.56309e-05
7.54952e-05
7.53898e-05
7.5316e-05
7.52741e-05
7.52638e-05
7.52842e-05
7.53345e-05
7.54135e-05
7.552e-05
7.56528e-05
7.5811e-05
7.59937e-05
7.62e-05
7.64292e-05
7.66807e-05
7.69539e-05
7.72483e-05
7.75634e-05
7.78987e-05
7.82538e-05
7.86282e-05
7.90212e-05
7.94324e-05
7.98613e-05
8.03074e-05
8.07702e-05
8.12492e-05
8.17442e-05
8.22549e-05
8.2781e-05
8.33225e-05
8.38794e-05
8.44516e-05
8.5039e-05
8.56409e-05
8.62564e-05
8.68836e-05
8.75202e-05
8.81632e-05
8.88102e-05
8.94589e-05
9.01081e-05
9.07571e-05
9.1406e-05
9.20552e-05
9.27052e-05
9.33563e-05
9.40087e-05
9.46627e-05
9.53183e-05
9.59753e-05
9.66337e-05
9.72932e-05
9.79534e-05
9.8614e-05
9.92746e-05
9.99345e-05
0.000100593
0.00010125
0.000101905
0.000102556
0.000103203
0.000103844
0.00010448
0.000105109
0.000105729
0.000106339
0.000106939
0.000107526
0.0001081
0.000108659
0.0001092
0.000109724
0.000110227
0.000110708
0.000111166
0.000111598
0.000112003
0.000112379
0.000112724
0.000113036
0.000113314
0.000113557
0.000113762
0.000113928
0.000114056
0.000114144
0.000114204
0.000114251
7.67124e-05
7.66801e-05
7.66018e-05
7.64815e-05
7.63322e-05
7.6166e-05
7.5992e-05
7.58181e-05
7.56519e-05
7.54998e-05
7.53671e-05
7.52575e-05
7.51735e-05
7.51167e-05
7.5088e-05
7.50875e-05
7.5115e-05
7.51699e-05
7.52515e-05
7.53591e-05
7.54918e-05
7.56489e-05
7.58296e-05
7.60331e-05
7.6259e-05
7.65067e-05
7.67756e-05
7.70652e-05
7.73752e-05
7.77049e-05
7.80541e-05
7.84222e-05
7.88088e-05
7.92133e-05
7.96354e-05
8.00746e-05
8.05306e-05
8.10028e-05
8.14911e-05
8.19951e-05
8.25147e-05
8.30499e-05
8.36005e-05
8.41664e-05
8.47474e-05
8.53429e-05
8.59519e-05
8.65727e-05
8.72031e-05
8.78407e-05
8.84829e-05
8.91277e-05
8.97738e-05
9.04204e-05
9.10674e-05
9.1715e-05
9.23634e-05
9.3013e-05
9.3664e-05
9.43165e-05
9.49707e-05
9.56264e-05
9.62835e-05
9.69418e-05
9.7601e-05
9.82607e-05
9.89206e-05
9.95801e-05
0.000100239
0.000100896
0.00010155
0.000102202
0.000102849
0.000103492
0.000104129
0.000104759
0.000105381
0.000105993
0.000106595
0.000107185
0.000107762
0.000108323
0.000108867
0.000109394
0.0001099
0.000110384
0.000110845
0.00011128
0.000111687
0.000112066
0.000112413
0.000112728
0.000113008
0.000113253
0.000113459
0.000113627
0.000113756
0.000113845
0.000113905
0.000113952
7.61446e-05
7.61197e-05
7.60589e-05
7.59653e-05
7.58486e-05
7.57178e-05
7.558e-05
7.54417e-05
7.53091e-05
7.51877e-05
7.50822e-05
7.4996e-05
7.49318e-05
7.48912e-05
7.48754e-05
7.48848e-05
7.49197e-05
7.49798e-05
7.50648e-05
7.51742e-05
7.53075e-05
7.5464e-05
7.56432e-05
7.58445e-05
7.60675e-05
7.63116e-05
7.65765e-05
7.68616e-05
7.71665e-05
7.74909e-05
7.78343e-05
7.81964e-05
7.85766e-05
7.89746e-05
7.939e-05
7.98224e-05
8.02715e-05
8.07368e-05
8.12183e-05
8.17155e-05
8.22284e-05
8.27568e-05
8.33007e-05
8.38599e-05
8.44341e-05
8.50226e-05
8.56244e-05
8.62379e-05
8.68612e-05
8.74919e-05
8.81279e-05
8.87672e-05
8.94086e-05
9.00512e-05
9.06948e-05
9.13394e-05
9.19851e-05
9.26323e-05
9.32809e-05
9.39311e-05
9.4583e-05
9.52366e-05
9.58916e-05
9.65479e-05
9.72053e-05
9.78634e-05
9.85218e-05
9.918e-05
9.98374e-05
0.000100493
0.000101147
0.000101799
0.000102446
0.000103089
0.000103726
0.000104357
0.000104979
0.000105593
0.000106196
0.000106787
0.000107365
0.000107928
0.000108474
0.000109003
0.000109511
0.000109997
0.00011046
0.000110897
0.000111307
0.000111687
0.000112036
0.000112352
0.000112634
0.00011288
0.000113088
0.000113257
0.000113386
0.000113475
0.000113536
0.000113583
7.56102e-05
7.55909e-05
7.55437e-05
7.5471e-05
7.538e-05
7.52777e-05
7.51695e-05
7.50606e-05
7.49564e-05
7.48614e-05
7.47797e-05
7.47144e-05
7.46682e-05
7.46426e-05
7.46391e-05
7.46583e-05
7.47006e-05
7.47662e-05
7.4855e-05
7.49666e-05
7.51008e-05
7.52572e-05
7.54353e-05
7.56347e-05
7.58551e-05
7.6096e-05
7.6357e-05
7.66378e-05
7.69379e-05
7.72571e-05
7.75949e-05
7.79509e-05
7.83249e-05
7.87164e-05
7.91252e-05
7.95508e-05
7.99929e-05
8.04513e-05
8.09257e-05
8.14159e-05
8.19217e-05
8.24431e-05
8.29799e-05
8.35319e-05
8.40987e-05
8.46797e-05
8.52737e-05
8.58793e-05
8.64946e-05
8.71175e-05
8.77461e-05
8.83786e-05
8.90138e-05
8.96509e-05
9.02897e-05
9.093e-05
9.15718e-05
9.22152e-05
9.28604e-05
9.35073e-05
9.4156e-05
9.48064e-05
9.54585e-05
9.6112e-05
9.67666e-05
9.74221e-05
9.80781e-05
9.8734e-05
9.93894e-05
0.000100044
0.000100696
0.000101346
0.000101992
0.000102634
0.00010327
0.0001039
0.000104523
0.000105136
0.00010574
0.000106331
0.00010691
0.000107474
0.000108021
0.00010855
0.000109059
0.000109547
0.000110011
0.000110449
0.00011086
0.000111241
0.000111592
0.000111909
0.000112191
0.000112438
0.000112646
0.000112815
0.000112945
0.000113034
0.000113095
0.000113142
7.51016e-05
7.50867e-05
7.50502e-05
7.4994e-05
7.49236e-05
7.48442e-05
7.47602e-05
7.46759e-05
7.45956e-05
7.45232e-05
7.44622e-05
7.44155e-05
7.43853e-05
7.43736e-05
7.43815e-05
7.441e-05
7.44597e-05
7.45308e-05
7.46234e-05
7.47375e-05
7.48729e-05
7.50294e-05
7.52067e-05
7.54045e-05
7.56225e-05
7.58603e-05
7.61177e-05
7.63943e-05
7.66897e-05
7.70037e-05
7.7336e-05
7.76862e-05
7.8054e-05
7.8439e-05
7.88411e-05
7.92598e-05
7.96949e-05
8.01461e-05
8.06133e-05
8.10962e-05
8.15947e-05
8.21086e-05
8.26379e-05
8.31822e-05
8.37412e-05
8.4314e-05
8.48997e-05
8.54968e-05
8.61034e-05
8.67177e-05
8.73378e-05
8.79624e-05
8.85902e-05
8.92206e-05
8.98532e-05
9.04878e-05
9.11244e-05
9.17629e-05
9.24034e-05
9.30459e-05
9.36903e-05
9.43366e-05
9.49846e-05
9.56342e-05
9.62851e-05
9.6937e-05
9.75895e-05
9.82422e-05
9.88945e-05
9.95458e-05
0.000100196
0.000100843
0.000101487
0.000102127
0.000102761
0.00010339
0.000104011
0.000104624
0.000105226
0.000105817
0.000106395
0.000106958
0.000107506
0.000108035
0.000108544
0.000109032
0.000109496
0.000109935
0.000110346
0.000110728
0.000111079
0.000111396
0.000111679
0.000111925
0.000112134
0.000112303
0.000112432
0.000112521
0.000112582
0.00011263
7.46129e-05
7.46015e-05
7.45736e-05
7.45305e-05
7.44766e-05
7.44159e-05
7.43519e-05
7.42881e-05
7.42279e-05
7.41747e-05
7.41317e-05
7.41012e-05
7.40855e-05
7.40862e-05
7.41047e-05
7.41419e-05
7.41985e-05
7.42749e-05
7.43714e-05
7.44881e-05
7.46248e-05
7.47816e-05
7.49583e-05
7.51546e-05
7.53703e-05
7.56052e-05
7.5859e-05
7.61315e-05
7.64223e-05
7.67313e-05
7.70581e-05
7.74024e-05
7.7764e-05
7.81425e-05
7.85378e-05
7.89496e-05
7.93776e-05
7.98215e-05
8.02812e-05
8.07566e-05
8.12474e-05
8.17535e-05
8.22748e-05
8.2811e-05
8.33616e-05
8.39258e-05
8.45026e-05
8.50904e-05
8.56877e-05
8.62926e-05
8.69035e-05
8.75191e-05
8.81385e-05
8.87609e-05
8.9386e-05
9.00137e-05
9.06437e-05
9.1276e-05
9.19107e-05
9.25475e-05
9.31864e-05
9.38274e-05
9.44703e-05
9.51149e-05
9.5761e-05
9.64082e-05
9.70562e-05
9.77045e-05
9.83526e-05
9.9e-05
9.96459e-05
0.00010029
0.00010093
0.000101567
0.000102199
0.000102825
0.000103443
0.000104054
0.000104654
0.000105243
0.00010582
0.000106382
0.000106928
0.000107456
0.000107965
0.000108452
0.000108915
0.000109353
0.000109764
0.000110146
0.000110496
0.000110813
0.000111096
0.000111342
0.00011155
0.000111719
0.000111847
0.000111936
0.000111996
0.000112044
7.41395e-05
7.41309e-05
7.41098e-05
7.40774e-05
7.40369e-05
7.39915e-05
7.39439e-05
7.38971e-05
7.38539e-05
7.38173e-05
7.37897e-05
7.37735e-05
7.37705e-05
7.37824e-05
7.38104e-05
7.38556e-05
7.39187e-05
7.40001e-05
7.41003e-05
7.42194e-05
7.43575e-05
7.45146e-05
7.46907e-05
7.48856e-05
7.50991e-05
7.53312e-05
7.55815e-05
7.58499e-05
7.61362e-05
7.64401e-05
7.67614e-05
7.70999e-05
7.74552e-05
7.78273e-05
7.82157e-05
7.86204e-05
7.90411e-05
7.94775e-05
7.99296e-05
8.03971e-05
8.08799e-05
8.13778e-05
8.18908e-05
8.24183e-05
8.29601e-05
8.35151e-05
8.40824e-05
8.46604e-05
8.52477e-05
8.58424e-05
8.64433e-05
8.70491e-05
8.76589e-05
8.82722e-05
8.88887e-05
8.95082e-05
9.01304e-05
9.07553e-05
9.13828e-05
9.20127e-05
9.2645e-05
9.32795e-05
9.39161e-05
9.45545e-05
9.51945e-05
9.58359e-05
9.64782e-05
9.71209e-05
9.77637e-05
9.84059e-05
9.90468e-05
9.96857e-05
0.000100322
0.000100954
0.000101582
0.000102204
0.000102819
0.000103426
0.000104023
0.000104609
0.000105183
0.000105743
0.000106286
0.000106813
0.000107319
0.000107805
0.000108267
0.000108703
0.000109113
0.000109493
0.000109843
0.000110159
0.00011044
0.000110685
0.000110893
0.00011106
0.000111188
0.000111276
0.000111335
0.000111383
7.36777e-05
7.36713e-05
7.36558e-05
7.36319e-05
7.36023e-05
7.35695e-05
7.35356e-05
7.3503e-05
7.34742e-05
7.34516e-05
7.34373e-05
7.34335e-05
7.34417e-05
7.34635e-05
7.35001e-05
7.35525e-05
7.36215e-05
7.37075e-05
7.38111e-05
7.39325e-05
7.40718e-05
7.42293e-05
7.44047e-05
7.45982e-05
7.48096e-05
7.50388e-05
7.52857e-05
7.55501e-05
7.58318e-05
7.61306e-05
7.64464e-05
7.67789e-05
7.7128e-05
7.74934e-05
7.78749e-05
7.82724e-05
7.86856e-05
7.91143e-05
7.95584e-05
8.00178e-05
8.04923e-05
8.09817e-05
8.14859e-05
8.20044e-05
8.25368e-05
8.30822e-05
8.36394e-05
8.4207e-05
8.47835e-05
8.53675e-05
8.59575e-05
8.65525e-05
8.71518e-05
8.7755e-05
8.83618e-05
8.89719e-05
8.95851e-05
9.02013e-05
9.08204e-05
9.14421e-05
9.20665e-05
9.26932e-05
9.33222e-05
9.39532e-05
9.4586e-05
9.52203e-05
9.58556e-05
9.64916e-05
9.71277e-05
9.77634e-05
9.8398e-05
9.90309e-05
9.96611e-05
0.000100288
0.00010091
0.000101527
0.000102137
0.000102739
0.000103332
0.000103914
0.000104484
0.00010504
0.00010558
0.000106103
0.000106607
0.000107089
0.000107549
0.000107983
0.00010839
0.000108769
0.000109116
0.000109431
0.000109711
0.000109954
0.00011016
0.000110326
0.000110453
0.000110539
0.000110598
0.000110646
7.32243e-05
7.32198e-05
7.32088e-05
7.3192e-05
7.31713e-05
7.31488e-05
7.31262e-05
7.31056e-05
7.30889e-05
7.30782e-05
7.30754e-05
7.30822e-05
7.31002e-05
7.31307e-05
7.3175e-05
7.32338e-05
7.3308e-05
7.33982e-05
7.35049e-05
7.36283e-05
7.37687e-05
7.39263e-05
7.41011e-05
7.42931e-05
7.45023e-05
7.47287e-05
7.4972e-05
7.52323e-05
7.55094e-05
7.58032e-05
7.61134e-05
7.64399e-05
7.67826e-05
7.71413e-05
7.75157e-05
7.79058e-05
7.83113e-05
7.87321e-05
7.9168e-05
7.96189e-05
8.00848e-05
8.05653e-05
8.10603e-05
8.15694e-05
8.20919e-05
8.26271e-05
8.31737e-05
8.37303e-05
8.42955e-05
8.48679e-05
8.54462e-05
8.60297e-05
8.66176e-05
8.72097e-05
8.78055e-05
8.84051e-05
8.90081e-05
8.96144e-05
9.02238e-05
9.08362e-05
9.14513e-05
9.2069e-05
9.26891e-05
9.33115e-05
9.39357e-05
9.45615e-05
9.51886e-05
9.58164e-05
9.64446e-05
9.70725e-05
9.76995e-05
9.83249e-05
9.89479e-05
9.95676e-05
0.000100183
0.000100793
0.000101397
0.000101993
0.00010258
0.000103156
0.000103721
0.000104272
0.000104807
0.000105326
0.000105825
0.000106304
0.00010676
0.000107191
0.000107595
0.00010797
0.000108315
0.000108627
0.000108904
0.000109146
0.000109349
0.000109514
0.000109639
0.000109724
0.000109781
0.000109829
7.27769e-05
7.27739e-05
7.27666e-05
7.27556e-05
7.27423e-05
7.27283e-05
7.27152e-05
7.27046e-05
7.26981e-05
7.26975e-05
7.27045e-05
7.27205e-05
7.2747e-05
7.27851e-05
7.2836e-05
7.29005e-05
7.29794e-05
7.30732e-05
7.31826e-05
7.33077e-05
7.3449e-05
7.36065e-05
7.37805e-05
7.39709e-05
7.41779e-05
7.44013e-05
7.46411e-05
7.48973e-05
7.51697e-05
7.54582e-05
7.57628e-05
7.60832e-05
7.64194e-05
7.67712e-05
7.71383e-05
7.75208e-05
7.79184e-05
7.8331e-05
7.87585e-05
7.92007e-05
7.96576e-05
8.01288e-05
8.06142e-05
8.11134e-05
8.16257e-05
8.21501e-05
8.26855e-05
8.32306e-05
8.37838e-05
8.43439e-05
8.49099e-05
8.54809e-05
8.60565e-05
8.66364e-05
8.72204e-05
8.78083e-05
8.83999e-05
8.89951e-05
8.95936e-05
9.01953e-05
9.07999e-05
9.14073e-05
9.20172e-05
9.26295e-05
9.32438e-05
9.38599e-05
9.44773e-05
9.50956e-05
9.57144e-05
9.63331e-05
9.6951e-05
9.75675e-05
9.81818e-05
9.87929e-05
9.94001e-05
0.000100002
0.000100598
0.000101186
0.000101766
0.000102335
0.000102893
0.000103438
0.000103967
0.00010448
0.000104973
0.000105447
0.000105898
0.000106324
0.000106724
0.000107095
0.000107436
0.000107745
0.000108019
0.000108257
0.000108458
0.000108621
0.000108743
0.000108826
0.000108882
0.00010893
7.23336e-05
7.23319e-05
7.23276e-05
7.23213e-05
7.23141e-05
7.23072e-05
7.2302e-05
7.22997e-05
7.23018e-05
7.23098e-05
7.23251e-05
7.2349e-05
7.23827e-05
7.24274e-05
7.24841e-05
7.25535e-05
7.26364e-05
7.27334e-05
7.2845e-05
7.29715e-05
7.31134e-05
7.32707e-05
7.34436e-05
7.36323e-05
7.38368e-05
7.40572e-05
7.42933e-05
7.45453e-05
7.48129e-05
7.50962e-05
7.53949e-05
7.57092e-05
7.60387e-05
7.63834e-05
7.67432e-05
7.71178e-05
7.75073e-05
7.79115e-05
7.83303e-05
7.87634e-05
7.92109e-05
7.96725e-05
8.01479e-05
8.06367e-05
8.11382e-05
8.16515e-05
8.21752e-05
8.27081e-05
8.32487e-05
8.37959e-05
8.43487e-05
8.49064e-05
8.54688e-05
8.60356e-05
8.66066e-05
8.71818e-05
8.77609e-05
8.83438e-05
8.89302e-05
8.95199e-05
9.01127e-05
9.07084e-05
9.13068e-05
9.19076e-05
9.25107e-05
9.31155e-05
9.37218e-05
9.43292e-05
9.49371e-05
9.55451e-05
9.61524e-05
9.67584e-05
9.73624e-05
9.79635e-05
9.85608e-05
9.91531e-05
9.97395e-05
0.000100319
0.000100889
0.00010145
0.000101999
0.000102536
0.000103057
0.000103563
0.000104049
0.000104516
0.000104961
0.000105381
0.000105775
0.000106141
0.000106477
0.000106781
0.000107051
0.000107286
0.000107484
0.000107643
0.000107762
0.000107842
0.000107897
0.000107945
7.18927e-05
7.1892e-05
7.18902e-05
7.18878e-05
7.18856e-05
7.18847e-05
7.1886e-05
7.18907e-05
7.19e-05
7.19152e-05
7.19375e-05
7.19681e-05
7.20081e-05
7.20584e-05
7.21199e-05
7.21935e-05
7.22799e-05
7.23795e-05
7.24929e-05
7.26205e-05
7.27625e-05
7.29193e-05
7.30911e-05
7.32779e-05
7.34798e-05
7.36969e-05
7.39293e-05
7.41768e-05
7.44396e-05
7.47174e-05
7.50103e-05
7.53181e-05
7.56408e-05
7.59783e-05
7.63305e-05
7.66972e-05
7.70783e-05
7.74738e-05
7.78835e-05
7.83073e-05
7.87451e-05
7.91966e-05
7.96617e-05
8.01397e-05
8.06299e-05
8.11314e-05
8.16429e-05
8.2163e-05
8.26904e-05
8.32239e-05
8.37628e-05
8.43065e-05
8.48548e-05
8.54075e-05
8.59646e-05
8.6526e-05
8.70915e-05
8.76608e-05
8.82338e-05
8.88103e-05
8.939e-05
8.99727e-05
9.05582e-05
9.11462e-05
9.17365e-05
9.23287e-05
9.29224e-05
9.35173e-05
9.41128e-05
9.47084e-05
9.53036e-05
9.58975e-05
9.64896e-05
9.70789e-05
9.76645e-05
9.82454e-05
9.88206e-05
9.93888e-05
9.99487e-05
0.000100499
0.000101038
0.000101565
0.000102077
0.000102573
0.000103051
0.000103509
0.000103946
0.000104359
0.000104746
0.000105105
0.000105435
0.000105733
0.000105998
0.000106228
0.000106421
0.000106576
0.000106692
0.000106769
0.000106822
0.000106869
7.14528e-05
7.14529e-05
7.14532e-05
7.1454e-05
7.1456e-05
7.14599e-05
7.14666e-05
7.14772e-05
7.14926e-05
7.15138e-05
7.15421e-05
7.15783e-05
7.16235e-05
7.16786e-05
7.17443e-05
7.18214e-05
7.19105e-05
7.20122e-05
7.2127e-05
7.22552e-05
7.23972e-05
7.25532e-05
7.27235e-05
7.29081e-05
7.31073e-05
7.33211e-05
7.35495e-05
7.37925e-05
7.40502e-05
7.43224e-05
7.46092e-05
7.49105e-05
7.52262e-05
7.55563e-05
7.59006e-05
7.62591e-05
7.66316e-05
7.70181e-05
7.74185e-05
7.78326e-05
7.82603e-05
7.87015e-05
7.91557e-05
7.96225e-05
8.01011e-05
8.05903e-05
8.1089e-05
8.15957e-05
8.21092e-05
8.26285e-05
8.31527e-05
8.36815e-05
8.42148e-05
8.47526e-05
8.52947e-05
8.58413e-05
8.6392e-05
8.69466e-05
8.75051e-05
8.8067e-05
8.86323e-05
8.92006e-05
8.97718e-05
9.03456e-05
9.09216e-05
9.14996e-05
9.20792e-05
9.266e-05
9.32415e-05
9.38232e-05
9.44044e-05
9.49846e-05
9.55629e-05
9.61386e-05
9.67108e-05
9.72784e-05
9.78405e-05
9.83958e-05
9.89431e-05
9.9481e-05
0.000100008
0.000100523
0.000101023
0.000101508
0.000101976
0.000102424
0.000102851
0.000103254
0.000103633
0.000103984
0.000104306
0.000104597
0.000104855
0.000105079
0.000105266
0.000105417
0.000105528
0.000105602
0.000105651
0.000105698
7.10127e-05
7.10135e-05
7.10155e-05
7.10191e-05
7.10245e-05
7.10324e-05
7.10436e-05
7.1059e-05
7.10794e-05
7.11058e-05
7.1139e-05
7.11799e-05
7.12295e-05
7.12885e-05
7.13576e-05
7.14375e-05
7.15289e-05
7.16322e-05
7.17478e-05
7.18763e-05
7.20179e-05
7.21728e-05
7.23414e-05
7.25237e-05
7.27199e-05
7.29301e-05
7.31544e-05
7.33927e-05
7.36451e-05
7.39116e-05
7.41922e-05
7.44868e-05
7.47953e-05
7.51177e-05
7.5454e-05
7.5804e-05
7.61677e-05
7.65449e-05
7.69356e-05
7.73397e-05
7.77571e-05
7.81874e-05
7.86305e-05
7.90856e-05
7.95519e-05
8.00284e-05
8.05137e-05
8.10065e-05
8.15056e-05
8.20098e-05
8.25186e-05
8.30318e-05
8.35493e-05
8.40711e-05
8.45974e-05
8.5128e-05
8.56628e-05
8.62017e-05
8.67443e-05
8.72905e-05
8.784e-05
8.83926e-05
8.8948e-05
8.95061e-05
9.00664e-05
9.06287e-05
9.11925e-05
9.17576e-05
9.23234e-05
9.28893e-05
9.34549e-05
9.40194e-05
9.45821e-05
9.51423e-05
9.56991e-05
9.62514e-05
9.67983e-05
9.73387e-05
9.78712e-05
9.83946e-05
9.89075e-05
9.94082e-05
9.98954e-05
0.000100367
0.000100822
0.000101258
0.000101673
0.000102065
0.000102433
0.000102774
0.000103086
0.000103368
0.000103618
0.000103834
0.000104015
0.000104159
0.000104265
0.000104334
0.000104381
0.000104426
7.05716e-05
7.0573e-05
7.05764e-05
7.05821e-05
7.05904e-05
7.06016e-05
7.06166e-05
7.0636e-05
7.06606e-05
7.06911e-05
7.07284e-05
7.07732e-05
7.08264e-05
7.08885e-05
7.09604e-05
7.10425e-05
7.11356e-05
7.124e-05
7.13561e-05
7.14845e-05
7.16253e-05
7.17788e-05
7.19454e-05
7.21251e-05
7.23181e-05
7.25245e-05
7.27444e-05
7.29779e-05
7.32249e-05
7.34855e-05
7.37596e-05
7.40472e-05
7.43484e-05
7.4663e-05
7.4991e-05
7.53323e-05
7.56868e-05
7.60545e-05
7.64353e-05
7.6829e-05
7.72356e-05
7.76548e-05
7.80862e-05
7.85292e-05
7.89829e-05
7.94461e-05
7.99176e-05
8.03959e-05
8.08797e-05
8.13683e-05