/*--------------------------------*- C++ -*----------------------------------*\
| =========                 |                                                 |
| \\      /  F ield         | OpenFOAM: The Open Source CFD Toolbox           |
|  \\    /   O peration     | Version:  4.1                                   |
|   \\  /    A nd           | Web:      www.OpenFOAM.org                      |
|    \\/     M anipulation  |                                                 |
\*---------------------------------------------------------------------------*/
FoamFile
{
    version     2.0;
    format      ascii;
    class       surfaceScalarField;
    location    "97";
    object      phi;
}
// * * * * * * * * * * * * * * * * * * * * * * * * * * * * * * * * * * * * * //

dimensions      [0 3 -1 0 0 0 0];

internalField   nonuniform List<scalar> 
87025
(
1.89905e-05
1.00949e-06
1.72869e-05
1.70363e-06
1.54784e-05
1.80845e-06
1.37325e-05
1.74595e-06
1.2117e-05
1.61551e-06
1.06828e-05
1.43421e-06
9.44999e-06
1.23277e-06
8.41302e-06
1.03697e-06
7.55379e-06
8.59228e-07
6.84888e-06
7.04909e-07
6.27345e-06
5.75426e-07
5.80363e-06
4.69824e-07
5.41795e-06
3.8568e-07
5.09806e-06
3.19888e-07
4.82884e-06
2.69219e-07
4.5982e-06
2.30643e-07
4.39673e-06
2.01471e-07
4.21729e-06
1.79437e-07
4.05459e-06
1.62699e-07
3.90479e-06
1.498e-07
3.76518e-06
1.39616e-07
3.63387e-06
1.31306e-07
3.50962e-06
1.24255e-07
3.3916e-06
1.18022e-07
3.27929e-06
1.12302e-07
3.17241e-06
1.06889e-07
3.07074e-06
1.01661e-07
2.97418e-06
9.65676e-08
2.88256e-06
9.16204e-08
2.79567e-06
8.68852e-08
2.71321e-06
8.24658e-08
2.63472e-06
7.84809e-08
2.55969e-06
7.50361e-08
2.48749e-06
7.21984e-08
2.41751e-06
6.99778e-08
2.34919e-06
6.83231e-08
2.28206e-06
6.71304e-08
2.2158e-06
6.62617e-08
2.15023e-06
6.55686e-08
2.08531e-06
6.49148e-08
2.02112e-06
6.41946e-08
1.95778e-06
6.33435e-08
1.89543e-06
6.23415e-08
1.83422e-06
6.12092e-08
1.77423e-06
5.9998e-08
1.71545e-06
5.87776e-08
1.65783e-06
5.76233e-08
1.60122e-06
5.66052e-08
1.54544e-06
5.57788e-08
1.49026e-06
5.51783e-08
1.43545e-06
5.48122e-08
1.38079e-06
5.46629e-08
1.3261e-06
5.4691e-08
1.27126e-06
5.48424e-08
1.2162e-06
5.50587e-08
1.16091e-06
5.52853e-08
1.10543e-06
5.54778e-08
1.04983e-06
5.56041e-08
9.94186e-07
5.56436e-08
9.38601e-07
5.55841e-08
8.83182e-07
5.54192e-08
8.28037e-07
5.5145e-08
7.73278e-07
5.47592e-08
7.19019e-07
5.42593e-08
6.65375e-07
5.36432e-08
6.12467e-07
5.29083e-08
5.60415e-07
5.2052e-08
5.09343e-07
5.10718e-08
4.59378e-07
4.99652e-08
4.10648e-07
4.87297e-08
3.63285e-07
4.73634e-08
3.1742e-07
4.58646e-08
2.73188e-07
4.42321e-08
2.30723e-07
4.24655e-08
1.90158e-07
4.0565e-08
1.51626e-07
3.85319e-08
1.15258e-07
3.63682e-08
8.11806e-08
3.4077e-08
4.95182e-08
3.16624e-08
2.03907e-08
2.91275e-08
-6.08055e-09
2.64712e-08
-2.9879e-08
2.37984e-08
-5.08618e-08
2.09828e-08
-6.89778e-08
1.8116e-08
-8.41706e-08
1.51928e-08
-9.64155e-08
1.22449e-08
-1.05723e-07
9.30737e-09
-1.12123e-07
6.40018e-09
-1.15692e-07
3.56881e-09
-1.16595e-07
9.02824e-10
-1.14959e-07
-1.6357e-09
-1.1095e-07
-4.00876e-09
-1.0501e-07
-5.94009e-09
-9.76965e-08
-7.31363e-09
-8.97161e-08
-7.98043e-09
-8.16058e-08
-8.11033e-09
-7.25165e-08
-9.08923e-09
-5.8159e-08
-1.43576e-08
-3.16229e-08
-2.65361e-08
-3.16229e-08
2.06193e-05
3.9022e-07
2.12419e-05
1.08104e-06
2.15548e-05
1.49556e-06
2.15643e-05
1.73638e-06
2.1312e-05
1.86783e-06
2.08501e-05
1.89612e-06
2.0242e-05
1.8409e-06
1.95452e-05
1.73376e-06
1.88043e-05
1.60008e-06
1.80526e-05
1.45662e-06
1.73135e-05
1.31454e-06
1.66022e-05
1.18117e-06
1.59273e-05
1.06055e-06
1.5293e-05
9.54215e-07
1.47002e-05
8.62018e-07
1.41479e-05
7.82894e-07
1.36341e-05
7.15282e-07
1.3156e-05
6.57494e-07
1.27108e-05
6.07898e-07
1.22956e-05
5.64991e-07
1.19078e-05
5.27465e-07
1.15449e-05
4.94222e-07
1.12048e-05
4.64367e-07
1.08856e-05
4.37189e-07
1.05858e-05
4.12149e-07
1.03038e-05
3.88858e-07
1.00384e-05
3.67072e-07
9.78825e-06
3.46687e-07
9.55215e-06
3.27727e-07
9.32871e-06
3.10325e-07
9.11649e-06
2.94687e-07
8.91393e-06
2.81036e-07
8.71942e-06
2.69547e-07
8.53133e-06
2.60286e-07
8.34815e-06
2.53164e-07
8.16855e-06
2.47924e-07
7.99152e-06
2.44152e-07
7.81645e-06
2.41336e-07
7.64308e-06
2.38936e-07
7.47154e-06
2.36461e-07
7.30218e-06
2.33549e-07
7.13551e-06
2.30013e-07
6.972e-06
2.25853e-07
6.81197e-06
2.2124e-07
6.65551e-06
2.16459e-07
6.50244e-06
2.11846e-07
6.35234e-06
2.07722e-07
6.2046e-06
2.04343e-07
6.05852e-06
2.01865e-07
5.91336e-06
2.00339e-07
5.76846e-06
1.99711e-07
5.62327e-06
1.9985e-07
5.47739e-06
2.00575e-07
5.33054e-06
2.01687e-07
5.18261e-06
2.02995e-07
5.03355e-06
2.04341e-07
4.88342e-06
2.05606e-07
4.73232e-06
2.06708e-07
4.58036e-06
2.07598e-07
4.4277e-06
2.08247e-07
4.27448e-06
2.08636e-07
4.12087e-06
2.08755e-07
3.96704e-06
2.08592e-07
3.81316e-06
2.08136e-07
3.65943e-06
2.07376e-07
3.50604e-06
2.063e-07
3.3532e-06
2.04896e-07
3.20112e-06
2.03152e-07
3.05003e-06
2.01056e-07
2.90016e-06
1.98597e-07
2.75176e-06
1.95767e-07
2.60506e-06
1.92555e-07
2.46034e-06
1.88957e-07
2.31784e-06
1.84967e-07
2.17782e-06
1.80584e-07
2.04054e-06
1.7581e-07
1.90626e-06
1.70648e-07
1.77523e-06
1.65109e-07
1.64769e-06
1.59206e-07
1.52386e-06
1.52957e-07
1.40394e-06
1.46389e-07
1.28819e-06
1.39551e-07
1.17672e-06
1.32453e-07
1.06968e-06
1.25151e-07
9.67175e-07
1.17697e-07
8.69264e-07
1.10157e-07
7.75963e-07
1.02608e-07
6.87229e-07
9.51341e-08
6.0296e-07
8.78374e-08
5.23022e-07
8.08409e-08
4.47122e-07
7.4265e-08
3.74817e-07
6.82962e-08
3.05657e-07
6.32199e-08
2.38993e-07
5.93501e-08
1.74113e-07
5.68991e-08
1.10845e-07
5.51579e-08
5.1543e-08
5.0213e-08
4.91134e-09
3.22741e-08
-1.3537e-08
-8.08774e-09
-4.51599e-08
2.01347e-05
2.55477e-07
2.0511e-05
7.04806e-07
2.09617e-05
1.04485e-06
2.14115e-05
1.28659e-06
2.18127e-05
1.4666e-06
2.21183e-05
1.59049e-06
2.23036e-05
1.65562e-06
2.23669e-05
1.6705e-06
2.23186e-05
1.64836e-06
2.21745e-05
1.60071e-06
2.19522e-05
1.53681e-06
2.16691e-05
1.46428e-06
2.13407e-05
1.38896e-06
2.09801e-05
1.3148e-06
2.0598e-05
1.24418e-06
2.02026e-05
1.17825e-06
1.98005e-05
1.1174e-06
1.93965e-05
1.06148e-06
1.89943e-05
1.01008e-06
1.85967e-05
9.62624e-07
1.82056e-05
9.18515e-07
1.78227e-05
8.77179e-07
1.74489e-05
8.38121e-07
1.70852e-05
8.00942e-07
1.6732e-05
7.65358e-07
1.63896e-05
7.31201e-07
1.60583e-05
6.98435e-07
1.57378e-05
6.67152e-07
1.5428e-05
6.3757e-07
1.51283e-05
6.10013e-07
1.48381e-05
5.84874e-07
1.45566e-05
5.62555e-07
1.42827e-05
5.43405e-07
1.40154e-05
5.27639e-07
1.37532e-05
5.15282e-07
1.3495e-05
5.0612e-07
1.32395e-05
4.99697e-07
1.29855e-05
4.95333e-07
1.27322e-05
4.92194e-07
1.24793e-05
4.89374e-07
1.22269e-05
4.86014e-07
1.19755e-05
4.81417e-07
1.17262e-05
4.75152e-07
1.14803e-05
4.67134e-07
1.12391e-05
4.57647e-07
1.10036e-05
4.47305e-07
1.07744e-05
4.36943e-07
1.05513e-05
4.27459e-07
1.03335e-05
4.19635e-07
1.01199e-05
4.13985e-07
9.9089e-06
4.10683e-07
9.69917e-06
4.09572e-07
9.4895e-06
4.10249e-07
9.27899e-06
4.12196e-07
9.06709e-06
4.14897e-07
8.8535e-06
4.17927e-07
8.63812e-06
4.20985e-07
8.42095e-06
4.23883e-07
8.20203e-06
4.2652e-07
7.98143e-06
4.28843e-07
7.75925e-06
4.3082e-07
7.53557e-06
4.32429e-07
7.31052e-06
4.33644e-07
7.08421e-06
4.34441e-07
6.8568e-06
4.34791e-07
6.62843e-06
4.34667e-07
6.39929e-06
4.34039e-07
6.16956e-06
4.32881e-07
5.93945e-06
4.31165e-07
5.70918e-06
4.28865e-07
5.47899e-06
4.25956e-07
5.24913e-06
4.22418e-07
5.01986e-06
4.18231e-07
4.79144e-06
4.13381e-07
4.56417e-06
4.07859e-07
4.33832e-06
4.01659e-07
4.11418e-06
3.94784e-07
3.89205e-06
3.87243e-07
3.6722e-06
3.79053e-07
3.45492e-06
3.70243e-07
3.24045e-06
3.60851e-07
3.02908e-06
3.50929e-07
2.821e-06
3.4053e-07
2.61642e-06
3.2973e-07
2.4155e-06
3.18616e-07
2.21837e-06
3.07294e-07
2.02509e-06
2.95885e-07
1.83569e-06
2.84529e-07
1.65014e-06
2.73386e-07
1.46834e-06
2.62643e-07
1.29009e-06
2.52515e-07
1.11512e-06
2.4327e-07
9.43089e-07
2.35249e-07
7.73608e-07
2.28831e-07
6.0633e-07
2.24178e-07
4.41501e-07
2.19987e-07
2.81934e-07
2.0978e-07
1.37995e-07
1.76214e-07
3.41855e-08
9.57213e-08
-1.09745e-08
2.00745e-05
1.80951e-07
2.02523e-05
5.27014e-07
2.04854e-05
8.11744e-07
2.07471e-05
1.02487e-06
2.10304e-05
1.18335e-06
2.13209e-05
1.29996e-06
2.1598e-05
1.3785e-06
2.18445e-05
1.424e-06
2.20489e-05
1.44397e-06
2.22045e-05
1.44514e-06
2.23087e-05
1.43263e-06
2.23623e-05
1.41062e-06
2.23687e-05
1.38264e-06
2.23321e-05
1.3514e-06
2.22574e-05
1.31879e-06
2.21497e-05
1.28603e-06
2.20133e-05
1.25378e-06
2.18524e-05
1.22236e-06
2.16707e-05
1.19181e-06
2.14713e-05
1.16203e-06
2.1257e-05
1.13281e-06
2.10302e-05
1.10394e-06
2.07931e-05
1.07522e-06
2.05475e-05
1.04652e-06
2.02951e-05
1.01779e-06
2.00372e-05
9.89066e-07
1.97751e-05
9.60509e-07
1.95099e-05
9.32392e-07
1.92424e-05
9.05103e-07
1.89733e-05
8.79123e-07
1.87031e-05
8.54996e-07
1.84324e-05
8.33274e-07
1.81614e-05
8.1446e-07
1.78901e-05
7.98938e-07
1.76184e-05
7.86917e-07
1.73462e-05
7.78385e-07
1.70728e-05
7.73084e-07
1.67976e-05
7.7052e-07
1.65198e-05
7.6999e-07
1.62386e-05
7.70622e-07
1.59531e-05
7.71433e-07
1.56632e-05
7.71388e-07
1.53688e-05
7.6947e-07
1.50712e-05
7.64801e-07
1.4772e-05
7.56807e-07
1.44739e-05
7.45401e-07
1.41797e-05
7.31136e-07
1.3892e-05
7.15204e-07
1.36124e-05
6.99247e-07
1.33414e-05
6.84997e-07
1.30782e-05
6.73857e-07
1.28212e-05
6.66596e-07
1.25682e-05
6.63246e-07
1.23171e-05
6.63235e-07
1.20664e-05
6.65657e-07
1.18147e-05
6.69571e-07
1.15615e-05
6.74205e-07
1.13063e-05
6.7904e-07
1.10491e-05
6.83786e-07
1.07896e-05
6.88305e-07
1.05279e-05
6.92535e-07
1.02639e-05
6.96435e-07
9.99758e-06
6.99963e-07
9.72894e-06
7.03074e-07
9.45802e-06
7.05718e-07
9.18484e-06
7.07842e-07
8.90948e-06
7.09396e-07
8.63203e-06
7.10332e-07
8.3526e-06
7.10601e-07
8.07131e-06
7.10156e-07
7.78831e-06
7.08953e-07
7.50378e-06
7.06953e-07
7.21789e-06
7.04118e-07
6.93085e-06
7.00416e-07
6.64289e-06
6.95823e-07
6.35423e-06
6.9032e-07
6.06511e-06
6.83897e-07
5.7758e-06
6.76555e-07
5.48655e-06
6.68306e-07
5.19762e-06
6.59174e-07
4.90927e-06
6.49197e-07
4.62177e-06
6.38431e-07
4.33536e-06
6.26945e-07
4.05026e-06
6.14827e-07
3.76669e-06
6.02186e-07
3.48483e-06
5.89152e-07
3.20484e-06
5.7588e-07
2.92682e-06
5.62544e-07
2.65086e-06
5.49349e-07
2.37697e-06
5.36527e-07
2.10514e-06
5.24344e-07
1.8353e-06
5.1311e-07
1.56737e-06
5.03184e-07
1.30126e-06
4.94938e-07
1.037e-06
4.88441e-07
7.75073e-07
4.81913e-07
5.18278e-07
4.66575e-07
2.77692e-07
4.16799e-07
8.46833e-08
2.88731e-07
7.37088e-08
2.00411e-05
1.39832e-07
2.01516e-05
4.16494e-07
2.03047e-05
6.58669e-07
2.04772e-05
8.52374e-07
2.06591e-05
1.00145e-06
2.0845e-05
1.11402e-06
2.10287e-05
1.19483e-06
2.12045e-05
1.2482e-06
2.13685e-05
1.27996e-06
2.15178e-05
1.29592e-06
2.16497e-05
1.30068e-06
2.17626e-05
1.29776e-06
2.18553e-05
1.28993e-06
2.19274e-05
1.27926e-06
2.1979e-05
1.26719e-06
2.20105e-05
1.25459e-06
2.20223e-05
1.24196e-06
2.20152e-05
1.22948e-06
2.19898e-05
1.21715e-06
2.1947e-05
1.20484e-06
2.18874e-05
1.19238e-06
2.18118e-05
1.17954e-06
2.17209e-05
1.16616e-06
2.16153e-05
1.15211e-06
2.14958e-05
1.13733e-06
2.1363e-05
1.12187e-06
2.12176e-05
1.10589e-06
2.10603e-05
1.08965e-06
2.08919e-05
1.07351e-06
2.07131e-05
1.05794e-06
2.05246e-05
1.04348e-06
2.03272e-05
1.03067e-06
2.01217e-05
1.02003e-06
1.99086e-05
1.01203e-06
1.96885e-05
1.00696e-06
1.94619e-05
1.00498e-06
1.9229e-05
1.00605e-06
1.89895e-05
1.00995e-06
1.87433e-05
1.01628e-06
1.84894e-05
1.02451e-06
1.82269e-05
1.03394e-06
1.79545e-05
1.04373e-06
1.76712e-05
1.05276e-06
1.73764e-05
1.05965e-06
1.70704e-05
1.06281e-06
1.6755e-05
1.06077e-06
1.64336e-05
1.05259e-06
1.61104e-05
1.03837e-06
1.57902e-05
1.01946e-06
1.54769e-05
9.98295e-07
1.51729e-05
9.7782e-07
1.48788e-05
9.6069e-07
1.45934e-05
9.4862e-07
1.43146e-05
9.42093e-07
1.40397e-05
9.40517e-07
1.37666e-05
9.42677e-07
1.34936e-05
9.47231e-07
1.32196e-05
9.53078e-07
1.29439e-05
9.59486e-07
1.26661e-05
9.66056e-07
1.2386e-05
9.726e-07
1.21035e-05
9.79025e-07
1.18182e-05
9.85261e-07
1.153e-05
9.91234e-07
1.12388e-05
9.96866e-07
1.09446e-05
1.00208e-06
1.06472e-05
1.00679e-06
1.03466e-05
1.01092e-06
1.00428e-05
1.01441e-06
9.73581e-06
1.01717e-06
9.4256e-06
1.01916e-06
9.11226e-06
1.0203e-06
8.79585e-06
1.02053e-06
8.47646e-06
1.0198e-06
8.15421e-06
1.01808e-06
7.82922e-06
1.01531e-06
7.50165e-06
1.01147e-06
7.17166e-06
1.00654e-06
6.83944e-06
1.00053e-06
6.50518e-06
9.93434e-07
6.16909e-06
9.85288e-07
5.83139e-06
9.76136e-07
5.49229e-06
9.66042e-07
5.15202e-06
9.55094e-07
4.8108e-06
9.43404e-07
4.46885e-06
9.31108e-07
4.12636e-06
9.18368e-07
3.78353e-06
9.05376e-07
3.44053e-06
8.92352e-07
3.09751e-06
8.79547e-07
2.75461e-06
8.67243e-07
2.41196e-06
8.55754e-07
2.06972e-06
8.45428e-07
1.72807e-06
8.36589e-07
1.3873e-06
8.29209e-07
1.0481e-06
8.21113e-07
7.13296e-07
8.0138e-07
3.94596e-07
7.35499e-07
1.28932e-07
5.54395e-07
2.0264e-07
2.00256e-05
1.1428e-07
2.01006e-05
3.41479e-07
2.02112e-05
5.48081e-07
2.03408e-05
7.22709e-07
2.04782e-05
8.6408e-07
2.06164e-05
9.75838e-07
2.075e-05
1.06125e-06
2.08749e-05
1.12322e-06
2.09893e-05
1.16562e-06
2.10924e-05
1.19282e-06
2.11843e-05
1.20878e-06
2.12653e-05
1.21672e-06
2.1336e-05
1.21925e-06
2.13969e-05
1.21842e-06
2.14483e-05
1.21574e-06
2.14907e-05
1.21223e-06
2.15241e-05
1.20851e-06
2.15487e-05
1.20493e-06
2.15642e-05
1.20159e-06
2.15706e-05
1.19849e-06
2.15674e-05
1.1955e-06
2.15545e-05
1.1925e-06
2.15313e-05
1.18931e-06
2.14976e-05
1.18582e-06
2.1453e-05
1.18195e-06
2.13972e-05
1.1777e-06
2.13299e-05
1.17316e-06
2.12511e-05
1.16849e-06
2.11606e-05
1.16397e-06
2.10586e-05
1.15993e-06
2.09453e-05
1.15678e-06
2.0821e-05
1.15496e-06
2.06862e-05
1.1549e-06
2.05412e-05
1.157e-06
2.03866e-05
1.16158e-06
2.02227e-05
1.16884e-06
2.00499e-05
1.17885e-06
1.98683e-05
1.1916e-06
1.96776e-05
1.20696e-06
1.94773e-05
1.22478e-06
1.92664e-05
1.24483e-06
1.90434e-05
1.26678e-06
1.88062e-05
1.28992e-06
1.85529e-05
1.31298e-06
1.82818e-05
1.33389e-06
1.79926e-05
1.34995e-06
1.76869e-05
1.35834e-06
1.73682e-05
1.35703e-06
1.7042e-05
1.34564e-06
1.67144e-05
1.3259e-06
1.63909e-05
1.30133e-06
1.60753e-05
1.2763e-06
1.57692e-05
1.25477e-06
1.5472e-05
1.23929e-06
1.51818e-05
1.23066e-06
1.48963e-05
1.22819e-06
1.46131e-05
1.23039e-06
1.43306e-05
1.23565e-06
1.40474e-05
1.24268e-06
1.37628e-05
1.25066e-06
1.34762e-05
1.25914e-06
1.31873e-05
1.2679e-06
1.28958e-05
1.2768e-06
1.26013e-05
1.28573e-06
1.23036e-05
1.29458e-06
1.20024e-05
1.30323e-06
1.16976e-05
1.31156e-06
1.13891e-05
1.31948e-06
1.10766e-05
1.32689e-06
1.07601e-05
1.33369e-06
1.04394e-05
1.3398e-06
1.01146e-05
1.34513e-06
9.78553e-06
1.3496e-06
9.45219e-06
1.35314e-06
9.1146e-06
1.35567e-06
8.77276e-06
1.35714e-06
8.42672e-06
1.35751e-06
8.07654e-06
1.35672e-06
7.7223e-06
1.35477e-06
7.3641e-06
1.35163e-06
7.00208e-06
1.34731e-06
6.63636e-06
1.34185e-06
6.26712e-06
1.33529e-06
5.89452e-06
1.32769e-06
5.51876e-06
1.31916e-06
5.14004e-06
1.30983e-06
4.75858e-06
1.29983e-06
4.37459e-06
1.28936e-06
3.98831e-06
1.27863e-06
3.59998e-06
1.26788e-06
3.20984e-06
1.25738e-06
2.81819e-06
1.24741e-06
2.42532e-06
1.23829e-06
2.03161e-06
1.23029e-06
1.63754e-06
1.22328e-06
1.24393e-06
1.21472e-06
8.5375e-07
1.19156e-06
4.79379e-07
1.10987e-06
1.61654e-07
8.72121e-07
3.64294e-07
2.00179e-05
9.64065e-08
2.0071e-05
2.88355e-07
2.01519e-05
4.67159e-07
2.02503e-05
6.24374e-07
2.03572e-05
7.57088e-07
2.04667e-05
8.66377e-07
2.05737e-05
9.54225e-07
2.06743e-05
1.02264e-06
2.07658e-05
1.07416e-06
2.08468e-05
1.11182e-06
2.0917e-05
1.1386e-06
2.09766e-05
1.15711e-06
2.10262e-05
1.16956e-06
2.10669e-05
1.17778e-06
2.10994e-05
1.18322e-06
2.11247e-05
1.18696e-06
2.11434e-05
1.18976e-06
2.11562e-05
1.19214e-06
2.11634e-05
1.19441e-06
2.11652e-05
1.19672e-06
2.11615e-05
1.19914e-06
2.11523e-05
1.20168e-06
2.11373e-05
1.20431e-06
2.11162e-05
1.20699e-06
2.10884e-05
1.20973e-06
2.10535e-05
1.21254e-06
2.10112e-05
1.21552e-06
2.09609e-05
1.21881e-06
2.09022e-05
1.2226e-06
2.0835e-05
1.22717e-06
2.0759e-05
1.2328e-06
2.06741e-05
1.23984e-06
2.05804e-05
1.24862e-06
2.04779e-05
1.25945e-06
2.03669e-05
1.27258e-06
2.02475e-05
1.28823e-06
2.01199e-05
1.30651e-06
1.9984e-05
1.32751e-06
1.98396e-05
1.35128e-06
1.96865e-05
1.37796e-06
1.95235e-05
1.40781e-06
1.93492e-05
1.44106e-06
1.91614e-05
1.47772e-06
1.89573e-05
1.51705e-06
1.87341e-05
1.55712e-06
1.84895e-05
1.5946e-06
1.82226e-05
1.62514e-06
1.79352e-05
1.64445e-06
1.76312e-05
1.64969e-06
1.73164e-05
1.6407e-06
1.69974e-05
1.62033e-06
1.668e-05
1.59365e-06
1.63684e-05
1.56643e-06
1.60641e-05
1.54351e-06
1.57672e-05
1.52766e-06
1.54759e-05
1.51948e-06
1.51883e-05
1.51797e-06
1.49025e-05
1.5214e-06
1.46171e-05
1.5281e-06
1.4331e-05
1.53681e-06
1.40434e-05
1.54676e-06
1.37537e-05
1.55754e-06
1.34616e-05
1.56891e-06
1.31667e-05
1.58069e-06
1.28685e-05
1.59273e-06
1.25669e-05
1.60488e-06
1.22614e-05
1.61698e-06
1.1952e-05
1.62892e-06
1.16383e-05
1.64055e-06
1.13203e-05
1.65178e-06
1.09976e-05
1.66248e-06
1.06701e-05
1.67256e-06
1.03378e-05
1.68191e-06
1.00005e-05
1.69044e-06
9.65815e-06
1.69806e-06
9.31059e-06
1.7047e-06
8.95783e-06
1.71028e-06
8.59981e-06
1.71474e-06
8.23654e-06
1.71804e-06
7.86803e-06
1.72014e-06
7.49431e-06
1.72103e-06
7.11545e-06
1.72071e-06
6.73153e-06
1.71921e-06
6.34267e-06
1.71656e-06
5.94899e-06
1.71284e-06
5.55068e-06
1.70814e-06
5.1479e-06
1.7026e-06
4.7409e-06
1.69637e-06
4.3299e-06
1.68963e-06
3.91518e-06
1.68259e-06
3.49707e-06
1.67549e-06
3.07591e-06
1.66857e-06
2.65211e-06
1.6621e-06
2.22613e-06
1.65627e-06
1.79856e-06
1.65086e-06
1.37031e-06
1.64297e-06
9.44559e-07
1.61731e-06
5.34323e-07
1.52011e-06
1.83096e-07
1.22335e-06
5.47391e-07
2.0013e-05
8.34454e-08
2.00516e-05
2.4976e-07
2.01116e-05
4.07134e-07
2.01866e-05
5.494e-07
2.02701e-05
6.73512e-07
2.03572e-05
7.7926e-07
2.04438e-05
8.67645e-07
2.05265e-05
9.39997e-07
2.06026e-05
9.98027e-07
2.06706e-05
1.04384e-06
2.07296e-05
1.07963e-06
2.07792e-05
1.10746e-06
2.08196e-05
1.12911e-06
2.08513e-05
1.14612e-06
2.08748e-05
1.15976e-06
2.08907e-05
1.17104e-06
2.08997e-05
1.18072e-06
2.09025e-05
1.18937e-06
2.08995e-05
1.19739e-06
2.08912e-05
1.20506e-06
2.08778e-05
1.21255e-06
2.08595e-05
1.21999e-06
2.08363e-05
1.22746e-06
2.08083e-05
1.23503e-06
2.07752e-05
1.24278e-06
2.0737e-05
1.2508e-06
2.06933e-05
1.25922e-06
2.06439e-05
1.2682e-06
2.05885e-05
1.27793e-06
2.05271e-05
1.28865e-06
2.04592e-05
1.30062e-06
2.0385e-05
1.31411e-06
2.03042e-05
1.32939e-06
2.02169e-05
1.34674e-06
2.01231e-05
1.36636e-06
2.00229e-05
1.38845e-06
1.99163e-05
1.41315e-06
1.98032e-05
1.44057e-06
1.96836e-05
1.47092e-06
1.9557e-05
1.50456e-06
1.94227e-05
1.5421e-06
1.92794e-05
1.58436e-06
1.91251e-05
1.63203e-06
1.8957e-05
1.68512e-06
1.87719e-05
1.74218e-06
1.85668e-05
1.79979e-06
1.83392e-05
1.85269e-06
1.80889e-05
1.89478e-06
1.78177e-05
1.92089e-06
1.75298e-05
1.92857e-06
1.7231e-05
1.91916e-06
1.69272e-05
1.89744e-06
1.66235e-05
1.87014e-06
1.63232e-05
1.84383e-06
1.60276e-05
1.82322e-06
1.57366e-05
1.81049e-06
1.5449e-05
1.80555e-06
1.51634e-05
1.80699e-06
1.48785e-05
1.81303e-06
1.45931e-05
1.82216e-06
1.43065e-05
1.83335e-06
1.40181e-05
1.84598e-06
1.37273e-05
1.8597e-06
1.34338e-05
1.87425e-06
1.3137e-05
1.88943e-06
1.28369e-05
1.90507e-06
1.25329e-05
1.92097e-06
1.22248e-05
1.93699e-06
1.19124e-05
1.95296e-06
1.15954e-05
1.96876e-06
1.12736e-05
1.98426e-06
1.09469e-05
1.99933e-06
1.06149e-05
2.01386e-06
1.02776e-05
2.02774e-06
9.93481e-06
2.04086e-06
9.58638e-06
2.05312e-06
9.2322e-06
2.06445e-06
8.87218e-06
2.07476e-06
8.50624e-06
2.08398e-06
8.13432e-06
2.09206e-06
7.7564e-06
2.09896e-06
7.37246e-06
2.10464e-06
6.98255e-06
2.10912e-06
6.5867e-06
2.11241e-06
6.185e-06
2.11454e-06
5.77757e-06
2.11557e-06
5.36456e-06
2.11561e-06
4.94617e-06
2.11476e-06
4.52262e-06
2.11318e-06
4.09421e-06
2.11101e-06
3.66125e-06
2.10845e-06
3.22413e-06
2.1057e-06
2.78328e-06
2.10294e-06
2.33923e-06
2.10032e-06
1.89256e-06
2.09753e-06
1.44428e-06
2.09124e-06
9.97717e-07
2.06388e-06
5.66449e-07
1.95137e-06
1.9569e-07
1.59411e-06
7.43081e-07
2.00096e-05
7.38328e-08
2.00383e-05
2.21047e-07
2.00836e-05
3.61862e-07
2.01412e-05
4.91754e-07
2.02067e-05
6.08047e-07
2.0276e-05
7.09982e-07
2.03457e-05
7.97883e-07
2.04132e-05
8.7254e-07
2.04761e-05
9.35088e-07
2.0533e-05
9.8699e-07
2.05828e-05
1.02987e-06
2.06249e-05
1.06532e-06
2.06592e-05
1.09479e-06
2.06858e-05
1.11955e-06
2.07048e-05
1.1407e-06
2.07167e-05
1.15915e-06
2.07218e-05
1.17561e-06
2.07206e-05
1.19065e-06
2.07133e-05
1.20469e-06
2.07003e-05
1.21806e-06
2.06818e-05
1.23099e-06
2.06582e-05
1.24367e-06
2.06294e-05
1.25624e-06
2.05956e-05
1.26884e-06
2.05567e-05
1.2816e-06
2.05129e-05
1.29464e-06
2.0464e-05
1.30813e-06
2.04099e-05
1.32225e-06
2.03507e-05
1.33719e-06
2.02862e-05
1.35318e-06
2.02163e-05
1.37046e-06
2.01412e-05
1.38927e-06
2.00607e-05
1.40987e-06
1.99749e-05
1.43248e-06
1.9884e-05
1.45732e-06
1.97879e-05
1.48456e-06
1.96867e-05
1.51435e-06
1.95804e-05
1.54686e-06
1.94689e-05
1.58238e-06
1.9352e-05
1.62144e-06
1.92292e-05
1.66497e-06
1.90993e-05
1.71425e-06
1.89607e-05
1.77059e-06
1.88112e-05
1.83467e-06
1.86477e-05
1.9056e-06
1.84674e-05
1.98014e-06
1.82675e-05
2.05261e-06
1.80465e-05
2.11572e-06
1.78049e-05
2.16252e-06
1.75449e-05
2.18854e-06
1.72707e-05
2.19343e-06
1.6987e-05
2.18114e-06
1.66985e-05
2.15855e-06
1.64091e-05
2.13324e-06
1.6121e-05
2.11139e-06
1.58349e-05
2.09656e-06
1.55507e-05
2.08972e-06
1.52677e-05
2.09e-06
1.49849e-05
2.09582e-06
1.47015e-05
2.10558e-06
1.44168e-05
2.11811e-06
1.41301e-05
2.13266e-06
1.3841e-05
2.14878e-06
1.35491e-05
2.16615e-06
1.3254e-05
2.18453e-06
1.29554e-05
2.20369e-06
1.26529e-05
2.22344e-06
1.23463e-05
2.24359e-06
1.20353e-05
2.26397e-06
1.17196e-05
2.28443e-06
1.13991e-05
2.30481e-06
1.10734e-05
2.32499e-06
1.07425e-05
2.34483e-06
1.0406e-05
2.36422e-06
1.00638e-05
2.38302e-06
9.71579e-06
2.40114e-06
9.36177e-06
2.41847e-06
9.00163e-06
2.4349e-06
8.63525e-06
2.45036e-06
8.26254e-06
2.46477e-06
7.88343e-06
2.47807e-06
7.49787e-06
2.4902e-06
7.10584e-06
2.50115e-06
6.70737e-06
2.51088e-06
6.30248e-06
2.51942e-06
5.89128e-06
2.52678e-06
5.47388e-06
2.53301e-06
5.05044e-06
2.5382e-06
4.62118e-06
2.54243e-06
4.18637e-06
2.54582e-06
3.74632e-06
2.5485e-06
3.30143e-06
2.55059e-06
2.85212e-06
2.55225e-06
2.3989e-06
2.55354e-06
1.94239e-06
2.55405e-06
1.48359e-06
2.55004e-06
1.02596e-06
2.5215e-06
5.83476e-07
2.39386e-06
2.02368e-07
1.97521e-06
9.45449e-07
2.00073e-05
6.65648e-08
2.0029e-05
1.99299e-07
2.00636e-05
3.27278e-07
2.01082e-05
4.47132e-07
2.01596e-05
5.56645e-07
2.02147e-05
6.54887e-07
2.02708e-05
7.41781e-07
2.03256e-05
8.17725e-07
2.03773e-05
8.83449e-07
2.04243e-05
9.39963e-07
2.04657e-05
9.88451e-07
2.05009e-05
1.03013e-06
2.05295e-05
1.06616e-06
2.05515e-05
1.09761e-06
2.05668e-05
1.12539e-06
2.05756e-05
1.15032e-06
2.05782e-05
1.17306e-06
2.05747e-05
1.19415e-06
2.05653e-05
1.21402e-06
2.05504e-05
1.23301e-06
2.053e-05
1.2514e-06
2.05042e-05
1.26941e-06
2.04733e-05
1.28721e-06
2.04371e-05
1.30497e-06
2.03959e-05
1.32286e-06
2.03495e-05
1.34102e-06
2.0298e-05
1.35963e-06
2.02413e-05
1.37888e-06
2.01796e-05
1.39895e-06
2.01127e-05
1.42006e-06
2.00407e-05
1.44244e-06
1.99637e-05
1.4663e-06
1.98817e-05
1.49188e-06
1.97948e-05
1.51939e-06
1.97031e-05
1.54903e-06
1.96066e-05
1.58098e-06
1.95056e-05
1.61538e-06
1.94e-05
1.65245e-06
1.92899e-05
1.69255e-06
1.91749e-05
1.73638e-06
1.90548e-05
1.78513e-06
1.89286e-05
1.84046e-06
1.8795e-05
1.90418e-06
1.86521e-05
1.97749e-06
1.84978e-05
2.05994e-06
1.83294e-05
2.14851e-06
1.81448e-05
2.23729e-06
1.79422e-05
2.3183e-06
1.77213e-05
2.3834e-06
1.74832e-05
2.42664e-06
1.72303e-05
2.44629e-06
1.69662e-05
2.44532e-06
1.66944e-05
2.43034e-06
1.64183e-05
2.40936e-06
1.61402e-05
2.38943e-06
1.58616e-05
2.37515e-06
1.5583e-05
2.36837e-06
1.53041e-05
2.36887e-06
1.50246e-05
2.37534e-06
1.47438e-05
2.38632e-06
1.44613e-05
2.4006e-06
1.41766e-05
2.41737e-06
1.38893e-05
2.43612e-06
1.3599e-05
2.45649e-06
1.33053e-05
2.47822e-06
1.30079e-05
2.50105e-06
1.27066e-05
2.52476e-06
1.2401e-05
2.54914e-06
1.2091e-05
2.57402e-06
1.17762e-05
2.59923e-06
1.14564e-05
2.62459e-06
1.11314e-05
2.64997e-06
1.0801e-05
2.67523e-06
1.0465e-05
2.70022e-06
1.01232e-05
2.72482e-06
9.77549e-06
2.7489e-06
9.42161e-06
2.77234e-06
9.06147e-06
2.79504e-06
8.69495e-06
2.81689e-06
8.32193e-06
2.83779e-06
7.94233e-06
2.85767e-06
7.55609e-06
2.87644e-06
7.16318e-06
2.89406e-06
6.76358e-06
2.91047e-06
6.35734e-06
2.92566e-06
5.94451e-06
2.93961e-06
5.5252e-06
2.95233e-06
5.09956e-06
2.96384e-06
4.66778e-06
2.9742e-06
4.23014e-06
2.98347e-06
3.78692e-06
2.99171e-06
3.33851e-06
2.99901e-06
2.88532e-06
3.00543e-06
2.42786e-06
3.011e-06
1.96669e-06
3.01521e-06
1.50286e-06
3.01388e-06
1.03987e-06
2.98449e-06
5.91887e-07
2.84184e-06
2.05684e-07
2.36142e-06
1.15113e-06
2.00056e-05
6.09986e-08
2.00222e-05
1.82631e-07
2.00489e-05
3.0062e-07
2.00836e-05
4.12412e-07
2.0124e-05
5.16209e-07
2.01678e-05
6.11086e-07
2.02129e-05
6.96765e-07
2.02572e-05
7.73382e-07
2.02993e-05
8.41379e-07
2.03378e-05
9.01443e-07
2.03718e-05
9.54429e-07
2.04007e-05
1.00126e-06
2.0424e-05
1.04286e-06
2.04415e-05
1.08008e-06
2.04532e-05
1.11373e-06
2.0459e-05
1.14449e-06
2.04591e-05
1.17297e-06
2.04536e-05
1.19968e-06
2.04426e-05
1.22504e-06
2.04262e-05
1.2494e-06
2.04045e-05
1.27305e-06
2.03777e-05
1.29622e-06
2.03458e-05
1.31914e-06
2.03088e-05
1.34198e-06
2.02667e-05
1.36492e-06
2.02196e-05
1.38814e-06
2.01674e-05
1.41181e-06
2.01102e-05
1.43612e-06
2.00479e-05
1.46125e-06
1.99805e-05
1.48741e-06
1.99082e-05
1.5148e-06
1.98308e-05
1.54363e-06
1.97486e-05
1.57411e-06
1.96616e-05
1.60644e-06
1.95698e-05
1.6408e-06
1.94734e-05
1.67737e-06
1.93725e-05
1.71631e-06
1.92671e-05
1.75786e-06
1.91572e-05
1.80245e-06
1.90426e-05
1.85093e-06
1.8923e-05
1.90474e-06
1.87976e-05
1.96589e-06
1.86652e-05
2.03658e-06
1.85242e-05
2.1184e-06
1.8373e-05
2.21118e-06
1.82095e-05
2.31197e-06
1.80321e-05
2.4147e-06
1.78395e-05
2.51091e-06
1.76313e-05
2.59166e-06
1.74078e-05
2.65007e-06
1.71707e-05
2.68341e-06
1.69221e-05
2.69388e-06
1.66648e-05
2.68772e-06
1.64011e-05
2.67298e-06
1.61334e-05
2.65718e-06
1.5863e-05
2.64557e-06
1.55907e-05
2.64068e-06
1.53167e-05
2.64279e-06
1.50411e-05
2.65097e-06
1.47635e-05
2.66392e-06
1.44836e-05
2.6805e-06
1.42011e-05
2.69992e-06
1.39155e-05
2.72164e-06
1.36267e-05
2.7453e-06
1.33343e-05
2.77061e-06
1.30381e-05
2.7973e-06
1.27377e-05
2.82515e-06
1.24329e-05
2.85393e-06
1.21235e-05
2.88345e-06
1.18092e-05
2.91352e-06
1.14898e-05
2.94399e-06
1.11651e-05
2.97469e-06
1.08348e-05
3.00547e-06
1.04989e-05
3.03617e-06
1.0157e-05
3.06666e-06
9.80912e-06
3.09681e-06
9.45499e-06
3.12647e-06
9.0945e-06
3.15553e-06
8.72753e-06
3.18386e-06
8.35396e-06
3.21135e-06
7.97373e-06
3.2379e-06
7.58676e-06
3.26341e-06
7.19303e-06
3.2878e-06
6.79252e-06
3.31098e-06
6.38527e-06
3.33291e-06
5.97133e-06
3.35354e-06
5.55082e-06
3.37284e-06
5.12388e-06
3.39078e-06
4.69072e-06
3.40737e-06
4.25157e-06
3.42262e-06
3.80674e-06
3.43654e-06
3.35659e-06
3.44915e-06
2.90154e-06
3.46048e-06
2.44206e-06
3.47048e-06
1.97872e-06
3.47856e-06
1.51252e-06
3.48008e-06
1.04698e-06
3.45003e-06
5.96321e-07
3.2925e-06
2.07488e-07
2.75025e-06
1.35862e-06
2.00043e-05
5.67025e-08
2.00172e-05
1.69759e-07
2.00378e-05
2.79949e-07
2.00649e-05
3.85307e-07
2.00968e-05
4.84382e-07
2.01315e-05
5.76332e-07
2.01675e-05
6.60789e-07
2.02032e-05
7.3773e-07
2.02371e-05
8.07398e-07
2.02683e-05
8.7025e-07
2.02959e-05
9.26898e-07
2.03191e-05
9.78036e-07
2.03376e-05
1.02439e-06
2.0351e-05
1.06665e-06
2.03592e-05
1.10549e-06
2.03622e-05
1.14152e-06
2.03599e-05
1.17525e-06
2.03524e-05
1.20718e-06
2.03398e-05
1.23768e-06
2.0322e-05
1.26712e-06
2.02993e-05
1.29578e-06
2.02716e-05
1.32392e-06
2.0239e-05
1.35176e-06
2.02014e-05
1.37951e-06
2.0159e-05
1.40735e-06
2.01117e-05
1.43546e-06
2.00595e-05
1.46403e-06
2.00024e-05
1.49323e-06
1.99404e-05
1.52327e-06
1.98735e-05
1.55432e-06
1.98017e-05
1.58658e-06
1.97251e-05
1.62024e-06
1.96437e-05
1.65551e-06
1.95575e-05
1.69257e-06
1.94667e-05
1.7316e-06
1.93713e-05
1.77275e-06
1.92715e-05
1.81621e-06
1.91671e-05
1.86223e-06
1.90582e-05
1.91131e-06
1.89447e-05
1.96448e-06
1.8826e-05
2.02339e-06
1.87015e-05
2.09038e-06
1.85701e-05
2.16801e-06
1.84304e-05
2.25816e-06
1.82807e-05
2.36082e-06
1.81197e-05
2.47301e-06
1.7946e-05
2.58839e-06
1.77588e-05
2.69806e-06
1.7558e-05
2.79251e-06
1.73438e-05
2.86423e-06
1.71174e-05
2.90987e-06
1.68801e-05
2.93112e-06
1.66339e-05
2.9339e-06
1.63807e-05
2.92623e-06
1.61221e-05
2.91582e-06
1.58593e-05
2.9083e-06
1.55933e-05
2.90665e-06
1.53246e-05
2.91157e-06
1.50531e-05
2.92241e-06
1.4779e-05
2.93809e-06
1.45019e-05
2.95756e-06
1.42217e-05
2.98009e-06
1.39382e-05
3.00517e-06
1.36511e-05
3.03243e-06
1.33601e-05
3.0616e-06
1.3065e-05
3.0924e-06
1.27655e-05
3.12459e-06
1.24615e-05
3.15796e-06
1.21527e-05
3.1923e-06
1.18388e-05
3.22742e-06
1.15196e-05
3.26314e-06
1.1195e-05
3.2993e-06
1.08647e-05
3.33574e-06
1.05286e-05
3.37229e-06
1.01865e-05
3.4088e-06
9.83817e-06
3.44513e-06
9.48352e-06
3.48113e-06
9.12239e-06
3.51665e-06
8.75469e-06
3.55157e-06
8.38029e-06
3.58575e-06
7.99914e-06
3.61905e-06
7.61118e-06
3.65137e-06
7.21638e-06
3.68259e-06
6.81475e-06
3.71262e-06
6.40632e-06
3.74134e-06
5.99117e-06
3.76869e-06
5.56942e-06
3.79459e-06
5.14121e-06
3.81899e-06
4.70676e-06
3.84182e-06
4.26632e-06
3.86306e-06
3.82019e-06
3.88267e-06
3.36873e-06
3.90061e-06
2.91236e-06
3.91685e-06
2.45154e-06
3.93131e-06
1.98681e-06
3.94329e-06
1.51917e-06
3.94773e-06
1.05209e-06
3.9171e-06
5.99706e-07
3.74488e-06
2.08944e-07
3.14101e-06
1.56756e-06
2.00033e-05
5.33734e-08
2.00133e-05
1.59779e-07
2.00294e-05
2.63876e-07
2.00506e-05
3.64131e-07
2.00756e-05
4.59372e-07
2.0103e-05
5.48862e-07
2.01316e-05
6.32212e-07
2.016e-05
7.09307e-07
2.01872e-05
7.80256e-07
2.02121e-05
8.45354e-07
2.02339e-05
9.05035e-07
2.02522e-05
9.59821e-07
2.02663e-05
1.01027e-06
2.0276e-05
1.05696e-06
2.0281e-05
1.10043e-06
2.02813e-05
1.14121e-06
2.02768e-05
1.17977e-06
2.02675e-05
1.21652e-06
2.02533e-05
1.25185e-06
2.02343e-05
1.28609e-06
2.02106e-05
1.31952e-06
2.01821e-05
1.35241e-06
2.01489e-05
1.38498e-06
2.0111e-05
1.41744e-06
2.00683e-05
1.44999e-06
2.0021e-05
1.48281e-06
1.99689e-05
1.51609e-06
1.99121e-05
1.55002e-06
1.98506e-05
1.58477e-06
1.97844e-05
1.62054e-06