/*--------------------------------*- C++ -*----------------------------------*\
| =========                 |                                                 |
| \\      /  F ield         | OpenFOAM: The Open Source CFD Toolbox           |
|  \\    /   O peration     | Version:  4.1                                   |
|   \\  /    A nd           | Web:      www.OpenFOAM.org                      |
|    \\/     M anipulation  |                                                 |
\*---------------------------------------------------------------------------*/
FoamFile
{
    version     2.0;
    format      ascii;
    class       volVectorField;
    location    "97";
    object      U;
}
// * * * * * * * * * * * * * * * * * * * * * * * * * * * * * * * * * * * * * //

dimensions      [0 1 -1 0 0 0 0];

internalField   nonuniform List<vector> 
43750
(
(0.00959495 0.000329524 0)
(0.0090079 0.000647182 0)
(0.00825172 0.000687053 0)
(0.00733183 0.000612846 0)
(0.00643857 0.000505595 0)
(0.00566519 0.000390247 0)
(0.00500741 0.000280736 0)
(0.00444593 0.000188077 0)
(0.0039737 0.000116938 0)
(0.00358476 6.62322e-05 0)
(0.00326776 3.23178e-05 0)
(0.00300935 1.11251e-05 0)
(0.00279771 -1.02084e-06 0)
(0.00262303 -7.09014e-06 0)
(0.00247711 -9.28154e-06 0)
(0.00235321 -9.13422e-06 0)
(0.00224599 -7.69628e-06 0)
(0.00215136 -5.65727e-06 0)
(0.00206626 -3.44759e-06 0)
(0.00198845 -1.32009e-06 0)
(0.00191633 5.8913e-07 0)
(0.00184875 2.21859e-06 0)
(0.00178498 3.5524e-06 0)
(0.00172449 4.59984e-06 0)
(0.00166696 5.38172e-06 0)
(0.00161222 5.92232e-06 0)
(0.00156013 6.24595e-06 0)
(0.00151062 6.3767e-06 0)
(0.00146363 6.34017e-06 0)
(0.00141907 6.16559e-06 0)
(0.00137681 5.88709e-06 0)
(0.00133665 5.54382e-06 0)
(0.00129834 5.17815e-06 0)
(0.0012616 4.83192e-06 0)
(0.0012261 4.54116e-06 0)
(0.00119156 4.33068e-06 0)
(0.00115772 4.2099e-06 0)
(0.00112437 4.17122e-06 0)
(0.00109141 4.1921e-06 0)
(0.00105878 4.24048e-06 0)
(0.00102649 4.28224e-06 0)
(0.000994593 4.28869e-06 0)
(0.00096317 4.24181e-06 0)
(0.000932289 4.13623e-06 0)
(0.000902002 3.97803e-06 0)
(0.000872329 3.7815e-06 0)
(0.000843255 3.56504e-06 0)
(0.000814724 3.34742e-06 0)
(0.000786654 3.14479e-06 0)
(0.000758936 2.96887e-06 0)
(0.000731455 2.82605e-06 0)
(0.000704097 2.71741e-06 0)
(0.000676765 2.63932e-06 0)
(0.000649382 2.5847e-06 0)
(0.000621905 2.54467e-06 0)
(0.000594314 2.51015e-06 0)
(0.000566617 2.47329e-06 0)
(0.000538839 2.42818e-06 0)
(0.000511019 2.37092e-06 0)
(0.000483204 2.29936e-06 0)
(0.000455444 2.21251e-06 0)
(0.000427794 2.11006e-06 0)
(0.000400309 1.99203e-06 0)
(0.000373044 1.85856e-06 0)
(0.000346059 1.70977e-06 0)
(0.000319411 1.54578e-06 0)
(0.00029316 1.36668e-06 0)
(0.000267368 1.17251e-06 0)
(0.000242098 9.63326e-07 0)
(0.000217413 7.3914e-07 0)
(0.000193378 4.99978e-07 0)
(0.000170059 2.45871e-07 0)
(0.000147523 -2.3136e-08 0)
(0.000125836 -3.06969e-07 0)
(0.000105067 -6.05521e-07 0)
(8.52807e-05 -9.18637e-07 0)
(6.65439e-05 -1.24612e-06 0)
(4.89209e-05 -1.58776e-06 0)
(3.24744e-05 -1.94344e-06 0)
(1.72645e-05 -2.31364e-06 0)
(3.31613e-06 -2.70032e-06 0)
(-9.27648e-06 -3.07791e-06 0)
(-2.04618e-05 -3.47973e-06 0)
(-3.02378e-05 -3.88383e-06 0)
(-3.85585e-05 -4.29916e-06 0)
(-4.54192e-05 -4.71846e-06 0)
(-5.08031e-05 -5.13526e-06 0)
(-5.47173e-05 -5.55369e-06 0)
(-5.71964e-05 -5.9694e-06 0)
(-5.83033e-05 -6.37228e-06 0)
(-5.81008e-05 -6.72131e-06 0)
(-5.66552e-05 -7.00482e-06 0)
(-5.41261e-05 -7.23144e-06 0)
(-5.07605e-05 -7.37533e-06 0)
(-4.68978e-05 -7.39239e-06 0)
(-4.29237e-05 -7.25844e-06 0)
(-3.89097e-05 -7.09561e-06 0)
(-3.36346e-05 -7.37035e-06 0)
(-2.41479e-05 -8.54795e-06 0)
(-8.07401e-06 -8.40885e-06 0)
(0.0101182 0.000392815 0)
(0.0104668 0.000847166 0)
(0.0107362 0.00102712 0)
(0.0108242 0.00108698 0)
(0.0107488 0.00108808 0)
(0.0105581 0.00104177 0)
(0.0102856 0.000959792 0)
(0.00995557 0.000858706 0)
(0.00959165 0.000752068 0)
(0.0092147 0.000648456 0)
(0.00883957 0.000553055 0)
(0.00847556 0.000468793 0)
(0.00812817 0.000396796 0)
(0.00780043 0.000336847 0)
(0.00749352 0.000287917 0)
(0.00720735 0.000248578 0)
(0.00694106 0.000217277 0)
(0.00669337 0.000192495 0)
(0.00646286 0.000172851 0)
(0.00624807 0.000157159 0)
(0.0060476 0.000144444 0)
(0.00586017 0.000133933 0)
(0.00568465 0.000125028 0)
(0.00552004 0.000117278 0)
(0.00536548 0.000110358 0)
(0.0052202 0.000104038 0)
(0.00508353 9.81777e-05 0)
(0.00495482 9.27059e-05 0)
(0.00483345 8.76152e-05 0)
(0.00471876 8.29451e-05 0)
(0.00461006 7.8763e-05 0)
(0.00450658 7.51399e-05 0)
(0.00440753 7.21241e-05 0)
(0.00431207 6.97217e-05 0)
(0.00421942 6.7886e-05 0)
(0.00412886 6.65213e-05 0)
(0.00403978 6.5498e-05 0)
(0.00395179 6.46755e-05 0)
(0.00386466 6.39257e-05 0)
(0.00377839 6.31524e-05 0)
(0.0036931 6.23006e-05 0)
(0.00360903 6.13559e-05 0)
(0.00352645 6.03357e-05 0)
(0.00344555 5.92768e-05 0)
(0.00336645 5.82254e-05 0)
(0.00328912 5.72294e-05 0)
(0.00321341 5.6335e-05 0)
(0.00313904 5.55836e-05 0)
(0.00306568 5.50084e-05 0)
(0.00299295 5.46292e-05 0)
(0.00292051 5.44477e-05 0)
(0.00284803 5.44458e-05 0)
(0.0027753 5.45877e-05 0)
(0.00270213 5.48262e-05 0)
(0.00262844 5.51108e-05 0)
(0.00255418 5.53954e-05 0)
(0.00247938 5.56429e-05 0)
(0.00240406 5.58272e-05 0)
(0.00232828 5.59317e-05 0)
(0.00225211 5.59465e-05 0)
(0.00217562 5.58664e-05 0)
(0.0020989 5.56878e-05 0)
(0.00202202 5.54082e-05 0)
(0.00194507 5.50249e-05 0)
(0.00186815 5.45353e-05 0)
(0.00179135 5.39367e-05 0)
(0.00171477 5.3226e-05 0)
(0.00163851 5.24005e-05 0)
(0.0015627 5.14576e-05 0)
(0.00148743 5.03946e-05 0)
(0.00141284 4.92094e-05 0)
(0.00133904 4.79003e-05 0)
(0.00126616 4.64661e-05 0)
(0.00119432 4.49062e-05 0)
(0.00112366 4.32211e-05 0)
(0.00105431 4.14118e-05 0)
(0.000986397 3.94805e-05 0)
(0.000920043 3.74307e-05 0)
(0.000855376 3.52669e-05 0)
(0.00079251 3.29946e-05 0)
(0.000731554 3.06201e-05 0)
(0.000672619 2.81822e-05 0)
(0.000615799 2.56515e-05 0)
(0.000561162 2.30658e-05 0)
(0.000508771 2.0433e-05 0)
(0.000458665 1.77775e-05 0)
(0.000410865 1.51277e-05 0)
(0.000365367 1.25059e-05 0)
(0.000322133 9.94585e-06 0)
(0.000281106 7.49236e-06 0)
(0.000242179 5.22096e-06 0)
(0.000205172 3.19915e-06 0)
(0.000169864 1.50572e-06 0)
(0.000135977 2.68462e-07 0)
(0.000103132 -4.00779e-07 0)
(7.09583e-05 -6.99728e-07 0)
(3.96474e-05 -1.9092e-06 0)
(1.15572e-05 -7.12959e-06 0)
(-6.92142e-06 -1.86597e-05 0)
(-6.39651e-06 -2.38267e-05 0)
(0.0100098 0.000123017 0)
(0.0101314 0.000352534 0)
(0.0103504 0.000537109 0)
(0.0105961 0.000683408 0)
(0.0108182 0.00079525 0)
(0.0109965 0.000866249 0)
(0.01112 0.000896007 0)
(0.0111825 0.00089263 0)
(0.011185 0.00086618 0)
(0.0111346 0.000825051 0)
(0.0110407 0.000775767 0)
(0.0109123 0.000723322 0)
(0.0107576 0.000671244 0)
(0.0105839 0.000621719 0)
(0.0103969 0.000575896 0)
(0.0102016 0.000534217 0)
(0.0100014 0.000496684 0)
(0.00979935 0.000463031 0)
(0.00959737 0.000432851 0)
(0.00939709 0.000405687 0)
(0.00919968 0.00038109 0)
(0.009006 0.000358651 0)
(0.00881669 0.000338015 0)
(0.00863222 0.000318887 0)
(0.00845292 0.000301037 0)
(0.00827901 0.0002843 0)
(0.00811059 0.000268579 0)
(0.00794766 0.000253845 0)
(0.00779015 0.000240138 0)
(0.00763785 0.000227556 0)
(0.00749049 0.000216236 0)
(0.00734769 0.000206332 0)
(0.00720899 0.000197967 0)
(0.00707384 0.000191203 0)
(0.00694163 0.000186 0)
(0.00681171 0.000182199 0)
(0.00668341 0.000179522 0)
(0.00655613 0.000177594 0)
(0.00642938 0.000175995 0)
(0.00630285 0.000174316 0)
(0.00617645 0.000172233 0)
(0.00605037 0.000169562 0)
(0.00592505 0.000166291 0)
(0.00580109 0.000162574 0)
(0.00567918 0.000158688 0)
(0.00555993 0.000154958 0)
(0.00544375 0.000151684 0)
(0.00533073 0.000149084 0)
(0.00522065 0.000147265 0)
(0.00511297 0.000146229 0)
(0.00500699 0.000145897 0)
(0.00490198 0.000146137 0)
(0.00479725 0.000146797 0)
(0.00469228 0.000147725 0)
(0.00458672 0.000148789 0)
(0.00448037 0.000149881 0)
(0.00437313 0.000150925 0)
(0.00426499 0.000151868 0)
(0.00415596 0.000152678 0)
(0.00404608 0.000153335 0)
(0.00393537 0.000153828 0)
(0.0038239 0.000154147 0)
(0.00371171 0.000154285 0)
(0.00359885 0.000154233 0)
(0.00348541 0.000153982 0)
(0.00337144 0.000153524 0)
(0.00325704 0.000152847 0)
(0.0031423 0.000151944 0)
(0.00302732 0.000150806 0)
(0.0029122 0.000149422 0)
(0.00279706 0.000147787 0)
(0.00268202 0.000145893 0)
(0.0025672 0.000143735 0)
(0.00245275 0.000141309 0)
(0.0023388 0.000138613 0)
(0.00222549 0.000135647 0)
(0.00211296 0.000132414 0)
(0.00200136 0.000128919 0)
(0.00189083 0.000125172 0)
(0.00178152 0.000121185 0)
(0.00167355 0.000116976 0)
(0.00156707 0.00011257 0)
(0.00146218 0.000107985 0)
(0.001359 0.000103255 0)
(0.00125762 9.84163e-05 0)
(0.00115809 9.35117e-05 0)
(0.00106049 8.85928e-05 0)
(0.000964821 8.37167e-05 0)
(0.000871096 7.89511e-05 0)
(0.000779275 7.4375e-05 0)
(0.000689288 7.00739e-05 0)
(0.000601018 6.61625e-05 0)
(0.000514309 6.28034e-05 0)
(0.000428974 6.01818e-05 0)
(0.000344791 5.83983e-05 0)
(0.000261575 5.69334e-05 0)
(0.000179606 5.31435e-05 0)
(0.000101346 4.03237e-05 0)
(3.5852e-05 1.09486e-05 0)
(-5.16514e-07 -2.02114e-05 0)
(0.0100081 0.000107723 0)
(0.0100669 0.000306692 0)
(0.0101719 0.000462673 0)
(0.0103029 0.000574184 0)
(0.0104435 0.000654438 0)
(0.0105882 0.000711545 0)
(0.0107317 0.000748393 0)
(0.0108649 0.000767933 0)
(0.0109794 0.000773781 0)
(0.01107 0.000769134 0)
(0.011135 0.000756631 0)
(0.0111742 0.00073862 0)
(0.0111887 0.000717158 0)
(0.0111805 0.000693886 0)
(0.011152 0.000669986 0)
(0.0111058 0.000646238 0)
(0.0110442 0.000623107 0)
(0.0109693 0.000600819 0)
(0.0108832 0.000579434 0)
(0.0107876 0.000558906 0)
(0.0106838 0.000539129 0)
(0.0105732 0.000519976 0)
(0.010457 0.000501328 0)
(0.0103361 0.000483089 0)
(0.0102114 0.000465206 0)
(0.0100837 0.000447672 0)
(0.00995354 0.000430539 0)
(0.0098216 0.000413919 0)
(0.00968831 0.000397983 0)
(0.00955408 0.000382951 0)
(0.00941923 0.000369076 0)
(0.00928398 0.000356615 0)
(0.00914852 0.000345797 0)
(0.00901294 0.000336785 0)
(0.00887722 0.000329646 0)
(0.00874129 0.000324328 0)
(0.00860494 0.000320646 0)
(0.00846788 0.000318288 0)
(0.00832974 0.00031683 0)
(0.00819007 0.000315768 0)
(0.00804848 0.000314562 0)
(0.00790465 0.000312691 0)
(0.0077585 0.000309731 0)
(0.00761033 0.000305431 0)
(0.00746085 0.000299793 0)
(0.00731119 0.000293105 0)
(0.00716277 0.000285914 0)
(0.00701701 0.000278922 0)
(0.00687504 0.000272825 0)
(0.00673741 0.000268156 0)
(0.00660403 0.000265172 0)
(0.00647423 0.000263841 0)
(0.00634699 0.000263902 0)
(0.00622121 0.000264972 0)
(0.00609593 0.00026666 0)
(0.00597044 0.000268643 0)
(0.00584428 0.000270697 0)
(0.00571722 0.00027269 0)
(0.00558913 0.000274554 0)
(0.00545996 0.000276258 0)
(0.00532967 0.000277783 0)
(0.00519825 0.000279115 0)
(0.00506567 0.000280238 0)
(0.00493193 0.000281135 0)
(0.00479704 0.000281786 0)
(0.00466101 0.000282173 0)
(0.00452387 0.000282277 0)
(0.00438566 0.00028208 0)
(0.00424643 0.000281562 0)
(0.00410623 0.000280707 0)
(0.00396514 0.000279497 0)
(0.00382324 0.000277919 0)
(0.00368061 0.000275958 0)
(0.00353736 0.000273604 0)
(0.00339358 0.000270849 0)
(0.0032494 0.000267688 0)
(0.00310493 0.00026412 0)
(0.00296029 0.000260148 0)
(0.00281562 0.000255782 0)
(0.00267105 0.000251035 0)
(0.0025267 0.000245929 0)
(0.00238271 0.000240491 0)
(0.00223921 0.000234754 0)
(0.0020963 0.000228761 0)
(0.00195412 0.000222564 0)
(0.00181274 0.000216222 0)
(0.00167227 0.000209808 0)
(0.00153276 0.000203402 0)
(0.00139426 0.000197098 0)
(0.0012568 0.000191004 0)
(0.00112038 0.000185244 0)
(0.000984968 0.000179965 0)
(0.000850535 0.00017535 0)
(0.000717027 0.000171591 0)
(0.000584405 0.000168749 0)
(0.000452663 0.000166039 0)
(0.000322069 0.000159609 0)
(0.000194762 0.000138764 0)
(8.14207e-05 8.7264e-05 0)
(5.74387e-06 1.01105e-05 0)
(0.0100043 8.08878e-05 0)
(0.0100396 0.000233049 0)
(0.010106 0.000361464 0)
(0.0101914 0.000461233 0)
(0.0102831 0.00053676 0)
(0.0103758 0.000592878 0)
(0.0104685 0.000632117 0)
(0.0105591 0.000656955 0)
(0.0106449 0.000670622 0)
(0.0107238 0.000676203 0)
(0.0107943 0.000676093 0)
(0.0108557 0.000672094 0)
(0.0109072 0.000665602 0)
(0.0109484 0.000657652 0)
(0.0109793 0.000648948 0)
(0.011 0.000639917 0)
(0.0110107 0.000630786 0)
(0.0110118 0.000621642 0)
(0.0110035 0.000612478 0)
(0.0109864 0.00060323 0)
(0.0109607 0.000593809 0)
(0.0109268 0.000584123 0)
(0.0108851 0.000574095 0)
(0.0108359 0.000563681 0)
(0.0107795 0.000552875 0)
(0.0107163 0.000541722 0)
(0.0106467 0.000530324 0)
(0.0105709 0.000518837 0)
(0.0104894 0.000507476 0)
(0.0104025 0.0004965 0)
(0.0103106 0.0004862 0)
(0.0102141 0.000476874 0)
(0.0101132 0.000468801 0)
(0.0100085 0.00046221 0)
(0.00990015 0.00045725 0)
(0.00978845 0.000453972 0)
(0.00967355 0.000452318 0)
(0.00955547 0.000452116 0)
(0.0094341 0.000453091 0)
(0.00930917 0.000454876 0)
(0.00918021 0.000457022 0)
(0.00904666 0.000458996 0)
(0.00890787 0.000460187 0)
(0.00876337 0.000459943 0)
(0.00861303 0.000457669 0)
(0.00845737 0.000452981 0)
(0.00829767 0.000445884 0)
(0.00813592 0.000436878 0)
(0.00797451 0.000426925 0)
(0.00781571 0.000417244 0)
(0.00766121 0.000408997 0)
(0.00751175 0.000402997 0)
(0.00736711 0.000399542 0)
(0.00722636 0.00039844 0)
(0.00708824 0.00039917 0)
(0.00695149 0.000401109 0)
(0.00681513 0.000403702 0)
(0.00667847 0.000406562 0)
(0.00654109 0.000409464 0)
(0.00640277 0.000412302 0)
(0.00626335 0.000415032 0)
(0.00612271 0.000417628 0)
(0.00598076 0.000420065 0)
(0.00583742 0.000422315 0)
(0.00569261 0.000424346 0)
(0.00554627 0.000426125 0)
(0.00539838 0.000427622 0)
(0.00524889 0.000428806 0)
(0.00509779 0.000429646 0)
(0.00494509 0.000430115 0)
(0.00479078 0.000430185 0)
(0.00463489 0.00042983 0)
(0.00447744 0.000429027 0)
(0.00431848 0.000427754 0)
(0.00415806 0.000425996 0)
(0.00399623 0.000423738 0)
(0.00383308 0.000420971 0)
(0.00366867 0.000417692 0)
(0.0035031 0.000413904 0)
(0.00333645 0.000409617 0)
(0.00316884 0.000404849 0)
(0.00300037 0.000399627 0)
(0.00283115 0.000393985 0)
(0.00266128 0.000387969 0)
(0.00249089 0.000381638 0)
(0.00232007 0.00037506 0)
(0.00214894 0.000368316 0)
(0.00197759 0.000361502 0)
(0.00180611 0.000354726 0)
(0.00163459 0.000348113 0)
(0.0014631 0.000341803 0)
(0.0012917 0.000335956 0)
(0.00112045 0.000330753 0)
(0.00094945 0.00032637 0)
(0.000778788 0.00032282 0)
(0.000608605 0.000319109 0)
(0.000439199 0.000310304 0)
(0.000272455 0.000281423 0)
(0.000120372 0.000204684 0)
(1.17592e-05 6.5514e-05 0)
(0.0100027 6.38561e-05 0)
(0.0100258 0.000186964 0)
(0.0100718 0.000296923 0)
(0.0101343 0.000388384 0)
(0.0102036 0.000461366 0)
(0.0102737 0.000517929 0)
(0.0103421 0.000559807 0)
(0.0104071 0.000588816 0)
(0.0104673 0.000607382 0)
(0.0105219 0.0006181 0)
(0.0105706 0.00062321 0)
(0.0106138 0.000624486 0)
(0.0106517 0.000623318 0)
(0.0106846 0.000620753 0)
(0.0107126 0.000617522 0)
(0.010736 0.000614084 0)
(0.0107549 0.000610693 0)
(0.0107694 0.000607452 0)
(0.0107794 0.000604364 0)
(0.0107849 0.000601367 0)
(0.0107857 0.000598362 0)
(0.0107818 0.000595241 0)
(0.0107728 0.000591903 0)
(0.0107586 0.000588271 0)
(0.010739 0.000584303 0)
(0.010714 0.000579998 0)
(0.0106832 0.00057541 0)
(0.0106467 0.000570643 0)
(0.0106044 0.000565855 0)
(0.0105562 0.000561248 0)
(0.0105024 0.00055706 0)
(0.010443 0.000553543 0)
(0.0103781 0.000550945 0)
(0.0103081 0.000549484 0)
(0.0102331 0.000549329 0)
(0.0101535 0.000550581 0)
(0.0100693 0.000553265 0)
(0.00998066 0.000557332 0)
(0.00988761 0.000562668 0)
(0.00978997 0.000569107 0)
(0.00968734 0.000576425 0)
(0.00957908 0.0005843 0)
(0.0094643 0.000592238 0)
(0.00934194 0.000599501 0)
(0.00921098 0.000605092 0)
(0.00907086 0.000607891 0)
(0.0089218 0.00060694 0)
(0.00876511 0.00060181 0)
(0.00860314 0.000592882 0)
(0.00843892 0.000581382 0)
(0.00827553 0.000569104 0)
(0.00811541 0.000557911 0)
(0.00795992 0.000549231 0)
(0.00780925 0.000543753 0)
(0.00766271 0.000541407 0)
(0.0075191 0.000541603 0)
(0.00737719 0.000543549 0)
(0.00723594 0.000546528 0)
(0.00709462 0.000550032 0)
(0.00695275 0.000553766 0)
(0.00681002 0.000557586 0)
(0.00666621 0.000561424 0)
(0.00652114 0.000565234 0)
(0.00637467 0.000568973 0)
(0.00622665 0.000572592 0)
(0.00607696 0.000576043 0)
(0.0059255 0.000579281 0)
(0.00577219 0.000582259 0)
(0.00561694 0.000584936 0)
(0.0054597 0.000587271 0)
(0.00530042 0.000589225 0)
(0.00513906 0.000590761 0)
(0.00497559 0.000591845 0)
(0.00481 0.000592444 0)
(0.00464227 0.000592531 0)
(0.00447241 0.000592081 0)
(0.00430044 0.000591075 0)
(0.00412637 0.0005895 0)
(0.00395026 0.000587348 0)
(0.00377214 0.000584621 0)
(0.00359207 0.000581328 0)
(0.00341012 0.000577488 0)
(0.00322636 0.000573131 0)
(0.00304088 0.000568297 0)
(0.00285377 0.00056304 0)
(0.00266513 0.000557428 0)
(0.00247506 0.000551541 0)
(0.00228368 0.000545476 0)
(0.00209108 0.000539344 0)
(0.0018974 0.00053327 0)
(0.00170275 0.000527395 0)
(0.00150727 0.000521875 0)
(0.0013111 0.000516876 0)
(0.0011144 0.000512548 0)
(0.000917376 0.000508853 0)
(0.000720267 0.000504614 0)
(0.000523434 0.000493849 0)
(0.000328641 0.000457003 0)
(0.000148839 0.000352716 0)
(1.63538e-05 0.000139502 0)
(0.0100019 5.29097e-05 0)
(0.0100182 0.000156169 0)
(0.0100512 0.000251293 0)
(0.0100974 0.000333724 0)
(0.0101506 0.000402188 0)
(0.0102057 0.00045753 0)
(0.0102604 0.000500983 0)
(0.0103127 0.000533818 0)
(0.0103611 0.000557597 0)
(0.0104045 0.000574092 0)
(0.0104423 0.000584986 0)
(0.0104747 0.000591726 0)
(0.010502 0.000595524 0)
(0.0105245 0.000597365 0)
(0.0105426 0.000598011 0)
(0.010557 0.000598015 0)
(0.0105679 0.000597747 0)
(0.0105757 0.000597438 0)
(0.0105806 0.00059721 0)
(0.0105829 0.000597109 0)
(0.0105824 0.000597126 0)
(0.0105792 0.000597224 0)
(0.0105732 0.000597353 0)
(0.0105642 0.00059747 0)
(0.010552 0.000597547 0)
(0.0105364 0.00059758 0)
(0.0105172 0.000597601 0)
(0.010494 0.00059768 0)
(0.0104668 0.000597922 0)
(0.0104354 0.000598469 0)
(0.0103996 0.00059949 0)
(0.0103594 0.000601171 0)
(0.0103147 0.000603697 0)
(0.0102657 0.000607242 0)
(0.0102123 0.00061195 0)
(0.0101547 0.000617924 0)
(0.0100929 0.000625221 0)
(0.010027 0.000633862 0)
(0.00995697 0.000643845 0)
(0.00988268 0.000655176 0)
(0.00980379 0.00066787 0)
(0.00971971 0.000681906 0)
(0.00962952 0.0006971 0)
(0.00953193 0.000712915 0)
(0.00942547 0.000728292 0)
(0.00930872 0.000741644 0)
(0.00918082 0.000751107 0)
(0.00904191 0.000755056 0)
(0.00889338 0.000752713 0)
(0.00873783 0.000744557 0)
(0.00857855 0.000732316 0)
(0.00841882 0.000718495 0)
(0.0082612 0.00070563 0)
(0.00810715 0.000695605 0)
(0.00795699 0.00068929 0)
(0.00781016 0.000686598 0)
(0.0076657 0.000686829 0)
(0.00752259 0.000689091 0)
(0.00737995 0.000692607 0)
(0.00723717 0.000696846 0)
(0.00709381 0.000701503 0)
(0.00694956 0.000706422 0)
(0.00680418 0.000711514 0)
(0.00665746 0.000716708 0)
(0.00650922 0.000721939 0)
(0.00635931 0.00072714 0)
(0.00620758 0.000732247 0)
(0.00605389 0.000737201 0)
(0.00589815 0.000741945 0)
(0.00574023 0.000746429 0)
(0.00558007 0.000750601 0)
(0.00541756 0.000754414 0)
(0.00525264 0.000757823 0)
(0.00508526 0.000760786 0)
(0.00491535 0.000763264 0)
(0.00474287 0.000765221 0)
(0.0045678 0.000766629 0)
(0.00439011 0.000767462 0)
(0.00420979 0.000767702 0)
(0.00402685 0.000767338 0)
(0.00384129 0.000766369 0)
(0.00365314 0.000764803 0)
(0.00346243 0.000762656 0)
(0.00326922 0.00075996 0)
(0.00307358 0.000756758 0)
(0.00287556 0.000753106 0)
(0.00267526 0.000749075 0)
(0.00247279 0.000744752 0)
(0.00226826 0.000740237 0)
(0.0020618 0.000735646 0)
(0.00185355 0.000731106 0)
(0.00164369 0.000726756 0)
(0.00143239 0.000722738 0)
(0.00121988 0.000719172 0)
(0.0010064 0.000715971 0)
(0.000792262 0.000711775 0)
(0.000577892 0.000699523 0)
(0.00036505 0.000654836 0)
(0.000167348 0.00052151 0)
(1.93551e-05 0.000226623 0)
(0.0100014 4.51583e-05 0)
(0.0100132 0.000133743 0)
(0.0100374 0.000216862 0)
(0.010072 0.00029111 0)
(0.0101129 0.000355025 0)
(0.0101564 0.000408717 0)
(0.0102003 0.00045286 0)
(0.010243 0.000488267 0)
(0.010283 0.000515957 0)
(0.0103193 0.000537152 0)
(0.0103512 0.000553104 0)
(0.0103784 0.000564953 0)
(0.0104009 0.000573687 0)
(0.0104189 0.000580142 0)
(0.0104326 0.000584999 0)
(0.0104423 0.000588787 0)
(0.0104485 0.000591901 0)
(0.0104514 0.00059462 0)
(0.0104512 0.000597134 0)
(0.0104484 0.000599564 0)
(0.0104429 0.000601984 0)
(0.0104349 0.000604433 0)
(0.0104246 0.000606932 0)
(0.0104118 0.000609498 0)
(0.0103965 0.000612152 0)
(0.0103787 0.000614928 0)
(0.0103583 0.000617879 0)
(0.010335 0.000621077 0)
(0.0103089 0.000624622 0)
(0.0102797 0.000628631 0)
(0.0102474 0.00063324 0)
(0.0102119 0.000638593 0)
(0.0101731 0.000644838 0)
(0.0101311 0.000652111 0)
(0.0100858 0.000660531 0)
(0.0100373 0.000670191 0)
(0.00998561 0.000681158 0)
(0.00993069 0.000693483 0)
(0.00987254 0.000707238 0)
(0.00981104 0.000722554 0)
(0.00974593 0.000739655 0)
(0.00967674 0.000758817 0)
(0.00960265 0.000780224 0)
(0.00952245 0.000803692 0)
(0.00943461 0.000828354 0)
(0.00933742 0.000852476 0)
(0.00922944 0.000873582 0)
(0.00910988 0.000888997 0)
(0.00897909 0.000896664 0)
(0.00883865 0.000895925 0)
(0.00869119 0.000887872 0)
(0.0085398 0.000875073 0)
(0.00838738 0.000860762 0)
(0.00823608 0.000847878 0)
(0.00808706 0.000838346 0)
(0.00794052 0.000832859 0)
(0.00779605 0.00083111 0)
(0.00765295 0.000832274 0)
(0.00751047 0.000835446 0)
(0.00736802 0.00083991 0)
(0.00722512 0.000845202 0)
(0.00708143 0.000851061 0)
(0.00693668 0.000857336 0)
(0.00679065 0.000863922 0)
(0.00664313 0.00087073 0)
(0.00649395 0.000877675 0)
(0.00634294 0.000884675 0)
(0.00618996 0.000891658 0)
(0.00603487 0.000898555 0)
(0.00587756 0.000905301 0)
(0.00571789 0.000911838 0)
(0.00555578 0.000918109 0)
(0.00539113 0.000924058 0)
(0.00522384 0.000929635 0)
(0.00505383 0.000934792 0)
(0.00488105 0.000939485 0)
(0.00470541 0.000943673 0)
(0.00452687 0.000947322 0)
(0.00434539 0.000950403 0)
(0.00416094 0.000952893 0)
(0.00397348 0.000954779 0)
(0.00378302 0.000956055 0)
(0.00358956 0.000956725 0)
(0.00339311 0.000956806 0)
(0.00319372 0.000956325 0)
(0.00299142 0.000955324 0)
(0.00278629 0.000953858 0)
(0.00257842 0.000951995 0)
(0.00236791 0.000949818 0)
(0.00215488 0.000947422 0)
(0.00193949 0.000944913 0)
(0.00172192 0.000942404 0)
(0.00150237 0.000940009 0)
(0.00128107 0.000937813 0)
(0.0010583 0.000935684 0)
(0.000834373 0.000932068 0)
(0.000609804 0.000918767 0)
(0.000386387 0.000866359 0)
(0.000178164 0.000703043 0)
(2.10777e-05 0.00032191 0)
(0.010001 3.94698e-05 0)
(0.0100098 0.000117165 0)
(0.0100279 0.000191035 0)
(0.0100542 0.000258578 0)
(0.0100858 0.000318419 0)
(0.0101201 0.000370267 0)
(0.0101553 0.000414383 0)
(0.01019 0.00045126 0)
(0.0102229 0.000481587 0)
(0.010253 0.000506227 0)
(0.0102798 0.000526116 0)
(0.0103029 0.000542145 0)
(0.010322 0.000555116 0)
(0.0103372 0.000565725 0)
(0.0103486 0.000574558 0)
(0.0103563 0.000582092 0)
(0.0103605 0.0005887 0)
(0.0103614 0.000594665 0)
(0.0103592 0.000600199 0)
(0.0103541 0.000605453 0)
(0.0103462 0.000610541 0)
(0.0103357 0.000615541 0)
(0.0103225 0.000620518 0)
(0.0103069 0.000625526 0)
(0.0102887 0.000630622 0)
(0.0102681 0.000635867 0)
(0.0102449 0.000641335 0)
(0.0102191 0.000647112 0)
(0.0101908 0.0006533 0)
(0.0101599 0.000660013 0)
(0.0101263 0.000667374 0)
(0.01009 0.000675513 0)
(0.0100511 0.000684559 0)
(0.0100096 0.000694631 0)
(0.00996539 0.000705838 0)
(0.00991861 0.000718267 0)
(0.00986927 0.000731991 0)
(0.0098174 0.000747084 0)
(0.00976298 0.000763668 0)
(0.00970594 0.000781972 0)
(0.0096461 0.000802386 0)
(0.00958307 0.000825445 0)
(0.00951621 0.000851667 0)
(0.00944452 0.000881238 0)
(0.00936668 0.000913582 0)
(0.00928113 0.000947026 0)
(0.00918636 0.000978785 0)
(0.00908123 0.00100545 0)
(0.00896541 0.0010239 0)
(0.00883957 0.00103236 0)
(0.0087054 0.00103105 0)
(0.00856526 0.00102218 0)
(0.00842168 0.00100924 0)
(0.00827684 0.000995843 0)
(0.00813227 0.000984795 0)
(0.00798868 0.000977567 0)
(0.0078462 0.000974386 0)
(0.00770452 0.000974668 0)
(0.00756319 0.000977543 0)
(0.00742174 0.000982212 0)
(0.00727979 0.000988108 0)
(0.00713699 0.00099488 0)
(0.00699311 0.00100232 0)
(0.00684792 0.00101028 0)
(0.00670121 0.00101866 0)
(0.00655283 0.00102735 0)
(0.00640259 0.00103626 0)
(0.00625036 0.00104529 0)
(0.00609599 0.00105437 0)
(0.00593936 0.00106342 0)
(0.00578033 0.00107239 0)
(0.00561881 0.00108119 0)
(0.00545468 0.00108977 0)
(0.00528784 0.00109807 0)
(0.0051182 0.00110604 0)
(0.00494568 0.00111362 0)
(0.00477019 0.00112077 0)
(0.00459167 0.00112743 0)
(0.00441005 0.00113358 0)
(0.00422529 0.00113917 0)
(0.00403735 0.00114419 0)
(0.00384619 0.00114862 0)
(0.00365179 0.00115244 0)
(0.00345417 0.00115566 0)
(0.00325333 0.00115828 0)
(0.0030493 0.00116034 0)
(0.00284213 0.00116186 0)
(0.0026319 0.0011629 0)
(0.0024187 0.00116351 0)
(0.00220264 0.00116376 0)
(0.00198389 0.00116374 0)
(0.0017626 0.00116352 0)
(0.00153899 0.00116319 0)
(0.00131328 0.00116281 0)
(0.00108576 0.00116218 0)
(0.00085674 0.00115956 0)
(0.000626788 0.00114555 0)
(0.000397744 0.00108552 0)
(0.000183883 0.000891642 0)
(2.19496e-05 0.000421764 0)
(0.0100008 3.52139e-05 0)
(0.0100074 0.00010471 0)
(0.0100212 0.00017142 0)
(0.0100414 0.000233476 0)
(0.010066 0.000289695 0)
(0.0100931 0.000339637 0)
(0.0101212 0.000383325 0)
(0.0101492 0.000421032 0)
(0.0101761 0.000453208 0)
(0.0102009 0.000480456 0)
(0.0102232 0.000503458 0)
(0.0102424 0.000522902 0)
(0.0102584 0.000539429 0)
(0.0102711 0.00055362 0)
(0.0102804 0.000565975 0)
(0.0102864 0.000576922 0)
(0.0102892 0.000586805 0)
(0.010289 0.000595903 0)
(0.0102857 0.000604431 0)
(0.0102796 0.000612557 0)
(0.0102708 0.000620412 0)
(0.0102592 0.000628098 0)
(0.010245 0.000635701 0)
(0.0102283 0.000643296 0)
(0.0102089 0.000650956 0)
(0.010187 0.000658757 0)
(0.0101625 0.000666782 0)
(0.0101355 0.000675123 0)
(0.0101059 0.000683879 0)
(0.0100737 0.00069316 0)
(0.010039 0.000703082 0)
(0.0100017 0.000713764 0)
(0.00996197 0.000725322 0)
(0.00991973 0.00073787 0)
(0.00987506 0.000751507 0)
(0.00982802 0.000766323 0)
(0.00977864 0.000782393 0)
(0.00972698 0.000799813 0)
(0.00967305 0.000818746 0)
(0.00961681 0.000839503 0)
(0.00955811 0.000862615 0)
(0.00949665 0.000888826 0)
(0.0094319 0.000918929 0)
(0.00936308 0.000953411 0)
(0.00928911 0.00099196 0)
(0.00920876 0.00103302 0)
(0.00912077 0.00107368 0)
(0.0090241 0.00111009 0)
(0.00891819 0.00113841 0)
(0.0088032 0.00115596 0)
(0.00868005 0.00116217 0)
(0.00855031 0.00115877 0)
(0.00841585 0.00114915 0)
(0.0082785 0.00113726 0)
(0.00813973 0.00112648 0)
(0.00800047 0.00111891 0)
(0.00786115 0.00111526 0)
(0.00772182 0.00111528 0)
(0.00758229 0.00111823 0)
(0.0074423 0.00112332 0)
(0.00730155 0.00112997 0)
(0.00715981 0.00113775 0)
(0.00701685 0.00114643 0)
(0.00687247 0.00115584 0)
(0.0067265 0.00116584 0)
(0.00657878 0.00117632 0)
(0.00642915 0.00118717 0)
(0.00627747 0.00119829 0)
(0.0061236 0.00120959 0)
(0.00596742 0.00122099 0)
(0.00580881 0.00123241 0)
(0.00564764 0.00124379 0)
(0.00548383 0.00125506 0)
(0.00531726 0.00126614 0)
(0.00514784 0.00127698 0)
(0.00497547 0.00128752 0)
(0.00480009 0.0012977 0)
(0.0046216 0.00130747 0)
(0.00443996 0.00131678 0)
(0.00425508 0.0013256 0)
(0.00406694 0.00133388 0)
(0.00387549 0.00134159 0)
(0.00368071 0.00134872 0)
(0.00348259 0.00135524 0)
(0.00328113 0.00136115 0)
(0.00307635 0.00136646 0)
(0.0028683 0.00137118 0)
(0.00265704 0.00137534 0)
(0.00244266 0.00137897 0)
(0.00222528 0.00138211 0)
(0.00200502 0.00138482 0)
(0.00178206 0.00138714 0)
(0.0015566 0.00138914 0)
(0.00132887 0.00139083 0)
(0.00109912 0.00139198 0)
(0.000867683 0.00139062 0)
(0.000635144 0.00137611 0)
(0.000403374 0.00130853 0)
(0.000186717 0.0010838 0)
(2.23536e-05 0.000523943 0)
(0.0100006 3.19796e-05 0)
(0.0100057 9.52104e-05 0)
(0.0100163 0.00015634 0)
(0.0100319 0.000213953 0)
(0.0100511 0.000267076 0)
(0.0100725 0.000315245 0)
(0.010095 0.000358353 0)
(0.0101175 0.000396517 0)
(0.0101394 0.000430017 0)
(0.0101597 0.000459263 0)
(0.010178 0.00048475 0)
(0.0101938 0.000507002 0)
(0.0102069 0.000526529 0)
(0.0102171 0.000543808 0)
(0.0102244 0.000559265 0)
(0.0102288 0.000573275 0)
(0.0102303 0.000586155 0)
(0.0102289 0.000598166 0)
(0.0102247 0.000609525 0)
(0.0102179 0.000620405 0)
(0.0102084 0.000630948 0)
(0.0101962 0.000641272 0)
(0.0101815 0.000651477 0)
(0.0101643 0.000661651 0)
(0.0101445 0.000671878 0)
(0.0101222 0.000682243 0)
(0.0100974 0.000692832 0)
(0.01007 0.000703738 0)
(0.0100402 0.000715056 0)
(0.0100077 0.00072689 0)
(0.00997281 0.000739346 0)
(0.00993538 0.000752533 0)
(0.00989548 0.00076656 0)
(0.00985315 0.00078153 0)
(0.00980844 0.000797538 0)
(0.00976138 0.000814671 0)
(0.00971204 0.000833009 0)
(0.00966044 0.000852663 0)
(0.00960662 0.000873833 0)
(0.00955054 0.00089691 0)
(0.00949207 0.000922549 0)
(0.00943092 0.000951672 0)
(0.00936664 0.000985289 0)
(0.00929853 0.00102411 0)
(0.00922575 0.001068 0)
(0.00914732 0.00111548 0)
(0.00906231 0.00116357 0)
(0.00896992 0.00120814 0)
(0.0088697 0.00124489 0)
(0.00876164 0.00127056 0)
(0.00864625 0.00128397 0)
(0.00852449 0.00128641 0)
(0.00839766 0.00128106 0)
(0.0082671 0.00127198 0)
(0.00813403 0.00126284 0)
(0.00799934 0.00125615 0)
(0.0078636 0.00125304 0)
(0.00772705 0.00125353 0)
(0.00758969 0.00125707 0)
(0.00745142 0.00126296 0)
(0.00731209 0.0012706 0)
(0.00717152 0.00127959 0)
(0.00702955 0.00128967 0)
(0.006886 0.00130064 0)
(0.00674074 0.00131237 0)
(0.00659362 0.00132472 0)
(0.0064445 0.00133759 0)
(0.00629324 0.00135086 0)
(0.00613972 0.00136444 0)
(0.00598382 0.00137824 0)
(0.00582542 0.00139218 0)
(0.00566442 0.00140619 0)
(0.00550071 0.00142018 0)
(0.00533419 0.00143409 0)
(0.00516476 0.00144785 0)
(0.00499234 0.00146139 0)
(0.00481685 0.00147466 0)
(0.00463822 0.00148759 0)
(0.00445637 0.00150012 0)
(0.00427125 0.00151221 0)
(0.00408281 0.00152381 0)
(0.00389102 0.00153487 0)
(0.00369585 0.00154536 0)
(0.00349729 0.00155525 0)
(0.00329535 0.00156453 0)
(0.00309005 0.00157316 0)
(0.00288142 0.00158116 0)
(0.00266954 0.00158852 0)
(0.00245449 0.00159526 0)
(0.00223638 0.00160138 0)
(0.00201534 0.00160691 0)
(0.00179155 0.00161189 0)
(0.00156519 0.00161632 0)
(0.00133649 0.0016202 0)
(0.0011057 0.00162326 0)
(0.000873125 0.0016233 0)
(0.000639379 0.00160843 0)